INSANE! Membrane UpperLeaflet>loPI:POPI:DPPI:PYPI:ERGO=20.0:5.0:3.0:2.0:10.0 LowerLeaflet>loPI:POPI:DPPI:PYPI:ERGO=20.0:5.0:3.0:2.0:10.0
48566
    1loPI    C1    1   1.762   2.453  10.939 -0.1562 -0.0585  0.0201
    1loPI    C2    2   1.594   2.805  11.026  0.0657  0.0209  0.1349
    1loPI    C3    3   1.577   2.505  11.289  0.0064 -0.0070  0.0995
    1loPI   PO4    4   1.811   2.464  10.736 -0.1190 -0.0190  0.2696
    1loPI   GL1    5   1.734   2.419  10.321  0.1661 -0.2182 -0.1087
    1loPI   GL2    6   2.013   2.265  10.260  0.3396  0.0096 -0.1957
    1loPI   C1A    7   1.784   2.617   9.988  0.0328 -0.0592  0.2149
    1loPI   C2A    8   1.954   2.460   9.550  0.1403  0.0892 -0.1305
    1loPI   C3A    9   1.982   2.504   9.104 -0.0883  0.0210 -0.0477
    1loPI   C4A   10   2.018   2.516   8.742  0.0492 -0.3472 -0.0020
    1loPI   C5A   11   1.867   2.449   8.315  0.1721 -0.0462 -0.2451
    1loPI   C6A   12   1.841   2.565   7.892 -0.0257  0.1708 -0.0921
    1loPI   C1B   13   2.035   2.062   9.928  0.0454 -0.1864  0.0927
    1loPI   C2B   14   2.088   2.039   9.410 -0.1269  0.1132  0.2023
    1loPI   C3B   15   2.170   2.042   8.972  0.0121  0.0317 -0.0368
    1loPI   C4B   16   1.887   2.029   8.602  0.2897  0.0449 -0.2618
    2loPI    C1   17   4.792  14.714  10.875 -0.0402  0.0474 -0.0527
    2loPI    C2   18   4.839  14.487  11.201 -0.3389 -0.1561 -0.1468
    2loPI    C3   19   4.807  14.885  11.237  0.1672 -0.1236  0.0212
    2loPI   PO4   20   5.038  14.716  10.667 -0.1232 -0.0333 -0.2081
    2loPI   GL1   21   5.202  14.930  10.241  0.2351  0.3521 -0.0966
    2loPI   GL2   22   5.542  14.769  10.289 -0.4657 -0.0778 -0.1850
    2loPI   C1A   23   5.148  15.130   9.808  0.0822  0.0638  0.1042
    2loPI   C2A   24   5.148  15.050   9.379 -0.0462  0.2468  0.0662
    2loPI   C3A   25   5.189  15.166   8.954 -0.0662 -0.1413 -0.0098
    2loPI   C4A   26   5.213  15.103   8.498 -0.3165  0.0617  0.1157
    2loPI   C5A   27   5.543  14.822   8.289 -0.2242 -0.2028  0.1740
    2loPI   C6A   28   5.549  14.344   8.325 -0.0562  0.0278 -0.0464
    2loPI   C1B   29   5.737  14.662   9.997 -0.0152  0.2075 -0.0479
    2loPI   C2B   30   5.916  14.451   9.622  0.0692  0.1745 -0.2323
    2loPI   C3B   31   5.921  14.474   9.187 -0.0438 -0.0317 -0.0296
    2loPI   C4B   32   5.918  14.375   8.720  0.0542  0.1724 -0.0062
    3loPI    C1   33  15.257  16.214  10.637 -0.0242 -0.0092 -0.1174
    3loPI    C2   34  14.908  16.282  10.454 -0.1227 -0.2130 -0.0099
    3loPI    C3   35  14.962  15.944  10.661  0.1495 -0.1956 -0.0488
    3loPI   PO4   36  15.433  16.171  10.386  0.1862 -0.0344 -0.3814
    3loPI   GL1   37  15.231  16.006  10.092 -0.0144  0.0252 -0.3033
    3loPI   GL2   38  15.427  15.855   9.948  0.3243 -0.1389 -0.1922
    3loPI   C1A   39  14.805  16.046   9.934 -0.1193  0.0273 -0.2887
    3loPI   C2A   40  14.730  15.902   9.550  0.0645 -0.0027 -0.0053
    3loPI   C3A   41  14.684  16.057   9.168 -0.2313  0.1253 -0.1124
    3loPI   C4A   42  14.831  16.164   8.696 -0.2176  0.1769  0.1123
    3loPI   C5A   43  14.981  16.055   8.340  0.2205  0.1593 -0.2143
    3loPI   C6A   44  15.102  15.669   8.131 -0.0450  0.0003  0.1376
    3loPI   C1B   45  15.386  15.531   9.592 -0.2143 -0.0513  0.0905
    3loPI   C2B   46  15.605  15.445   9.192 -0.2528 -0.1540 -0.1773
    3loPI   C3B   47  15.507  15.606   8.801  0.1961 -0.4543 -0.0253
    3loPI   C4B   48  15.572  15.708   8.367 -0.0806 -0.0831  0.1277
    4loPI    C1   49   9.629  12.483  11.021  0.0419  0.1137  0.1761
    4loPI    C2   50   9.464  12.153  11.175 -0.1282  0.0367 -0.1604
    4loPI    C3   51   9.682  12.395  11.407  0.0274 -0.3280  0.0833
    4loPI   PO4   52   9.716  12.304  10.786  0.0375  0.0288 -0.2852
    4loPI   GL1   53   9.539  12.067  10.370  0.1820 -0.0247  0.1704
    4loPI   GL2   54   9.657  11.809  10.253  0.4343  0.3657 -0.1833
    4loPI   C1A   55   9.383  12.137   9.980 -0.1447 -0.0035 -0.0521
    4loPI   C2A   56   9.053  12.136   9.774 -0.2296  0.2790 -0.1485
    4loPI   C3A   57   8.866  12.288   9.455 -0.0122 -0.1830  0.0542
    4loPI   C4A   58   8.853  12.540   9.102 -0.0736 -0.2392 -0.0531
    4loPI   C5A   59   8.732  12.682   8.734  0.0011 -0.3540 -0.2342
    4loPI   C6A   60   8.433  12.587   8.453  0.2665 -0.0178 -0.1332
    4loPI   C1B   61   9.701  11.789   9.861 -0.2331 -0.0038  0.0277
    4loPI   C2B   62   9.858  11.853   9.464  0.1344  0.2304  0.0853
    4loPI   C3B   63   9.989  11.568   9.088 -0.3370  0.1110  0.1304
    4loPI   C4B   64   9.664  11.384   8.819 -0.0640  0.0008  0.3912
    5loPI    C1   65  11.058  11.245  10.747  0.0607  0.1071 -0.0720
    5loPI    C2   66  11.248  10.987  10.986  0.0937 -0.0195 -0.2334
    5loPI    C3   67  11.088  11.320  11.139  0.1468 -0.0808 -0.0417
    5loPI   PO4   68  11.165  11.301  10.578 -0.1107  0.1803 -0.1226
    5loPI   GL1   69  11.044  11.482  10.229 -0.0178 -0.1312  0.0993
    5loPI   GL2   70  11.126  11.749  10.323  0.1203 -0.1739 -0.0626
    5loPI   C1A   71  11.038  11.238   9.895  0.0880 -0.2057 -0.0454
    5loPI   C2A   72  11.110  11.192   9.513  0.0664  0.2025 -0.1638
    5loPI   C3A   73  10.965  11.334   9.098 -0.1074 -0.0502 -0.2229
    5loPI   C4A   74  10.901  11.314   8.778 -0.1905  0.3263 -0.0878
    5loPI   C5A   75  10.795  11.127   8.437 -0.0424  0.2069  0.0295
    5loPI   C6A   76  10.384  11.251   8.354 -0.0586  0.6770  0.0654
    5loPI   C1B   77  11.024  11.727   9.796 -0.2114  0.0782  0.1814
    5loPI   C2B   78  10.868  11.693   9.390 -0.0019  0.0986 -0.2907
    5loPI   C3B   79  10.781  11.816   8.954 -0.0805  0.0283 -0.1070
    5loPI   C4B   80  10.704  12.179   8.646  0.0516  0.1111 -0.0466
    6loPI    C1   81  16.624  12.124  10.993 -0.1075  0.1207 -0.0297
    6loPI    C2   82  16.894  11.867  11.138 -0.0902  0.0925 -0.1109
    6loPI    C3   83  16.923  12.257  11.224  0.0380  0.1047 -0.2064
    6loPI   PO4   84  16.651  12.087  10.768 -0.2500  0.1810  0.1158
    6loPI   GL1   85  16.432  11.997  10.345  0.1424  0.0062 -0.0497
    6loPI   GL2   86  16.086  12.062  10.381  0.2276  0.2251  0.1291
    6loPI   C1A   87  16.438  11.666   9.962 -0.2770  0.1049  0.3850
    6loPI   C2A   88  16.502  11.523   9.517  0.1404 -0.1674  0.2905
    6loPI   C3A   89  16.648  11.553   9.148 -0.2387  0.4209  0.2788
    6loPI   C4A   90  16.922  11.569   8.818 -0.0606 -0.1905 -0.0661
    6loPI   C5A   91  17.309  11.483   8.690  0.0436 -0.1097 -0.0036
    6loPI   C6A   92  17.517  11.201   8.379  0.2576 -0.3224  0.4138
    6loPI   C1B   93  16.217  12.151   9.924 -0.0957  0.1677  0.0781
    6loPI   C2B   94  16.329  12.120   9.581  0.0150 -0.0678  0.3074
    6loPI   C3B   95  16.345  12.135   9.183 -0.0259  0.0924 -0.0872
    6loPI   C4B   96  16.075  12.098   8.898  0.1426 -0.1124 -0.0764
    7loPI    C1   97   1.008  15.665  10.770  0.1341  0.1167 -0.0158
    7loPI    C2   98   1.151  15.428  11.060  0.0378 -0.1226 -0.1610
    7loPI    C3   99   0.780  15.576  11.087  0.1433  0.1207 -0.0081
    7loPI   PO4  100   1.213  15.834  10.727 -0.2238  0.0729 -0.1533
    7loPI   GL1  101   1.319  16.060  10.410 -0.0168  0.0048  0.0991
    7loPI   GL2  102   1.015  15.956  10.246 -0.5452 -0.2614 -0.2681
    7loPI   C1A  103   1.302  16.259   9.970 -0.1939  0.0015 -0.2063
    7loPI   C2A  104   1.515  16.389   9.553  0.1431  0.2225 -0.1906
    7loPI   C3A  105   1.477  16.197   9.147  0.0117 -0.0311  0.1488
    7loPI   C4A  106   1.478  16.263   8.731 -0.0263 -0.1094  0.0879
    7loPI   C5A  107   1.456  16.585   8.291  0.0341 -0.1222 -0.0045
    7loPI   C6A  108   1.247  16.809   8.008 -0.0150 -0.0541 -0.1374
    7loPI   C1B  109   1.118  15.940   9.713 -0.2404  0.1825 -0.0341
    7loPI   C2B  110   1.211  15.731   9.375  0.0586 -0.1105 -0.1364
    7loPI   C3B  111   1.424  15.747   8.928  0.2924 -0.1403  0.2095
    7loPI   C4B  112   1.752  15.535   8.685 -0.0303 -0.2197 -0.1772
    8loPI    C1  113  14.000   1.758  10.696 -0.3909  0.0557  0.1650
    8loPI    C2  114  14.245   1.559  10.942 -0.0982 -0.1111 -0.2496
    8loPI    C3  115  13.941   1.772  11.091  0.1002 -0.1669  0.2538
    8loPI   PO4  116  13.979   1.652  10.398  0.0620  0.1542  0.0925
    8loPI   GL1  117  14.011   1.825   9.993  0.0729 -0.1043  0.0533
    8loPI   GL2  118  13.995   1.550   9.789 -0.0919 -0.1643 -0.4387
    8loPI   C1A  119  13.868   2.051   9.614 -0.0043  0.0914 -0.1944
    8loPI   C2A  120  13.886   2.023   9.133 -0.0522 -0.0706  0.1874
    8loPI   C3A  121  13.798   1.963   8.794  0.0049  0.3045 -0.0028
    8loPI   C4A  122  14.063   1.912   8.467 -0.0042  0.2275 -0.0359
    8loPI   C5A  123  14.270   1.624   8.158 -0.0817 -0.2002 -0.3636
    8loPI   C6A  124  14.069   1.190   7.913  0.0708  0.3305  0.0347
    8loPI   C1B  125  14.084   1.617   9.383  0.0146 -0.1719 -0.2161
    8loPI   C2B  126  14.117   1.441   9.013  0.1432  0.2671 -0.1221
    8loPI   C3B  127  14.153   1.350   8.603  0.0453 -0.1999  0.2202
    8loPI   C4B  128  14.185   1.070   8.338  0.1350 -0.1041 -0.2594
    9loPI    C1  129   0.992  14.273  10.871 -0.0785 -0.2380 -0.3967
    9loPI    C2  130   1.334  14.150  10.703  0.1754  0.0908 -0.1348
    9loPI    C3  131   1.163  13.931  10.990  0.0495 -0.1790 -0.4096
    9loPI   PO4  132   0.837  14.420  10.677 -0.0530 -0.0515  0.0609
    9loPI   GL1  133   0.922  14.460  10.265  0.1125 -0.1543 -0.2980
    9loPI   GL2  134   0.572  14.350  10.165  0.2020 -0.0159  0.1122
    9loPI   C1A  135   0.961  14.360   9.780 -0.2364 -0.0761  0.0513
    9loPI   C2A  136   0.879  14.125   9.424 -0.2987  0.0364  0.1509
    9loPI   C3A  137   0.952  13.924   9.016  0.1828  0.1942 -0.2884
    9loPI   C4A  138   0.696  14.004   8.614  0.0158  0.0529 -0.0582
    9loPI   C5A  139   0.499  14.103   8.115  0.1285 -0.0981 -0.0876
    9loPI   C6A  140   0.400  14.415   7.866  0.1905  0.4106 -0.0754
    9loPI   C1B  141   0.527  14.608   9.753 -0.1626 -0.2083 -0.3252
    9loPI   C2B  142   0.410  14.820   9.388 -0.0755  0.1074  0.1481
    9loPI   C3B  143   0.645  14.936   9.046  0.0464 -0.2764 -0.1297
    9loPI   C4B  144   0.485  15.318   8.887 -0.0208 -0.0323 -0.1314
   10loPI    C1  145   5.080   6.898  10.889 -0.1316 -0.0469  0.1095
   10loPI    C2  146   4.900   6.541  10.874 -0.0276 -0.1090  0.3019
   10loPI    C3  147   5.272   6.572  11.019  0.0379  0.0499  0.1059
   10loPI   PO4  148   5.040   7.090  10.606  0.1170 -0.0082  0.0944
   10loPI   GL1  149   4.855   7.261  10.143 -0.0237 -0.1817  0.1398
   10loPI   GL2  150   4.652   7.477  10.123  0.0898 -0.1355 -0.0754
   10loPI   C1A  151   4.825   7.453   9.630 -0.3694  0.0369 -0.0193
   10loPI   C2A  152   4.667   7.238   9.224 -0.0005 -0.3302  0.0059
   10loPI   C3A  153   4.608   7.160   8.783 -0.0469 -0.0722 -0.1373
   10loPI   C4A  154   4.489   6.833   8.591  0.4251 -0.0086  0.1612
   10loPI   C5A  155   4.502   6.384   8.454  0.2791 -0.1078 -0.2666
   10loPI   C6A  156   4.397   6.065   8.557  0.0688  0.0929 -0.0119
   10loPI   C1B  157   4.463   7.150   9.803  0.1448  0.0279 -0.0614
   10loPI   C2B  158   4.567   6.877   9.504 -0.0651  0.2426 -0.0082
   10loPI   C3B  159   4.573   6.768   9.109  0.1519  0.0039 -0.2179
   10loPI   C4B  160   4.770   6.430   8.862  0.1180 -0.0497  0.2297
   11loPI    C1  161   6.846  10.793  10.351 -0.0892 -0.0513  0.1962
   11loPI    C2  162   6.792  10.695  10.735  0.0514 -0.2345  0.1706
   11loPI    C3  163   6.771  11.078  10.621  0.1225 -0.1672  0.3801
   11loPI   PO4  164   6.741  10.675  10.217 -0.0803  0.0866 -0.1923
   11loPI   GL1  165   6.673  10.731   9.751 -0.0281 -0.1370 -0.2808
   11loPI   GL2  166   6.682  11.099   9.707  0.0260  0.1262  0.0822
   11loPI   C1A  167   6.601  10.676   9.388 -0.0578  0.0361 -0.3684
   11loPI   C2A  168   6.506  10.873   9.030 -0.0340  0.1673 -0.0633
   11loPI   C3A  169   6.638  10.932   8.639 -0.1252 -0.0194  0.1020
   11loPI   C4A  170   6.793  10.810   8.265 -0.0014  0.1228 -0.0950
   11loPI   C5A  171   6.992  10.505   7.943  0.0605 -0.1485  0.1295
   11loPI   C6A  172   7.028  10.092   7.740 -0.0440 -0.2167  0.0821
   11loPI   C1B  173   6.967  11.078   9.271 -0.1076  0.2448 -0.2740
   11loPI   C2B  174   7.037  11.184   8.891 -0.1420 -0.0839  0.0253
   11loPI   C3B  175   6.908  11.266   8.418  0.2071  0.0939 -0.1107
   11loPI   C4B  176   7.039  11.294   7.993  0.1140 -0.1735 -0.0467
   12loPI    C1  177   2.751  15.594  10.830  0.1943  0.1097 -0.1941
   12loPI    C2  178   2.936  15.526  11.177  0.1511  0.1250 -0.1681
   12loPI    C3  179   2.633  15.786  11.161 -0.0277 -0.0808 -0.1610
   12loPI   PO4  180   3.021  15.660  10.592  0.2109 -0.0955  0.0722
   12loPI   GL1  181   3.432  15.648  10.419 -0.0213 -0.0118  0.2249
   12loPI   GL2  182   3.295  15.259  10.351  0.0381 -0.1085 -0.0144
   12loPI   C1A  183   3.615  15.529  10.015 -0.3322  0.4532 -0.0464
   12loPI   C2A  184   3.581  15.856   9.676 -0.0735 -0.0798 -0.1122
   12loPI   C3A  185   3.714  16.247   9.377  0.2214  0.0274  0.0168
   12loPI   C4A  186   3.573  16.465   9.015 -0.0672  0.5317 -0.1714
   12loPI   C5A  187   3.560  16.307   8.639  0.2665 -0.2060 -0.0175
   12loPI   C6A  188   3.642  16.544   8.214 -0.1999  0.0898 -0.0768
   12loPI   C1B  189   3.160  15.426   9.933  0.0780 -0.1941  0.3550
   12loPI   C2B  190   3.175  15.684   9.637  0.3173  0.2569  0.0589
   12loPI   C3B  191   3.056  16.057   9.554 -0.1215  0.2156 -0.1527
   12loPI   C4B  192   2.719  16.275   9.316 -0.1437 -0.4476 -0.0812
   13loPI    C1  193   8.869   8.804  10.544 -0.0859  0.1591  0.0316
   13loPI    C2  194   8.532   8.591  10.575  0.0543 -0.0652  0.0337
   13loPI    C3  195   8.617   8.872  10.847 -0.1693  0.0496 -0.0128
   13loPI   PO4  196   8.893   8.778  10.278 -0.2055  0.1068 -0.0837
   13loPI   GL1  197   9.016   8.645   9.890  0.1134  0.1086 -0.1758
   13loPI   GL2  198   9.063   8.277   9.880 -0.0730 -0.0214  0.1262
   13loPI   C1A  199   9.089   8.689   9.394 -0.0519  0.1359  0.0885
   13loPI   C2A  200   9.329   8.840   9.094  0.0986  0.1739  0.2707
   13loPI   C3A  201   9.557   8.728   8.771  0.1706 -0.2176 -0.2561
   13loPI   C4A  202   9.495   8.937   8.389  0.0799  0.1862 -0.0245
   13loPI   C5A  203   9.254   8.997   8.019 -0.3659  0.0138 -0.0938
   13loPI   C6A  204   8.805   8.787   7.836 -0.2582 -0.0073 -0.3132
   13loPI   C1B  205   9.408   8.227   9.654  0.2349  0.2424  0.3280
   13loPI   C2B  206   9.616   8.457   9.273 -0.2027  0.0317  0.1689
   13loPI   C3B  207   9.881   8.335   8.899 -0.2491 -0.0542 -0.2067
   13loPI   C4B  208  10.035   8.325   8.537  0.1304 -0.1645 -0.1064
   14loPI    C1  209  14.955   3.241  10.674  0.0263  0.1146  0.0509
   14loPI    C2  210  15.025   3.189  11.064  0.1136  0.0093  0.0219
   14loPI    C3  211  14.870   3.534  10.933 -0.1167 -0.0338  0.1738
   14loPI   PO4  212  15.152   3.126  10.565  0.0291  0.2531 -0.0275
   14loPI   GL1  213  15.347   3.194  10.267 -0.1894  0.0077 -0.0877
   14loPI   GL2  214  15.684   3.303  10.221  0.0476 -0.2178 -0.4018
   14loPI   C1A  215  15.456   2.921   9.880  0.1967 -0.0519 -0.0177
   14loPI   C2A  216  15.362   2.688   9.507 -0.3387  0.3405 -0.0131
   14loPI   C3A  217  15.191   2.682   9.071 -0.0212 -0.0519 -0.0446
   14loPI   C4A  218  15.133   2.540   8.657 -0.0116  0.1612  0.0537
   14loPI   C5A  219  15.114   2.401   8.204 -0.1901 -0.3125  0.0031
   14loPI   C6A  220  15.098   1.999   7.903 -0.0150  0.1122 -0.0300
   14loPI   C1B  221  15.722   3.752   9.840 -0.1061  0.1569 -0.1727
   14loPI   C2B  222  15.849   3.854   9.394  0.2551 -0.1282 -0.2108
   14loPI   C3B  223  16.057   3.933   9.023  0.0951 -0.2707 -0.2378
   14loPI   C4B  224  15.951   4.062   8.536  0.1721 -0.1276 -0.0486
   15loPI    C1  225  10.814  16.466  10.766  0.0296 -0.1342 -0.0743
   15loPI    C2  226  10.459  16.375  10.925  0.0631 -0.2373 -0.0578
   15loPI    C3  227  10.796  16.272  11.115  0.1021 -0.0912 -0.0462
   15loPI   PO4  228  10.871  16.431  10.574  0.0316  0.2657 -0.0606
   15loPI   GL1  229  10.571  16.287  10.164  0.0600  0.0896 -0.1879
   15loPI   GL2  230  10.342  15.993  10.069  0.0082  0.1979 -0.2172
   15loPI   C1A  231  10.467  16.484   9.791 -0.1096  0.1510  0.1287
   15loPI   C2A  232  10.337  16.684   9.445  0.0262 -0.1322  0.0363
   15loPI   C3A  233  10.193  16.793   9.098  0.7007 -0.1987 -0.2922
   15loPI   C4A  234  10.118  17.052   8.768 -0.0249  0.1344  0.0787
   15loPI   C5A  235   9.944  17.085   8.260  0.1041 -0.2362 -0.1724
   15loPI   C6A  236   9.486  16.981   8.124  0.0886 -0.1780 -0.0810
   15loPI   C1B  237  10.292  16.035   9.645  0.1711  0.1581  0.0189
   15loPI   C2B  238  10.383  16.150   9.236  0.0959 -0.4133 -0.3631
   15loPI   C3B  239  10.306  16.326   8.849  0.4323  0.1162 -0.2453
   15loPI   C4B  240  10.180  16.631   8.452 -0.0814 -0.1390  0.0381
   16loPI    C1  241   2.320  14.438  10.806  0.1028 -0.1066  0.2765
   16loPI    C2  242   2.394  14.689  11.109 -0.0280  0.0117  0.2114
   16loPI    C3  243   2.065  14.462  11.113 -0.2275  0.2879 -0.0163
   16loPI   PO4  244   2.344  14.575  10.638 -0.3814  0.0747 -0.0076
   16loPI   GL1  245   2.254  14.499  10.235 -0.2278  0.2022  0.0534
   16loPI   GL2  246   1.968  14.624  10.245  0.0038  0.1889  0.0545
   16loPI   C1A  247   2.427  14.689   9.786 -0.0264  0.2197  0.2147
   16loPI   C2A  248   2.257  14.856   9.465 -0.0498  0.0771 -0.2235
   16loPI   C3A  249   2.215  14.876   9.034 -0.0624  0.0606  0.3037
   16loPI   C4A  250   2.094  15.082   8.618 -0.0844 -0.1209  0.3096
   16loPI   C5A  251   2.445  15.329   8.384  0.0117 -0.3033  0.0100
   16loPI   C6A  252   2.738  15.632   8.516  0.2382 -0.1113 -0.0953
   16loPI   C1B  253   1.919  14.535   9.785  0.1083  0.1156  0.0051
   16loPI   C2B  254   1.781  14.273   9.568 -0.0264  0.0562  0.0673
   16loPI   C3B  255   1.882  13.993   9.213 -0.0311  0.3397 -0.1161
   16loPI   C4B  256   2.215  13.747   9.138  0.1067 -0.2510  0.3102
   17loPI    C1  257  11.143  15.134  10.763 -0.0977  0.2211 -0.0721
   17loPI    C2  258  11.232  15.115  11.153 -0.3787 -0.2788 -0.0228
   17loPI    C3  259  11.189  15.470  10.974  0.1252 -0.0391  0.3079
   17loPI   PO4  260  11.271  14.908  10.649  0.0672 -0.0994  0.0461
   17loPI   GL1  261  11.421  14.881  10.211 -0.1899 -0.2662 -0.2209
   17loPI   GL2  262  11.176  15.105  10.111  0.1278  0.0753 -0.0133
   17loPI   C1A  263  11.594  14.908   9.843  0.2560 -0.0255  0.0893
   17loPI   C2A  264  11.417  14.934   9.437 -0.0378 -0.0885 -0.0399
   17loPI   C3A  265  11.068  14.913   9.111  0.1664 -0.0371 -0.1390
   17loPI   C4A  266  11.079  15.041   8.683  0.0258  0.2297 -0.0227
   17loPI   C5A  267  10.701  15.247   8.480 -0.3595  0.0226 -0.1189
   17loPI   C6A  268  10.327  15.154   8.228  0.1124 -0.0606  0.0398
   17loPI   C1B  269  10.914  14.925   9.829 -0.0495 -0.4423 -0.1405
   17loPI   C2B  270  10.966  14.657   9.564 -0.2275 -0.2117 -0.3549
   17loPI   C3B  271  10.925  14.371   9.213  0.1751  0.1106 -0.3044
   17loPI   C4B  272  10.948  13.993   9.094 -0.0858 -0.1321 -0.0061
   18loPI    C1  273   1.569  14.628  10.582 -0.1580 -0.1620 -0.1848
   18loPI    C2  274   1.585  14.503  10.962 -0.2141 -0.0873 -0.1576
   18loPI    C3  275   1.836  14.350  10.690  0.0043  0.0484 -0.0360
   18loPI   PO4  276   1.432  14.870  10.608 -0.3532 -0.2576 -0.0884
   18loPI   GL1  277   1.281  14.978  10.287  0.0685  0.1064 -0.0948
   18loPI   GL2  278   1.533  14.830  10.139 -0.1212 -0.1594 -0.0633
   18loPI   C1A  279   0.954  14.919   9.976  0.1653 -0.1560  0.3109
   18loPI   C2A  280   0.953  14.909   9.541  0.1512 -0.2419  0.1772
   18loPI   C3A  281   0.890  14.609   9.273 -0.4461  0.1016 -0.0508
   18loPI   C4A  282   0.975  14.458   8.872 -0.1499  0.1417 -0.5735
   18loPI   C5A  283   1.399  14.513   8.624 -0.1117  0.2068 -0.2364
   18loPI   C6A  284   1.697  14.645   8.421 -0.0362  0.0104 -0.1049
   18loPI   C1B  285   1.338  14.675   9.678  0.1080  0.0475  0.1576
   18loPI   C2B  286   1.409  14.499   9.278 -0.1246  0.1748 -0.2430
   18loPI   C3B  287   1.396  14.199   9.044 -0.1063  0.0761 -0.0656
   18loPI   C4B  288   1.297  14.018   8.706 -0.3061  0.1578 -0.1606
   19loPI    C1  289  15.927   2.556  10.845 -0.3726 -0.1736  0.0124
   19loPI    C2  290  16.230   2.482  11.094  0.0185 -0.3553 -0.5001
   19loPI    C3  291  15.919   2.231  11.077 -0.3193 -0.0167  0.2368
   19loPI   PO4  292  16.069   2.704  10.649 -0.2363  0.2409 -0.1564
   19loPI   GL1  293  16.085   2.956  10.341 -0.0783 -0.0661  0.0552
   19loPI   GL2  294  16.459   2.827  10.274 -0.1776 -0.0450  0.0956
   19loPI   C1A  295  15.914   3.014   9.938  0.1319 -0.0629  0.0281
   19loPI   C2A  296  15.877   2.906   9.589  0.0924 -0.0842 -0.1555
   19loPI   C3A  297  15.665   2.996   9.176 -0.5344 -0.2087 -0.1246
   19loPI   C4A  298  15.411   3.111   8.865 -0.0673 -0.0768  0.1362
   19loPI   C5A  299  15.420   3.005   8.485  0.1032  0.3329 -0.0817
   19loPI   C6A  300  15.069   2.876   8.231  0.1506  0.1046 -0.1773
   19loPI   C1B  301  16.401   2.858   9.760 -0.1406  0.1028 -0.2705
   19loPI   C2B  302  16.297   2.931   9.366  0.3740  0.0292  0.0965
   19loPI   C3B  303  16.101   2.880   8.920  0.0060  0.1200  0.5584
   19loPI   C4B  304  15.996   2.766   8.506 -0.3507 -0.1917  0.1778
   20loPI    C1  305   6.080  17.283  10.951  0.0368 -0.0122  0.0922
   20loPI    C2  306   5.793  17.184  11.211 -0.0529 -0.0899 -0.0356
   20loPI    C3  307   6.037  17.490  11.290 -0.2187  0.0242  0.0395
   20loPI   PO4  308   5.972  17.237  10.621  0.1358  0.3321  0.1921
   20loPI   GL1  309   5.732  16.991  10.426 -0.1699 -0.2907  0.0832
   20loPI   GL2  310   5.467  16.988  10.266  0.1155  0.0060  0.1731
   20loPI   C1A  311   5.809  16.745   9.978 -0.1176  0.3014 -0.2493
   20loPI   C2A  312   5.945  16.634   9.593  0.1057 -0.0627 -0.1090
   20loPI   C3A  313   5.935  16.510   9.178 -0.2342  0.0857  0.1434
   20loPI   C4A  314   5.818  16.535   8.752  0.2307 -0.0430 -0.1813
   20loPI   C5A  315   5.508  16.439   8.518  0.0935 -0.2401  0.1959
   20loPI   C6A  316   5.350  16.041   8.580 -0.2614 -0.1691  0.0457
   20loPI   C1B  317   5.452  17.161   9.813 -0.2736  0.3509 -0.2307
   20loPI   C2B  318   5.239  16.910   9.414 -0.2987  0.3371  0.2729
   20loPI   C3B  319   5.070  16.873   8.927  0.3482  0.5036 -0.1596
   20loPI   C4B  320   4.736  16.835   8.754 -0.3138 -0.0028  0.1119
   21loPI    C1  321   8.760  12.435  10.731 -0.1422 -0.0249  0.0304
   21loPI    C2  322   8.384  12.307  10.781 -0.1858  0.1174  0.0716
   21loPI    C3  323   8.684  12.043  10.764 -0.2978 -0.0032 -0.0598
   21loPI   PO4  324   8.800  12.591  10.515 -0.0393 -0.1381 -0.0240
   21loPI   GL1  325   8.929  12.611  10.154  0.0825  0.3513  0.4384
   21loPI   GL2  326   8.703  12.517   9.950 -0.0410 -0.0756 -0.4043
   21loPI   C1A  327   9.185  12.629   9.810 -0.0263 -0.1974 -0.3265
   21loPI   C2A  328   9.238  12.858   9.304  0.0656 -0.1028  0.3273
   21loPI   C3A  329   9.220  12.724   8.799 -0.0370  0.0757  0.1127
   21loPI   C4A  330   9.405  12.741   8.372 -0.1498 -0.5865  0.1568
   21loPI   C5A  331   9.734  12.554   8.204  0.3809 -0.0741 -0.1242
   21loPI   C6A  332  10.100  12.353   8.073  0.0913 -0.2380  0.0729
   21loPI   C1B  333   8.805  12.844   9.600 -0.1829  0.0807 -0.1640
   21loPI   C2B  334   8.654  13.065   9.173  0.2004  0.3823 -0.1958
   21loPI   C3B  335   8.852  13.299   8.814  0.0689  0.0448 -0.0280
   21loPI   C4B  336   9.018  13.141   8.482 -0.3452 -0.1730  0.1422
   22loPI    C1  337   1.548   4.273  10.566 -0.0085 -0.3587 -0.2267
   22loPI    C2  338   1.935   4.186  10.618  0.0064 -0.0785  0.1875
   22loPI    C3  339   1.662   4.045  10.874 -0.1196  0.0434  0.1220
   22loPI   PO4  340   1.521   4.268  10.316  0.2335  0.0256  0.0207
   22loPI   GL1  341   1.674   3.990   9.990 -0.1152 -0.0920  0.3341
   22loPI   GL2  342   1.391   3.935   9.881 -0.0785  0.0483 -0.1731
   22loPI   C1A  343   1.640   3.787   9.574 -0.1568  0.2685  0.2109
   22loPI   C2A  344   1.632   3.766   9.188  0.1652 -0.1040  0.1325
   22loPI   C3A  345   1.523   3.772   8.711  0.0368 -0.2494 -0.0109
   22loPI   C4A  346   1.330   3.512   8.361 -0.2571 -0.1718  0.1449
   22loPI   C5A  347   1.287   3.292   7.931  0.0485 -0.0282 -0.0865
   22loPI   C6A  348   1.085   3.435   7.628  0.0303  0.0864  0.3661
   22loPI   C1B  349   1.150   3.827   9.524 -0.0341  0.0982 -0.1342
   22loPI   C2B  350   1.146   3.907   9.060  0.2145 -0.2275  0.0382
   22loPI   C3B  351   1.033   3.856   8.643  0.1773  0.2734  0.3908
   22loPI   C4B  352   1.288   3.999   8.323 -0.2630  0.0225  0.2483
   23loPI    C1  353  10.325   2.933  10.399 -0.0469  0.0971 -0.1470
   23loPI    C2  354   9.959   3.094  10.393 -0.1935 -0.2197  0.0122
   23loPI    C3  355  10.265   3.299  10.550 -0.2294  0.1824 -0.4183
   23loPI   PO4  356  10.376   2.859  10.176  0.0302 -0.0017 -0.3348
   23loPI   GL1  357  10.575   2.687   9.765  0.1419 -0.3279 -0.4456
   23loPI   GL2  358  10.634   2.366   9.725  0.1865 -0.4160 -0.0315
   23loPI   C1A  359  10.491   2.778   9.360 -0.0672 -0.2591 -0.1755
   23loPI   C2A  360  10.534   2.882   8.899 -0.1310  0.1231 -0.0937
   23loPI   C3A  361  10.673   3.119   8.539 -0.1687 -0.2309  0.1871
   23loPI   C4A  362  11.009   3.217   8.252 -0.0380  0.0661  0.3989
   23loPI   C5A  363  11.077   3.385   7.759 -0.1422  0.1465 -0.2083
   23loPI   C6A  364  10.968   3.797   7.611 -0.0557 -0.2410 -0.0231
   23loPI   C1B  365  10.829   2.470   9.271 -0.1111  0.5116 -0.1981
   23loPI   C2B  366  10.792   2.473   8.841  0.1268  0.0619  0.1918
   23loPI   C3B  367  10.847   2.242   8.545 -0.0991  0.1057  0.1060
   23loPI   C4B  368  11.089   1.977   8.407  0.1277  0.3027 -0.0605
   24loPI    C1  369  15.740  16.637  10.820  0.1723 -0.0956 -0.0139
   24loPI    C2  370  15.639  16.431  11.148  0.1286 -0.0059  0.0293
   24loPI    C3  371  15.605  16.829  11.144 -0.0495 -0.0217 -0.1489
   24loPI   PO4  372  15.559  16.566  10.652  0.3541 -0.3632 -0.0057
   24loPI   GL1  373  15.155  16.692  10.465  0.1051  0.4517  0.0783
   24loPI   GL2  374  15.225  16.607  10.205  0.1384 -0.1639  0.2071
   24loPI   C1A  375  14.788  16.621   9.965  0.2219  0.1514  0.0918
   24loPI   C2A  376  14.881  16.454   9.513 -0.0246 -0.0341  0.2834
   24loPI   C3A  377  15.076  16.401   9.156 -0.0260  0.2271 -0.1240
   24loPI   C4A  378  15.106  16.610   8.758 -0.0293 -0.1436 -0.0604
   24loPI   C5A  379  15.089  16.972   8.413 -0.0856  0.2224  0.0288
   24loPI   C6A  380  14.843  17.241   8.241  0.1044 -0.2665  0.1003
   24loPI   C1B  381  15.235  16.403   9.827 -0.0653 -0.0300 -0.5628
   24loPI   C2B  382  15.178  16.035   9.591 -0.4307  0.1055 -0.0709
   24loPI   C3B  383  15.209  15.859   9.183  0.2058  0.0619  0.1209
   24loPI   C4B  384  15.001  15.719   8.761  0.0556 -0.1656 -0.2331
   25loPI    C1  385  10.192   6.345  10.642  0.0385  0.0065  0.0743
   25loPI    C2  386  10.209   5.948  10.681 -0.3440 -0.0087  0.1193
   25loPI    C3  387  10.359   6.183  10.967 -0.1231 -0.1188  0.0959
   25loPI   PO4  388  10.287   6.326  10.354 -0.0381  0.0472  0.0253
   25loPI   GL1  389  10.181   6.400   9.970 -0.1501 -0.0752 -0.1854
   25loPI   GL2  390   9.988   6.161   9.808  0.0096 -0.1705  0.0779
   25loPI   C1A  391  10.387   6.376   9.632  0.1339 -0.1320 -0.0961
   25loPI   C2A  392  10.377   6.189   9.180 -0.2192  0.2377 -0.1647
   25loPI   C3A  393  10.671   6.097   8.869  0.0102  0.1399  0.1772
   25loPI   C4A  394  10.733   5.905   8.482 -0.1447 -0.3826 -0.1804
   25loPI   C5A  395  10.492   5.742   8.120  0.0388 -0.2935 -0.2159
   25loPI   C6A  396  10.459   5.439   7.882  0.0819 -0.2476  0.2549
   25loPI   C1B  397   9.872   6.100   9.389  0.0460 -0.0687  0.0593
   25loPI   C2B  398   9.878   6.210   8.908  0.5067 -0.1308  0.2536
   25loPI   C3B  399   9.719   6.205   8.532 -0.0246 -0.2395  0.1892
   25loPI   C4B  400   9.881   6.475   8.193 -0.1963  0.0814  0.0692
   26loPI    C1  401  15.409  10.504  10.863 -0.1750  0.0404  0.0834
   26loPI    C2  402  15.203  10.253  11.097 -0.1849 -0.2234 -0.2016
   26loPI    C3  403  15.514  10.457  11.246 -0.2430 -0.3226  0.0611
   26loPI   PO4  404  15.465  10.348  10.636 -0.1402 -0.0550 -0.1015
   26loPI   GL1  405  15.590  10.443  10.201 -0.0386  0.2652 -0.3260
   26loPI   GL2  406  15.300  10.647  10.223  0.2281 -0.1112  0.2069
   26loPI   C1A  407  15.466  10.463   9.751 -0.1767  0.1724  0.0462
   26loPI   C2A  408  15.296  10.536   9.337 -0.0058 -0.0349 -0.2842
   26loPI   C3A  409  15.292  10.447   8.909  0.1099 -0.2357  0.1543
   26loPI   C4A  410  15.522  10.326   8.603  0.2944 -0.1678  0.1940
   26loPI   C5A  411  15.526   9.906   8.405 -0.1751  0.2148  0.1564
   26loPI   C6A  412  15.659   9.735   8.096  0.1073 -0.1885  0.2553
   26loPI   C1B  413  15.235  10.896   9.880 -0.0163 -0.2664  0.0141
   26loPI   C2B  414  15.219  11.056   9.518  0.0819  0.0743  0.0326
   26loPI   C3B  415  15.271  11.027   9.139 -0.1877 -0.1730 -0.1424
   26loPI   C4B  416  15.332  10.920   8.712  0.0295 -0.1344 -0.2037
   27loPI    C1  417   7.068   9.808  10.733  0.1222  0.0624  0.1171
   27loPI    C2  418   6.668   9.802  10.739  0.1229 -0.2328  0.0411
   27loPI    C3  419   6.875   9.578  10.998  0.2424  0.0373  0.1837
   27loPI   PO4  420   7.203   9.743  10.431  0.0049 -0.0463 -0.3355
   27loPI   GL1  421   7.138   9.884   9.945 -0.5467 -0.0713 -0.1388
   27loPI   GL2  422   6.885   9.801   9.778  0.0079  0.1418  0.1329
   27loPI   C1A  423   7.267  10.113   9.477  0.2517 -0.1195  0.1043
   27loPI   C2A  424   7.297  10.258   8.993  0.2050  0.2026 -0.0428
   27loPI   C3A  425   7.294  10.354   8.666 -0.1264  0.0588  0.3140
   27loPI   C4A  426   7.214  10.617   8.343 -0.0058  0.1256  0.2253
   27loPI   C5A  427   7.425  11.049   8.241  0.1461 -0.0418 -0.1964
   27loPI   C6A  428   7.633  11.307   8.126 -0.0519 -0.0776 -0.0612
   27loPI   C1B  429   6.872   9.666   9.293  0.0387  0.3532  0.1190
   27loPI   C2B  430   6.920   9.378   8.874 -0.2112  0.3215  0.2300
   27loPI   C3B  431   7.152   9.355   8.543  0.0263  0.2170  0.1563
   27loPI   C4B  432   7.440   9.346   8.368 -0.0561 -0.2701 -0.3637
   28loPI    C1  433   0.995  13.567  10.576  0.1974 -0.2213  0.0442
   28loPI    C2  434   1.322  13.655  10.363  0.0904  0.0046 -0.0299
   28loPI    C3  435   1.355  13.456  10.708  0.3013 -0.0147 -0.0603
   28loPI   PO4  436   0.866  13.777  10.596 -0.2064  0.1664  0.3202
   28loPI   GL1  437   0.778  13.886  10.155  0.0356 -0.1657  0.0237
   28loPI   GL2  438   1.076  13.979  10.152 -0.0293  0.2175  0.3350
   28loPI   C1A  439   0.545  13.985   9.824  0.1004 -0.0066 -0.1054
   28loPI   C2A  440   0.529  13.776   9.439 -0.1546 -0.2257  0.2265
   28loPI   C3A  441   0.364  13.660   9.055 -0.0008  0.1425  0.0265
   28loPI   C4A  442   0.293  13.696   8.636 -0.1131  0.0766 -0.0252
   28loPI   C5A  443   0.492  13.516   8.205 -0.3423  0.3081  0.0159
   28loPI   C6A  444   0.732  13.532   7.903  0.1154 -0.4658 -0.1875
   28loPI   C1B  445   1.007  13.723   9.738 -0.2740 -0.1338  0.0136
   28loPI   C2B  446   1.000  13.506   9.311 -0.1346 -0.2366 -0.2235
   28loPI   C3B  447   0.844  13.386   9.001 -0.0205  0.1746 -0.0972
   28loPI   C4B  448   0.706  13.433   8.674 -0.1759  0.1738 -0.5024
   29loPI    C1  449   3.418   4.547  10.383  0.0194  0.0701 -0.0515
   29loPI    C2  450   3.492   4.940  10.397 -0.0805  0.0850  0.0799
   29loPI    C3  451   3.738   4.697  10.196  0.0003  0.2099  0.0265
   29loPI   PO4  452   3.173   4.541  10.266  0.1873  0.2726  0.1427
   29loPI   GL1  453   3.134   4.641   9.980  0.1043 -0.0016  0.0935
   29loPI   GL2  454   2.876   4.834   9.979  0.0477 -0.0400 -0.0716
   29loPI   C1A  455   3.169   4.578   9.545  0.1054  0.1029  0.5103
   29loPI   C2A  456   3.053   4.635   9.089  0.3540 -0.4281  0.0453
   29loPI   C3A  457   3.231   4.767   8.662  0.2984 -0.1802  0.1413
   29loPI   C4A  458   3.350   4.730   8.162 -0.3264 -0.0367  0.0946
   29loPI   C5A  459   3.630   4.714   7.808 -0.3797 -0.1648 -0.0619
   29loPI   C6A  460   3.981   4.964   7.728 -0.4078  0.0492 -0.0107
   29loPI   C1B  461   2.721   4.818   9.598  0.3077 -0.0613  0.0151
   29loPI   C2B  462   2.603   4.760   9.107 -0.0023  0.0239  0.2619
   29loPI   C3B  463   2.656   4.695   8.712  0.1376 -0.1733 -0.0350
   29loPI   C4B  464   2.793   4.671   8.310 -0.3968  0.0384  0.0101
   30loPI    C1  465   5.876   5.247  10.718  0.1413  0.2778  0.1283
   30loPI    C2  466   5.678   5.059  11.010  0.2397  0.1120  0.0892
   30loPI    C3  467   5.630   5.452  10.957  0.4474  0.2005  0.5196
   30loPI   PO4  468   5.835   5.104  10.478  0.2183 -0.1083 -0.4074
   30loPI   GL1  469   5.397   4.958  10.162 -0.1073  0.1554 -0.2559
   30loPI   GL2  470   5.232   5.214   9.922 -0.0722  0.3797 -0.1365
   30loPI   C1A  471   5.201   4.669   9.887  0.0344 -0.0842  0.0098
   30loPI   C2A  472   5.025   4.792   9.587 -0.0270 -0.1330 -0.1018
   30loPI   C3A  473   5.040   4.877   9.173  0.3634 -0.0980  0.2055
   30loPI   C4A  474   5.137   5.002   8.789 -0.0509  0.1514 -0.2332
   30loPI   C5A  475   5.075   5.078   8.395  0.1995 -0.0248 -0.2822
   30loPI   C6A  476   5.003   5.138   7.988 -0.0813  0.1615  0.1366
   30loPI   C1B  477   4.916   5.261   9.580  0.1443  0.1461 -0.3601
   30loPI   C2B  478   4.594   5.125   9.338  0.0315  0.1559 -0.3590
   30loPI   C3B  479   4.600   4.994   9.018  0.3709  0.2180  0.0657
   30loPI   C4B  480   4.449   4.875   8.632  0.1237 -0.3523 -0.4259
   31loPI    C1  481  17.694   4.276  10.747 -0.2802  0.0352 -0.1604
   31loPI    C2  482  17.634   3.968  10.996 -0.1129 -0.0380 -0.2097
   31loPI    C3  483  17.969   4.185  11.023 -0.0973 -0.0414 -0.3654
   31loPI   PO4  484  17.667   4.137  10.481  0.0746  0.0550 -0.0094
   31loPI   GL1  485  17.586   4.319  10.097  0.0397  0.3547  0.0094
   31loPI   GL2  486  17.464   4.573  10.108 -0.3383  0.3817 -0.0107
   31loPI   C1A  487  17.500   4.443   9.644 -0.0034 -0.2864  0.0290
   31loPI   C2A  488  17.197   4.600   9.285 -0.1543 -0.3274 -0.0682
   31loPI   C3A  489  17.136   4.795   8.889  0.0605 -0.0214  0.2048
   31loPI   C4A  490  17.261   5.012   8.542 -0.2635 -0.1583  0.1988
   31loPI   C5A  491  17.552   4.932   8.231  0.0647 -0.2101  0.0296
   31loPI   C6A  492  17.944   4.656   8.053  0.0431  0.1093  0.0638
   31loPI   C1B  493  17.140   4.715   9.873  0.3684  0.1466 -0.1283
   31loPI   C2B  494  16.790   4.573   9.573 -0.3519 -0.1194 -0.1207
   31loPI   C3B  495  16.697   4.566   9.108  0.0452  0.3759  0.3038
   31loPI   C4B  496  16.849   4.462   8.653  0.3572 -0.2668 -0.1501
   32loPI    C1  497   1.913  12.227  10.590 -0.1195  0.2871  0.0124
   32loPI    C2  498   2.133  12.338  10.905  0.0446  0.6667 -0.2279
   32loPI    C3  499   1.751  12.231  10.956  0.2604  0.0279  0.1910
   32loPI   PO4  500   2.042  12.055  10.467 -0.1729 -0.0445 -0.0404
   32loPI   GL1  501   2.265  12.092  10.143 -0.1508 -0.0438  0.0689
   32loPI   GL2  502   2.038  11.752  10.039 -0.2382  0.2847 -0.0256
   32loPI   C1A  503   2.219  12.034   9.654 -0.4330  0.0289 -0.3573
   32loPI   C2A  504   2.379  11.796   9.323  0.3456 -0.0565 -0.0142
   32loPI   C3A  505   2.419  11.483   8.946 -0.2414  0.0851 -0.3088
   32loPI   C4A  506   2.344  11.340   8.588  0.2413  0.3990 -0.3371
   32loPI   C5A  507   2.518  11.236   8.217 -0.0135  0.1731  0.1942
   32loPI   C6A  508   2.470  11.282   7.801 -0.0858 -0.1620  0.3468
   32loPI   C1B  509   1.927  11.644   9.640 -0.0462  0.1952  0.1729
   32loPI   C2B  510   1.789  11.491   9.191 -0.1023  0.1266 -0.0865
   32loPI   C3B  511   1.758  11.181   8.889 -0.3718 -0.3295  0.2167
   32loPI   C4B  512   1.513  11.046   8.569  0.2342 -0.1060 -0.0058
   33loPI    C1  513  16.096  15.388  10.534 -0.0883  0.2083  0.2056
   33loPI    C2  514  15.706  15.324  10.478 -0.0399 -0.0200  0.1198
   33loPI    C3  515  15.829  15.557  10.779 -0.2426  0.0746  0.1311
   33loPI   PO4  516  16.188  15.427  10.295 -0.0243 -0.1606 -0.1696
   33loPI   GL1  517  16.354  15.215   9.949  0.3065 -0.0844  0.4489
   33loPI   GL2  518  16.325  14.943   9.963 -0.0338 -0.0965 -0.0866
   33loPI   C1A  519  16.264  15.318   9.584  0.0384 -0.0798 -0.0210
   33loPI   C2A  520  16.135  15.348   9.252  0.0639 -0.0139 -0.1313
   33loPI   C3A  521  16.213  15.458   8.859  0.1718 -0.0923  0.0283
   33loPI   C4A  522  16.015  15.265   8.500  0.3610  0.0983  0.0153
   33loPI   C5A  523  15.880  15.358   8.099 -0.1489  0.3091  0.2199
   33loPI   C6A  524  16.131  15.391   7.741  0.1291 -0.3043 -0.0895
   33loPI   C1B  525  16.359  14.792   9.638 -0.2090  0.3228  0.1169
   33loPI   C2B  526  16.357  14.879   9.210  0.0982  0.1215  0.3456
   33loPI   C3B  527  16.078  14.966   8.928  0.2314 -0.1369 -0.1943
   33loPI   C4B  528  15.974  14.805   8.557 -0.2844 -0.0725  0.0463
   34loPI    C1  529   1.225  12.839  10.594 -0.0853 -0.0324 -0.0139
   34loPI    C2  530   1.166  13.083  10.905 -0.3049  0.0177 -0.0928
   34loPI    C3  531   1.070  12.696  10.933  0.1000 -0.0767  0.0530
   34loPI   PO4  532   1.261  13.042  10.431  0.2267 -0.1475  0.3855
   34loPI   GL1  533   0.979  13.004  10.051  0.0084 -0.1223  0.1497
   34loPI   GL2  534   0.994  13.354  10.054 -0.1204  0.2419 -0.3059
   34loPI   C1A  535   0.946  12.614   9.802 -0.1346 -0.1146 -0.3147
   34loPI   C2A  536   1.153  12.379   9.415  0.2335  0.3991 -0.2608
   34loPI   C3A  537   1.108  12.108   9.060  0.0368  0.1915 -0.1929
   34loPI   C4A  538   1.029  12.104   8.659 -0.6031  0.0235 -0.0653
   34loPI   C5A  539   1.219  11.809   8.481 -0.0548  0.1177 -0.1118
   34loPI   C6A  540   1.204  11.540   8.193  0.0388 -0.1111 -0.0913
   34loPI   C1B  541   0.690  13.315   9.691 -0.0248 -0.0459  0.1765
   34loPI   C2B  542   0.488  13.175   9.382  0.2476 -0.2298  0.0816
   34loPI   C3B  543   0.357  13.162   8.944  0.0140  0.3145 -0.0477
   34loPI   C4B  544   0.123  13.248   8.576 -0.1097 -0.1777  0.1999
   35loPI    C1  545   0.985   6.710  10.550 -0.1717 -0.0800 -0.0944
   35loPI    C2  546   0.838   6.468  10.832 -0.0120  0.2113  0.2472
   35loPI    C3  547   0.787   6.863  10.862  0.1700  0.2595 -0.0367
   35loPI   PO4  548   0.975   6.491  10.402 -0.2707  0.4164  0.0846
   35loPI   GL1  549   0.942   6.235  10.031  0.2010 -0.1549 -0.1354
   35loPI   GL2  550   0.721   6.350   9.990  0.1676 -0.2240 -0.1554
   35loPI   C1A  551   1.348   6.379   9.781  0.2116 -0.1923  0.0165
   35loPI   C2A  552   1.433   6.370   9.311  0.0736  0.0151  0.1156
   35loPI   C3A  553   1.658   6.155   9.097  0.0352  0.2048 -0.1327
   35loPI   C4A  554   1.654   6.136   8.714  0.2294 -0.2582 -0.1198
   35loPI   C5A  555   1.837   6.111   8.327 -0.0444  0.0916  0.0279
   35loPI   C6A  556   2.155   6.182   8.033 -0.0993 -0.4680  0.2343
   35loPI   C1B  557   0.919   6.414   9.532 -0.1578  0.1261  0.1614
   35loPI   C2B  558   0.960   6.542   9.113  0.0208  0.1238 -0.0393
   35loPI   C3B  559   1.194   6.566   8.630  0.0856 -0.0460 -0.1278
   35loPI   C4B  560   1.135   6.644   8.192 -0.0408 -0.0568 -0.0926
   36loPI    C1  561  14.079   8.232  10.702 -0.0152  0.0765  0.0745
   36loPI    C2  562  14.163   8.382  11.063  0.3004  0.2891 -0.0828
   36loPI    C3  563  13.844   8.514  10.861 -0.0338 -0.0233  0.2263
   36loPI   PO4  564  14.371   8.230  10.540 -0.0300  0.0343  0.0261
   36loPI   GL1  565  14.325   8.528  10.174  0.4254  0.1012  0.1746
   36loPI   GL2  566  14.190   8.826   9.988 -0.1564  0.0061  0.2100
   36loPI   C1A  567  14.378   8.277   9.818 -0.2169 -0.0654 -0.0543
   36loPI   C2A  568  14.322   8.316   9.363  0.1568  0.1587 -0.0577
   36loPI   C3A  569  14.122   8.302   9.089  0.0170  0.0211  0.0279
   36loPI   C4A  570  14.405   8.328   8.607 -0.2028  0.1288  0.0975
   36loPI   C5A  571  14.383   8.305   8.158 -0.0451 -0.1147  0.0927
   36loPI   C6A  572  14.089   8.183   7.840 -0.2818  0.1457 -0.0620
   36loPI   C1B  573  14.156   8.791   9.538 -0.2437  0.0759 -0.1708
   36loPI   C2B  574  14.158   8.853   9.064  0.1684  0.0175  0.3186
   36loPI   C3B  575  14.086   8.737   8.619  0.0019  0.0052 -0.0883
   36loPI   C4B  576  14.340   8.835   8.205 -0.2193 -0.1672 -0.3951
   37loPI    C1  577  11.662  11.145  10.752 -0.0920  0.0098  0.1109
   37loPI    C2  578  11.910  11.246  11.050 -0.0232 -0.0446  0.0722
   37loPI    C3  579  11.549  11.417  11.024  0.1060  0.2215 -0.0144
   37loPI   PO4  580  11.769  11.138  10.574  0.1624 -0.0474  0.2612
   37loPI   GL1  581  11.517  11.264  10.196  0.0999 -0.1457 -0.0088
   37loPI   GL2  582  11.407  11.053  10.170  0.2607 -0.2384 -0.0810
   37loPI   C1A  583  11.456  11.516   9.858 -0.2959 -0.1050 -0.3393
   37loPI   C2A  584  11.422  11.621   9.408  0.1322  0.0502  0.2463
   37loPI   C3A  585  11.308  11.648   8.945 -0.1341  0.0561 -0.0702
   37loPI   C4A  586  11.475  11.458   8.590  0.1414  0.0142  0.1937
   37loPI   C5A  587  11.805  11.193   8.365 -0.2937 -0.0084 -0.2358
   37loPI   C6A  588  11.851  11.009   8.725  0.0453  0.2183 -0.1837
   37loPI   C1B  589  11.534  11.010   9.674  0.4096 -0.0100 -0.1818
   37loPI   C2B  590  11.452  10.994   9.242 -0.1795 -0.0868  0.0879
   37loPI   C3B  591  11.343  11.023   8.848 -0.0958  0.2255 -0.0162
   37loPI   C4B  592  11.257  11.070   8.450  0.0468  0.0779  0.0363
   38loPI    C1  593   9.556  14.627  11.279 -0.0431 -0.0453 -0.1162
   38loPI    C2  594   9.873  14.384  11.262 -0.0197 -0.0094 -0.2013
   38loPI    C3  595   9.919  14.765  11.375 -0.0536 -0.0393 -0.0849
   38loPI   PO4  596   9.467  14.685  11.020  0.0180 -0.0876 -0.0622
   38loPI   GL1  597   9.437  14.661  10.574  0.1009  0.1920 -0.0147
   38loPI   GL2  598   9.200  14.841  10.293  0.2291 -0.3058 -0.2220
   38loPI   C1A  599   9.615  14.505  10.106 -0.1347 -0.2442 -0.0050
   38loPI   C2A  600   9.576  14.581   9.649 -0.1362  0.1745 -0.2229
   38loPI   C3A  601   9.594  14.552   9.273  0.0627  0.2122  0.0948
   38loPI   C4A  602   9.569  14.613   8.818  0.1777  0.0279  0.0671
   38loPI   C5A  603   9.865  14.795   8.514  0.0411 -0.1365  0.2365
   38loPI   C6A  604   9.906  14.816   8.022 -0.3609  0.0498  0.3250
   38loPI   C1B  605   9.354  15.000   9.894 -0.0498  0.1654 -0.2248
   38loPI   C2B  606   9.547  15.036   9.503  0.0919 -0.0476 -0.2664
   38loPI   C3B  607   9.492  15.011   9.113 -0.1644  0.1696  0.1220
   38loPI   C4B  608   9.843  15.044   9.039 -0.0126  0.1554 -0.2531
   39loPI    C1  609   8.030   8.455  10.015  0.0429 -0.1379 -0.0440
   39loPI    C2  610   8.224   8.332  10.342  0.2184 -0.1816 -0.1631
   39loPI    C3  611   7.824   8.319  10.330  0.2136 -0.2439  0.0230
   39loPI   PO4  612   8.099   8.756   9.982  0.2131  0.0294  0.1444
   39loPI   GL1  613   8.029   8.977   9.634  0.1098 -0.2451 -0.2238
   39loPI   GL2  614   7.761   8.660   9.553 -0.1471 -0.1704  0.2765
   39loPI   C1A  615   8.249   9.196   9.361 -0.0056  0.1697 -0.1748
   39loPI   C2A  616   8.335   9.153   8.993 -0.3079 -0.1050 -0.1357
   39loPI   C3A  617   8.321   9.206   8.612  0.0986 -0.0339  0.4613
   39loPI   C4A  618   8.495   9.401   8.252 -0.2050  0.1706  0.2129
   39loPI   C5A  619   8.851   9.356   7.926 -0.0845  0.0345  0.0819
   39loPI   C6A  620   8.837   9.096   7.484  0.2588  0.0514  0.0246
   39loPI   C1B  621   7.657   8.683   9.113  0.1104 -0.0471  0.0170
   39loPI   C2B  622   7.529   8.622   8.740  0.2256  0.1898 -0.3181
   39loPI   C3B  623   7.783   8.378   8.381 -0.1057 -0.1620  0.1953
   39loPI   C4B  624   8.074   8.362   7.925 -0.1060 -0.1910  0.0164
   40loPI    C1  625  13.436  14.999  10.883  0.1448 -0.1988  0.2678
   40loPI    C2  626  13.211  15.223  11.126  0.0093 -0.1004  0.0547
   40loPI    C3  627  13.431  14.924  11.276 -0.0467 -0.0207  0.3010
   40loPI   PO4  628  13.303  14.960  10.736  0.1936  0.2598  0.0052
   40loPI   GL1  629  13.320  15.077  10.284  0.2236 -0.0681 -0.0268
   40loPI   GL2  630  13.274  14.827  10.209  0.2550  0.0008  0.0177
   40loPI   C1A  631  13.412  15.322  10.006  0.1599 -0.0109 -0.1288
   40loPI   C2A  632  13.330  15.407   9.552 -0.0631 -0.0214 -0.1851
   40loPI   C3A  633  13.098  15.328   9.172 -0.0450 -0.1843 -0.0921
   40loPI   C4A  634  12.939  15.414   8.796 -0.0336 -0.2920  0.0723
   40loPI   C5A  635  13.060  15.445   8.345 -0.0389  0.0512 -0.3630
   40loPI   C6A  636  13.136  15.806   8.085  0.1746  0.0759 -0.0625
   40loPI   C1B  637  13.199  14.905   9.781 -0.2040  0.0122  0.0103
   40loPI   C2B  638  12.993  14.905   9.402  0.1770 -0.0269  0.0971
   40loPI   C3B  639  13.029  14.883   8.954  0.0213  0.1961 -0.1120
   40loPI   C4B  640  12.965  14.955   8.487  0.0637 -0.0305 -0.1930
   41loPI    C1  641   1.659   7.922  10.832  0.3051 -0.1906 -0.1104
   41loPI    C2  642   1.695   8.286  10.670 -0.2880 -0.0532  0.0413
   41loPI    C3  643   1.784   8.229  11.056 -0.2342 -0.0609  0.0279
   41loPI   PO4  644   1.860   7.735  10.736  0.2563 -0.1427  0.0247
   41loPI   GL1  645   1.745   7.656  10.272 -0.1082  0.0138  0.1874
   41loPI   GL2  646   1.649   7.976  10.295  0.1203 -0.0962 -0.2793
   41loPI   C1A  647   1.799   7.894   9.855 -0.3498  0.0085 -0.3029
   41loPI   C2A  648   1.731   7.979   9.523 -0.0255 -0.0986 -0.1095
   41loPI   C3A  649   1.922   7.956   9.241 -0.1461 -0.1545 -0.1487
   41loPI   C4A  650   2.191   7.944   8.957 -0.0880 -0.4354  0.2444
   41loPI   C5A  651   2.280   7.752   8.614  0.1317 -0.4777 -0.1889
   41loPI   C6A  652   2.608   7.770   8.304 -0.0116 -0.0596  0.0471
   41loPI   C1B  653   1.268   7.880  10.053  0.2609  0.0506  0.0520
   41loPI   C2B  654   1.258   7.849   9.625 -0.1159 -0.0178 -0.1201
   41loPI   C3B  655   0.956   7.863   9.409  0.0514 -0.1142  0.1239
   41loPI   C4B  656   0.696   7.912   9.081  0.0481 -0.1981  0.1383
   42loPI    C1  657   5.916   7.061  10.670  0.0589 -0.0795 -0.2673
   42loPI    C2  658   5.522   7.129  10.668  0.0924  0.1308 -0.1143
   42loPI    C3  659   5.662   6.762  10.746 -0.0688  0.0848 -0.0379
   42loPI   PO4  660   5.985   7.160  10.464 -0.2348  0.0594 -0.1805
   42loPI   GL1  661   6.054   7.123  10.071 -0.5001  0.0064 -0.1221
   42loPI   GL2  662   6.194   7.216   9.909 -0.1125 -0.3554 -0.0149
   42loPI   C1A  663   5.790   7.104   9.659  0.3124  0.4339  0.1857
   42loPI   C2A  664   5.691   6.921   9.281 -0.0500  0.2079 -0.1543
   42loPI   C3A  665   5.768   6.844   8.840  0.2417 -0.0378 -0.3266
   42loPI   C4A  666   5.748   6.551   8.566  0.1645  0.1939  0.0624
   42loPI   C5A  667   5.833   6.174   8.285  0.0474  0.3552  0.3211
   42loPI   C6A  668   5.869   5.802   8.206  0.2151 -0.0980 -0.0286
   42loPI   C1B  669   6.272   7.044   9.502  0.3431 -0.0122  0.0082
   42loPI   C2B  670   6.191   6.957   9.086 -0.0213  0.0787  0.0633
   42loPI   C3B  671   6.186   7.055   8.684 -0.1351  0.0305 -0.2937
   42loPI   C4B  672   6.250   7.072   8.236 -0.0229  0.0156  0.0910
   43loPI    C1  673   4.677   3.255  10.630  0.3445 -0.1598 -0.1097
   43loPI    C2  674   4.630   3.604  10.441  0.0299 -0.1873 -0.0865
   43loPI    C3  675   4.996   3.482  10.546  0.1455  0.1193 -0.1227
   43loPI   PO4  676   4.536   3.135  10.527 -0.0017 -0.1015 -0.1266
   43loPI   GL1  677   4.346   3.218  10.169 -0.1713  0.1384 -0.4319
   43loPI   GL2  678   4.130   3.107  10.002  0.1401  0.2881 -0.0936
   43loPI   C1A  679   4.514   3.088   9.696 -0.1133 -0.2037  0.0556
   43loPI   C2A  680   4.629   2.895   9.434 -0.1628  0.1548  0.0902
   43loPI   C3A  681   4.745   2.588   9.027 -0.1055 -0.1422 -0.2903
   43loPI   C4A  682   4.881   2.633   8.579  0.0777  0.1042  0.4785
   43loPI   C5A  683   5.059   2.500   8.161  0.1904  0.4190 -0.0770
   43loPI   C6A  684   5.231   2.617   7.798 -0.1370 -0.1890  0.0892
   43loPI   C1B  685   4.286   3.571   9.720  0.1101  0.0654  0.0454
   43loPI   C2B  686   4.359   3.677   9.292  0.1120  0.0701 -0.3203
   43loPI   C3B  687   4.629   3.538   9.068  0.1676 -0.1018  0.1915
   43loPI   C4B  688   4.930   3.639   8.874  0.2666  0.1559  0.2809
   44loPI    C1  689   6.384   5.856  10.393 -0.1095  0.2182  0.0214
   44loPI    C2  690   6.167   5.690  10.685  0.2161 -0.1965  0.0368
   44loPI    C3  691   6.542   5.810  10.758  0.1186  0.1898 -0.0787
   44loPI   PO4  692   6.383   5.730  10.250  0.2386 -0.0182  0.1574
   44loPI   GL1  693   6.159   5.930   9.890  0.2150 -0.0903 -0.1350
   44loPI   GL2  694   5.882   5.946   9.831  0.0391  0.2301  0.0216
   44loPI   C1A  695   6.368   6.071   9.545  0.2424 -0.1054  0.0087
   44loPI   C2A  696   6.293   6.013   9.103  0.0646 -0.1744  0.1309
   44loPI   C3A  697   6.310   5.689   8.810  0.3442  0.0806  0.4274
   44loPI   C4A  698   6.359   5.778   8.462  0.1210  0.3697  0.1627
   44loPI   C5A  699   6.311   5.982   8.117 -0.0000  0.3153  0.1964
   44loPI   C6A  700   6.784   5.888   7.815 -0.1832 -0.2466  0.2231
   44loPI   C1B  701   5.901   5.688   9.514  0.1577  0.3143  0.1882
   44loPI   C2B  702   5.901   5.646   9.191  0.2093 -0.1688 -0.0689
   44loPI   C3B  703   5.540   5.566   8.921  0.1312  0.5227  0.1629
   44loPI   C4B  704   5.181   5.465   8.698  0.0968 -0.2429  0.1333
   45loPI    C1  705  16.996   7.734  11.100  0.0877 -0.0769  0.2189
   45loPI    C2  706  16.627   7.728  11.255  0.0944 -0.1169  0.2337
   45loPI    C3  707  16.945   7.676  11.492  0.1241  0.1826  0.2638
   45loPI   PO4  708  16.988   8.044  10.887 -0.0523  0.0426 -0.1971
   45loPI   GL1  709  17.211   8.004  10.517 -0.1689  0.1315  0.0509
   45loPI   GL2  710  17.542   8.035  10.580  0.0627 -0.3082  0.4540
   45loPI   C1A  711  17.008   8.283  10.158 -0.2674  0.5425  0.2942
   45loPI   C2A  712  16.916   8.341   9.681 -0.0314  0.0200 -0.2183
   45loPI   C3A  713  16.997   8.320   9.238  0.0038  0.2136  0.2753
   45loPI   C4A  714  17.181   8.552   8.911 -0.0046  0.0266  0.2718
   45loPI   C5A  715  17.184   8.612   8.437  0.0521 -0.0302 -0.0343
   45loPI   C6A  716  16.943   8.716   8.020 -0.0527  0.1444 -0.2598
   45loPI   C1B  717  17.568   8.267  10.233  0.2085 -0.1172  0.2338
   45loPI   C2B  718  17.529   8.380   9.867 -0.2202  0.1928  0.0354
   45loPI   C3B  719  17.596   8.340   9.394 -0.2312 -0.0014 -0.1305
   45loPI   C4B  720  17.642   8.547   9.028  0.2305  0.0502  0.2043
   46loPI    C1  721   6.664  12.007  10.484 -0.1151 -0.0180 -0.0730
   46loPI    C2  722   7.023  11.862  10.588 -0.0905  0.1138  0.0284
   46loPI    C3  723   6.717  11.612  10.524 -0.0164  0.0097  0.0781
   46loPI   PO4  724   6.654  12.158  10.292  0.2277 -0.2453 -0.2913
   46loPI   GL1  725   6.831  12.491  10.020 -0.1600 -0.3023 -0.2496
   46loPI   GL2  726   7.193  12.703  10.124  0.1806 -0.0836 -0.1794
   46loPI   C1A  727   6.879  12.260   9.597  0.2232 -0.2834  0.1429
   46loPI   C2A  728   6.948  12.151   9.067  0.0437 -0.1220 -0.3190
   46loPI   C3A  729   6.930  12.370   8.598 -0.0514  0.2116 -0.3321
   46loPI   C4A  730   7.071  12.205   8.214 -0.0738  0.0887 -0.3146
   46loPI   C5A  731   7.034  12.268   7.774  0.2067 -0.1803  0.0020
   46loPI   C6A  732   6.827  12.298   7.439 -0.0795 -0.2923  0.1463
   46loPI   C1B  733   7.340  12.553   9.724 -0.1991 -0.0318 -0.0858
   46loPI   C2B  734   7.169  12.659   9.352 -0.1413 -0.2610  0.2061
   46loPI   C3B  735   7.204  12.626   8.962 -0.0248  0.0232  0.0313
   46loPI   C4B  736   7.400  12.541   8.626  0.0419 -0.0743 -0.2976
   47loPI    C1  737  12.482  16.965  10.583 -0.0803 -0.1260 -0.1222
   47loPI    C2  738  12.461  17.002  10.981 -0.2159 -0.0988 -0.1315
   47loPI    C3  739  12.449  17.328  10.749 -0.1520 -0.1157 -0.1587
   47loPI   PO4  740  12.338  16.753  10.539 -0.0149  0.0366  0.5390
   47loPI   GL1  741  12.270  16.822  10.073  0.3784  0.1525 -0.0099
   47loPI   GL2  742  12.598  17.046  10.070 -0.1545 -0.1298  0.3225
   47loPI   C1A  743  12.281  16.519   9.846  0.4032 -0.2418  0.1159
   47loPI   C2A  744  12.291  16.082   9.769  0.0335 -0.1140 -0.1988
   47loPI   C3A  745  12.346  15.703   9.593  0.0485 -0.0642  0.1106
   47loPI   C4A  746  12.390  15.593   9.144  0.2423  0.2609  0.1386
   47loPI   C5A  747  12.421  15.389   8.641 -0.1094  0.0537 -0.1176
   47loPI   C6A  748  12.553  15.204   8.132 -0.0813 -0.0786  0.1060
   47loPI   C1B  749  12.538  17.102   9.502  0.1734  0.1404  0.1201
   47loPI   C2B  750  12.499  17.048   9.008  0.0689 -0.1409 -0.2218
   47loPI   C3B  751  12.684  16.808   8.691  0.3739 -0.2589 -0.1278
   47loPI   C4B  752  12.677  16.371   8.464 -0.1108  0.2216 -0.5349
   48loPI    C1  753   4.451   2.066  10.909 -0.0368  0.3367 -0.1567
   48loPI    C2  754   4.815   2.025  11.069 -0.0848 -0.1792 -0.1649
   48loPI    C3  755   4.500   2.089  11.306  0.0006  0.2328 -0.1550
   48loPI   PO4  756   4.474   2.214  10.703  0.0581 -0.0560  0.2082
   48loPI   GL1  757   4.522   2.255  10.311 -0.1068 -0.4739  0.2407
   48loPI   GL2  758   4.100   2.170  10.242 -0.3642  0.2210 -0.0463
   48loPI   C1A  759   4.791   1.941  10.101 -0.0744 -0.0707 -0.1453
   48loPI   C2A  760   4.725   1.703   9.766  0.1465  0.4211 -0.0957
   48loPI   C3A  761   4.477   1.630   9.417 -0.0870 -0.0235 -0.0875
   48loPI   C4A  762   4.391   1.606   8.923  0.0778  0.0446  0.1651
   48loPI   C5A  763   4.379   1.426   8.509  0.1650  0.0453  0.0367
   48loPI   C6A  764   4.303   1.442   8.124  0.1236 -0.0287  0.0817
   48loPI   C1B  765   4.107   2.550   9.893 -0.4397 -0.2734  0.0336
   48loPI   C2B  766   4.196   2.692   9.554  0.0349 -0.1252  0.1280
   48loPI   C3B  767   4.259   2.657   9.224  0.1292  0.3816  0.0529
   48loPI   C4B  768   4.265   2.346   8.948 -0.0862  0.3367  0.1636
   49loPI    C1  769  16.558   7.281  10.926 -0.1412  0.1804 -0.0468
   49loPI    C2  770  16.400   7.227  11.289 -0.1072 -0.0148 -0.0602
   49loPI    C3  771  16.797   7.248  11.246 -0.1201  0.2918 -0.0506
   49loPI   PO4  772  16.415   7.415  10.771 -0.1503 -0.1236  0.0478
   49loPI   GL1  773  16.341   7.363  10.387 -0.1587 -0.0741 -0.3654
   49loPI   GL2  774  16.621   7.271  10.307  0.1929 -0.2973 -0.4348
   49loPI   C1A  775  16.421   7.683   9.905 -0.0266  0.1264 -0.0266
   49loPI   C2A  776  16.284   7.815   9.509  0.0554  0.1669  0.3092
   49loPI   C3A  777  16.189   7.900   9.081 -0.0783  0.0219 -0.1655
   49loPI   C4A  778  16.044   8.073   8.844 -0.0144  0.0669  0.1846
   49loPI   C5A  779  16.024   7.926   8.382 -0.1719 -0.1616  0.1453
   49loPI   C6A  780  15.996   7.906   8.006 -0.0889  0.2753 -0.0283
   49loPI   C1B  781  16.589   7.171   9.907 -0.0057  0.0632  0.1696
   49loPI   C2B  782  16.535   7.237   9.553 -0.0428  0.2706 -0.3597
   49loPI   C3B  783  16.746   7.233   9.227  0.2942  0.0102 -0.2726
   49loPI   C4B  784  16.880   7.157   8.836 -0.2304 -0.1388 -0.0136
   50loPI    C1  785  13.205   4.845  10.945 -0.0571  0.0653 -0.1471
   50loPI    C2  786  13.402   4.894  11.290  0.1542  0.0080 -0.2584
   50loPI    C3  787  13.195   4.559  11.224 -0.0248  0.0903 -0.1203
   50loPI   PO4  788  13.334   5.102  10.849 -0.0894 -0.0694  0.0498
   50loPI   GL1  789  13.206   5.031  10.419  0.3749  0.4097  0.1816
   50loPI   GL2  790  13.378   5.254  10.215 -0.1164 -0.0936  0.1252
   50loPI   C1A  791  13.110   4.805  10.016  0.0043  0.1210 -0.3740
   50loPI   C2A  792  13.283   4.770   9.517 -0.2818 -0.0092 -0.0562
   50loPI   C3A  793  13.426   4.628   9.063 -0.3384  0.0885 -0.3047
   50loPI   C4A  794  13.672   4.743   8.712 -0.0640 -0.2091 -0.1124
   50loPI   C5A  795  13.736   4.812   8.342 -0.0426 -0.5211 -0.0820
   50loPI   C6A  796  13.619   4.649   7.889 -0.2605 -0.2041 -0.0392
   50loPI   C1B  797  13.315   5.170   9.816 -0.1377  0.0045  0.3278
   50loPI   C2B  798  13.384   5.300   9.475 -0.2578 -0.1527  0.1060
   50loPI   C3B  799  13.243   5.136   9.107  0.2102 -0.0799 -0.0229
   50loPI   C4B  800  13.219   5.004   8.688  0.1271 -0.2765  0.2921
   51loPI    C1  801   8.216   7.506  10.193 -0.0779  0.2040  0.1096
   51loPI    C2  802   8.425   7.410  10.521 -0.3425  0.2286  0.2881
   51loPI    C3  803   8.081   7.222  10.441 -0.1225 -0.0037 -0.1477
   51loPI   PO4  804   8.244   7.764  10.208  0.0568  0.2642 -0.1700
   51loPI   GL1  805   8.360   8.047   9.872 -0.2076  0.1098  0.0074
   51loPI   GL2  806   8.643   8.063   9.804  0.0950 -0.0082 -0.0743
   51loPI   C1A  807   8.257   7.979   9.473  0.1811  0.2835 -0.2409
   51loPI   C2A  808   8.371   8.054   9.070  0.1872 -0.2073 -0.2555
   51loPI   C3A  809   8.493   8.186   8.695  0.1954 -0.1151  0.2168
   51loPI   C4A  810   8.246   8.103   8.331 -0.1299  0.3359  0.2200
   51loPI   C5A  811   7.966   7.867   8.224 -0.1159  0.3197 -0.1630
   51loPI   C6A  812   7.628   7.528   8.166  0.2549  0.1733  0.1122
   51loPI   C1B  813   8.741   8.309   9.417  0.0363  0.2570 -0.0568
   51loPI   C2B  814   8.938   8.451   8.925  0.1211 -0.2197 -0.3247
   51loPI   C3B  815   9.112   8.653   8.491  0.1885  0.0970 -0.1591
   51loPI   C4B  816   9.091   8.412   8.017  0.2477  0.1554  0.0111
   52loPI    C1  817   0.792  10.205  11.175  0.0450 -0.0652  0.0311
   52loPI    C2  818   0.876   9.898  11.418  0.0864 -0.0332  0.0577
   52loPI    C3  819   0.967  10.271  11.529  0.0815 -0.0158  0.0039
   52loPI   PO4  820   0.580   9.975  11.004  0.0773  0.0529  0.2448
   52loPI   GL1  821   0.481   9.840  10.592 -0.0392  0.0140  0.1820
   52loPI   GL2  822   0.271  10.103  10.573  0.1034  0.0140  0.0502
   52loPI   C1A  823   0.423   9.745  10.059  0.0285  0.1486 -0.1095
   52loPI   C2A  824   0.416   9.728   9.577 -0.2354 -0.0714  0.0133
   52loPI   C3A  825   0.282   9.686   9.114  0.1352  0.0008 -0.2739
   52loPI   C4A  826   0.130   9.888   8.761 -0.1477 -0.0415 -0.2651
   52loPI   C5A  827   0.133  10.186   8.587  0.1374  0.0763 -0.2125
   52loPI   C6A  828   0.237  10.327   8.213 -0.2059 -0.2339  0.1172
   52loPI   C1B  829   0.109  10.340  10.201  0.1827  0.0250 -0.0078
   52loPI   C2B  830   0.110  10.121   9.797 -0.0021 -0.0685 -0.0584
   52loPI   C3B  831   0.051  10.015   9.402 -0.0312 -0.0227 -0.1571
   52loPI   C4B  832  -0.082  10.196   9.103  0.0104 -0.2290 -0.3641
   53loPI    C1  833  15.862   5.073  11.105  0.0908 -0.0471  0.1788
   53loPI    C2  834  15.807   5.347  10.818 -0.3348 -0.1490  0.1563
   53loPI    C3  835  15.862   5.463  11.197 -0.0033 -0.0217  0.0733
   53loPI   PO4  836  16.002   4.868  10.942 -0.4459 -0.0267  0.1862
   53loPI   GL1  837  16.017   4.912  10.458 -0.0966  0.1383 -0.0853
   53loPI   GL2  838  16.019   4.576  10.467 -0.2590  0.0612  0.0074
   53loPI   C1A  839  15.860   4.889  10.114 -0.0092  0.0217  0.1228
   53loPI   C2A  840  15.803   4.745   9.652 -0.0646  0.3423  0.0375
   53loPI   C3A  841  15.678   4.708   9.288  0.0760  0.0038 -0.2344
   53loPI   C4A  842  15.636   4.747   8.772 -0.2283 -0.5577  0.0825
   53loPI   C5A  843  15.797   4.580   8.336 -0.1572 -0.3554 -0.4232
   53loPI   C6A  844  16.022   4.302   8.036  0.3162  0.1088  0.2508
   53loPI   C1B  845  16.346   4.661  10.131 -0.2940  0.0476 -0.0529
   53loPI   C2B  846  16.289   4.690   9.772 -0.0058  0.0034  0.1701
   53loPI   C3B  847  16.370   4.852   9.443 -0.0356  0.4684  0.0125
   53loPI   C4B  848  16.356   4.964   9.041  0.2929 -0.0287  0.0314
   54loPI    C1  849  16.055  12.870  11.237 -0.1232 -0.0041  0.2614
   54loPI    C2  850  15.806  12.568  11.322  0.0724 -0.2751 -0.1005
   54loPI    C3  851  16.116  12.645  11.563  0.1587 -0.5183 -0.1314
   54loPI   PO4  852  16.105  12.773  11.011  0.2310  0.0155 -0.2156
   54loPI   GL1  853  16.207  13.016  10.551 -0.0379  0.0350  0.0761
   54loPI   GL2  854  16.506  12.888  10.411  0.1876  0.2383  0.0967
   54loPI   C1A  855  15.880  12.986  10.352  0.1733 -0.2461 -0.1592
   54loPI   C2A  856  15.717  12.808   9.975  0.0189  0.2546 -0.0436
   54loPI   C3A  857  15.733  12.835   9.490  0.1522  0.0067 -0.1976
   54loPI   C4A  858  15.800  12.869   9.058 -0.0907  0.0874  0.1312
   54loPI   C5A  859  16.005  12.838   8.745  0.1261 -0.0263  0.0933
   54loPI   C6A  860  15.996  12.464   8.539  0.0129 -0.4177 -0.2860
   54loPI   C1B  861  16.689  13.031   9.991  0.0550 -0.4298 -0.1122
   54loPI   C2B  862  16.616  13.154   9.568  0.1449  0.0156  0.1059
   54loPI   C3B  863  16.627  13.068   9.186  0.0744 -0.0081  0.1006
   54loPI   C4B  864  16.510  12.992   8.797 -0.0070  0.0596  0.0382
   55loPI    C1  865   1.606  11.204  10.976 -0.3094  0.2038  0.1026
   55loPI    C2  866   1.706  11.199  11.364  0.1585 -0.0092 -0.0125
   55loPI    C3  867   1.968  11.329  11.092 -0.0795 -0.0832 -0.2825
   55loPI   PO4  868   1.310  11.043  10.978  0.0361 -0.1003 -0.0315
   55loPI   GL1  869   1.172  11.033  10.515 -0.0302  0.0764 -0.1626
   55loPI   GL2  870   1.041  10.801  10.391 -0.0275 -0.0594  0.2737
   55loPI   C1A  871   1.088  11.224  10.115 -0.3743  0.0576 -0.3890
   55loPI   C2A  872   1.098  11.319   9.753  0.2617 -0.0717 -0.0707
   55loPI   C3A  873   0.982  11.196   9.406  0.1908  0.0496 -0.0268
   55loPI   C4A  874   0.727  11.094   9.028 -0.1506  0.2451 -0.0368
   55loPI   C5A  875   0.493  10.983   8.657  0.2946 -0.0805 -0.0518
   55loPI   C6A  876   0.691  10.820   8.268 -0.2036 -0.0723 -0.4584
   55loPI   C1B  877   0.900  10.827   9.861  0.1662  0.1468 -0.0067
   55loPI   C2B  878   0.944  10.689   9.357  0.3546  0.0090  0.1894
   55loPI   C3B  879   0.678  10.603   8.960  0.2345 -0.1182 -0.1809
   55loPI   C4B  880   0.585  10.437   8.570  0.0213 -0.1151 -0.0846
   56loPI    C1  881   0.958   8.325  11.421 -0.0563 -0.1040  0.0543
   56loPI    C2  882   0.862   8.678  11.584 -0.1046 -0.0074 -0.1793
   56loPI    C3  883   0.860   8.346  11.808 -0.1784  0.1212  0.0127
   56loPI   PO4  884   1.085   8.434  11.242 -0.0021 -0.2423  0.1389
   56loPI   GL1  885   1.134   8.359  10.845  0.1980  0.2383  0.2938
   56loPI   GL2  886   0.835   8.536  10.838  0.0322  0.0093  0.0173
   56loPI   C1A  887   1.163   7.934  10.579  0.1525 -0.0303 -0.4066
   56loPI   C2A  888   0.947   7.746  10.423 -0.1089 -0.0073  0.1038
   56loPI   C3A  889   0.712   7.454  10.273  0.2871  0.1881  0.3108
   56loPI   C4A  890   0.586   7.302   9.838 -0.1511  0.3575 -0.0151
   56loPI   C5A  891   0.539   7.446   9.481 -0.0265  0.1815 -0.2583
   56loPI   C6A  892   0.528   7.359   9.144  0.0327 -0.0508  0.0728
   56loPI   C1B  893   0.755   8.751  10.497  0.2656 -0.0470 -0.0194
   56loPI   C2B  894   0.875   8.963  10.184 -0.0804  0.4881  0.0917
   56loPI   C3B  895   0.988   9.065   9.775  0.0190  0.0099 -0.0225
   56loPI   C4B  896   1.120   9.181   9.325  0.1834  0.0106  0.1235
   57loPI    C1  897  13.059   9.020  10.542  0.1636 -0.2387  0.0589
   57loPI    C2  898  12.940   9.006  10.924  0.1578 -0.1539  0.0603
   57loPI    C3  899  12.688   8.901  10.632  0.1365 -0.1429  0.0747
   57loPI   PO4  900  13.271   8.982  10.549  0.4291 -0.0621  0.0134
   57loPI   GL1  901  13.469   8.973  10.159  0.0834  0.1070  0.3174
   57loPI   GL2  902  13.671   8.872  10.031  0.0399 -0.2022  0.1310
   57loPI   C1A  903  13.268   9.205   9.738 -0.2938  0.0466  0.0101
   57loPI   C2A  904  13.320   9.411   9.232  0.2106  0.0587 -0.1407
   57loPI   C3A  905  13.348   9.519   8.839 -0.1733 -0.0817  0.4212
   57loPI   C4A  906  13.302   9.495   8.503  0.0818 -0.0414 -0.2044
   57loPI   C5A  907  13.132   9.297   8.192 -0.0210 -0.2077 -0.1579
   57loPI   C6A  908  12.897   9.216   7.863  0.1821  0.0143  0.3783
   57loPI   C1B  909  13.662   8.664   9.703  0.0247  0.1842 -0.1680
   57loPI   C2B  910  13.802   8.621   9.295  0.0442  0.4618 -0.2623
   57loPI   C3B  911  13.760   8.566   8.929 -0.0311  0.0851  0.0601
   57loPI   C4B  912  13.469   8.358   8.588 -0.1197  0.1959  0.1564
   58loPI    C1  913   5.162   1.324  10.627 -0.2106 -0.3706 -0.2283
   58loPI    C2  914   5.076   1.572  10.325 -0.0445 -0.1181 -0.0721
   58loPI    C3  915   5.457   1.511  10.432 -0.1080 -0.1085  0.1656
   58loPI   PO4  916   4.827   1.299  10.686  0.1880  0.1279 -0.3312
   58loPI   GL1  917   4.480   1.305  10.459  0.3909  0.1113  0.0022
   58loPI   GL2  918   4.511   1.101  10.255 -0.2318 -0.0976  0.2706
   58loPI   C1A  919   4.414   1.731  10.224 -0.1676  0.1815 -0.2740
   58loPI   C2A  920   4.337   1.964   9.839 -0.2409 -0.0482 -0.0953
   58loPI   C3A  921   4.195   2.081   9.476  0.0069 -0.2733 -0.0307
   58loPI   C4A  922   3.992   1.963   9.145 -0.0742 -0.1055 -0.3881
   58loPI   C5A  923   3.982   1.779   8.719 -0.3455  0.0585 -0.1515
   58loPI   C6A  924   3.899   1.614   8.391 -0.1942  0.1347 -0.1658
   58loPI   C1B  925   4.534   1.174   9.712 -0.0601  0.0960 -0.1562
   58loPI   C2B  926   4.390   1.186   9.292 -0.0414 -0.0159  0.0346
   58loPI   C3B  927   4.488   1.027   8.868  0.0044 -0.1547 -0.1190
   58loPI   C4B  928   4.748   1.097   8.622  0.0196  0.1923  0.1995
   59loPI    C1  929  14.664   7.813  11.044  0.0463  0.0961 -0.0819
   59loPI    C2  930  14.281   7.915  10.991  0.0683  0.1429 -0.1521
   59loPI    C3  931  14.474   8.029  11.322 -0.0610 -0.1250  0.0186
   59loPI   PO4  932  14.683   7.834  10.705  0.1270  0.0343  0.2080
   59loPI   GL1  933  14.541   7.606  10.295 -0.1800 -0.2188 -0.0883
   59loPI   GL2  934  14.446   7.844  10.135 -0.0503 -0.1883  0.0441
   59loPI   C1A  935  14.833   7.515  10.014 -0.2532  0.2551  0.0592
   59loPI   C2A  936  14.656   7.566   9.579 -0.0213  0.0623  0.2636
   59loPI   C3A  937  14.396   7.361   9.176 -0.1587 -0.0340  0.1197
   59loPI   C4A  938  14.347   7.408   8.803 -0.3395 -0.0536 -0.1003
   59loPI   C5A  939  14.267   7.365   8.408  0.4279 -0.0587  0.1998
   59loPI   C6A  940  14.104   7.183   8.179  0.1763  0.4642 -0.1106
   59loPI   C1B  941  14.210   7.862   9.631 -0.2838 -0.0351 -0.0434
   59loPI   C2B  942  14.303   7.855   9.218 -0.2518 -0.1130  0.0203
   59loPI   C3B  943  14.279   7.894   8.867  0.0342  0.1969 -0.2260
   59loPI   C4B  944  14.451   7.853   8.527 -0.0728 -0.2312  0.1956
   60loPI    C1  945  13.964   0.044  10.413  0.0861  0.3215 -0.0495
   60loPI    C2  946  14.174   0.070  10.752 -0.0099 -0.1125  0.0482
   60loPI    C3  947  13.895   0.343  10.669  0.1334  0.0940  0.2341
   60loPI   PO4  948  14.100   0.047  10.256 -0.3178  0.3024  0.1127
   60loPI   GL1  949  14.324   0.205   9.920  0.0283  0.0231 -0.1736
   60loPI   GL2  950  14.636   0.045  10.001 -0.0456  0.2293  0.0312
   60loPI   C1A  951  14.202  -0.165   9.691 -0.2529 -0.0433 -0.2535
   60loPI   C2A  952  14.159  -0.379   9.382  0.1100 -0.0938  0.0498
   60loPI   C3A  953  14.149  -0.601   9.010 -0.1810  0.3901  0.0904
   60loPI   C4A  954  14.142  -0.853   8.750  0.4118 -0.1883 -0.1030
   60loPI   C5A  955  14.313  -0.934   8.306 -0.0803  0.2809 -0.2194
   60loPI   C6A  956  14.471  -1.075   7.954  0.0469 -0.2487 -0.0574
   60loPI   C1B  957  14.611   0.066   9.517 -0.3932 -0.1508  0.0758
   60loPI   C2B  958  14.543  -0.106   9.179 -0.1139  0.1545 -0.3147
   60loPI   C3B  959  14.753  -0.350   8.936  0.0700 -0.3860 -0.1249
   60loPI   C4B  960  15.031  -0.465   8.555 -0.0369  0.0170  0.1341
   61loPI    C1  961  17.290  12.152  10.926  0.1640  0.3007  0.0980
   61loPI    C2  962  17.379  11.768  10.998  0.2156  0.2668 -0.1366
   61loPI    C3  963  17.636  12.056  11.104  0.3135  0.2147 -0.2307
   61loPI   PO4  964  17.161  12.122  10.758 -0.0606  0.1818 -0.0579
   61loPI   GL1  965  16.959  12.080  10.380 -0.0640 -0.2165  0.1392
   61loPI   GL2  966  17.242  12.267  10.237 -0.3110  0.1607 -0.1228
   61loPI   C1A  967  16.785  12.030   9.986 -0.0219  0.4031 -0.1333
   61loPI   C2A  968  16.888  11.884   9.512  0.1261  0.1195  0.0261
   61loPI   C3A  969  16.802  11.992   9.153  0.0650  0.0212 -0.2798
   61loPI   C4A  970  16.921  12.189   8.780  0.2389 -0.1466 -0.0568
   61loPI   C5A  971  16.738  12.177   8.357 -0.1500 -0.1094  0.0357
   61loPI   C6A  972  16.596  12.461   8.059 -0.1989 -0.1605 -0.2306
   61loPI   C1B  973  17.289  12.019   9.907  0.0789  0.0251  0.1819
   61loPI   C2B  974  17.391  11.818   9.535 -0.3948 -0.2412 -0.0851
   61loPI   C3B  975  17.237  11.842   9.090  0.0682  0.0347 -0.6552
   61loPI   C4B  976  17.384  11.958   8.689 -0.2041  0.1056 -0.1432
   62loPI    C1  977   9.877   3.592  10.676 -0.1349  0.1876 -0.0215
   62loPI    C2  978   9.851   3.245  10.874  0.0905  0.2186  0.0649
   62loPI    C3  979   9.902   3.587  11.075  0.2215  0.2617 -0.0400
   62loPI   PO4  980   9.735   3.653  10.555 -0.2359  0.1352 -0.1952
   62loPI   GL1  981   9.816   3.691  10.131 -0.0757  0.2632 -0.0813
   62loPI   GL2  982   9.781   3.419  10.049  0.2218  0.1866 -0.0378
   62loPI   C1A  983  10.035   3.823   9.795  0.1268 -0.1294  0.0550
   62loPI   C2A  984   9.918   3.788   9.406 -0.1324 -0.0254  0.2223
   62loPI   C3A  985  10.003   3.767   8.983  0.0423 -0.2305 -0.2121
   62loPI   C4A  986   9.947   3.873   8.580  0.0038 -0.0132 -0.0061
   62loPI   C5A  987   9.852   3.692   8.222  0.0445 -0.0609  0.0847
   62loPI   C6A  988  10.159   3.592   7.932  0.1724 -0.0182  0.2371
   62loPI   C1B  989   9.869   3.176   9.680  0.0400  0.2056 -0.0819
   62loPI   C2B  990   9.989   2.916   9.299  0.1976 -0.2510  0.1572
   62loPI   C3B  991  10.029   3.059   8.892  0.1165 -0.0305 -0.0377
   62loPI   C4B  992   9.744   3.005   8.456 -0.1717 -0.0920  0.0472
   63loPI    C1  993  15.280   2.446  10.515  0.0593  0.1053  0.2862
   63loPI    C2  994  14.994   2.477  10.793  0.0811  0.0892  0.3104
   63loPI    C3  995  14.975   2.698  10.460 -0.1350 -0.1529  0.1590
   63loPI   PO4  996  15.340   2.236  10.459 -0.1972 -0.0304 -0.0582
   63loPI   GL1  997  15.290   1.987  10.042 -0.0076  0.0342  0.0351
   63loPI   GL2  998  15.381   1.777   9.883 -0.3253  0.2119  0.0240
   63loPI   C1A  999  15.111   2.177   9.740  0.1492  0.0756  0.0783
   63loPI   C2A 1000  15.140   2.185   9.247 -0.3082  0.0212 -0.0981
   63loPI   C3A 1001  15.365   2.147   8.921 -0.0779 -0.0830 -0.2088
   63loPI   C4A 1002  15.669   2.037   8.496  0.4498  0.0062 -0.1056
   63loPI   C5A 1003  15.887   2.216   8.187 -0.0533  0.1313  0.2118
   63loPI   C6A 1004  16.133   2.242   7.860 -0.0971 -0.1107 -0.0075
   63loPI   C1B 1005  15.478   1.812   9.397  0.3601 -0.0236 -0.0199
   63loPI   C2B 1006  15.745   2.004   9.181  0.1015  0.2717 -0.0385
   63loPI   C3B 1007  15.911   2.144   8.935  0.0939  0.1302  0.0592
   63loPI   C4B 1008  15.959   2.340   8.677 -0.2643 -0.0452 -0.2016
   64loPI    C1 1009   4.957  10.693  10.290 -0.0044 -0.1567  0.0617
   64loPI    C2 1010   5.189  10.926  10.062  0.0878 -0.1331  0.1789
   64loPI    C3 1011   5.309  10.556  10.156  0.0589 -0.1358  0.2052
   64loPI   PO4 1012   4.768  10.705  10.207  0.0177 -0.0247 -0.2938
   64loPI   GL1 1013   4.527  10.693   9.884  0.3781  0.2002 -0.0462
   64loPI   GL2 1014   4.492  11.050   9.909  0.0628 -0.0118  0.0255
   64loPI   C1A 1015   4.357  10.536   9.509  0.2339  0.1428  0.0918
   64loPI   C2A 1016   4.167  10.303   9.169  0.1417 -0.3741 -0.2767
   64loPI   C3A 1017   4.025  10.263   8.881 -0.0469  0.0938  0.3010
   64loPI   C4A 1018   3.937  10.357   8.400  0.1471  0.0139  0.3502
   64loPI   C5A 1019   4.268  10.314   7.980  0.0811 -0.0974 -0.0614
   64loPI   C6A 1020   4.626  10.502   8.030 -0.1418  0.0905 -0.2703
   64loPI   C1B 1021   4.485  11.062   9.409  0.3342  0.1247  0.2310
   64loPI   C2B 1022   4.406  11.138   8.990 -0.0613  0.1114  0.1089
   64loPI   C3B 1023   4.277  11.123   8.559 -0.0256 -0.1805 -0.3201
   64loPI   C4B 1024   4.224  10.849   8.136  0.0685 -0.2381  0.0053
   65loPI    C1 1025  16.881   3.218  10.704 -0.0290  0.0476 -0.0175
   65loPI    C2 1026  16.817   2.996  11.030  0.2442 -0.1422 -0.0895
   65loPI    C3 1027  17.040   3.326  11.055  0.1749 -0.0969 -0.0637
   65loPI   PO4 1028  16.903   2.935  10.519 -0.1815  0.3443  0.1138
   65loPI   GL1 1029  16.944   3.046  10.090 -0.0434  0.0538  0.0322
   65loPI   GL2 1030  16.842   2.724   9.950 -0.0271 -0.0935 -0.2976
   65loPI   C1A 1031  16.762   3.219   9.739  0.3047 -0.0706 -0.2245
   65loPI   C2A 1032  16.673   3.227   9.345  0.1575  0.2406 -0.2517
   65loPI   C3A 1033  16.536   3.141   8.957  0.0371 -0.1826 -0.2004
   65loPI   C4A 1034  16.351   3.161   8.574  0.4935  0.1910  0.2786
   65loPI   C5A 1035  16.126   3.543   8.436  0.2271  0.2307 -0.2073
   65loPI   C6A 1036  16.297   3.872   8.261 -0.0041 -0.0899 -0.0403
   65loPI   C1B 1037  16.796   2.767   9.446 -0.0753  0.2599  0.0646
   65loPI   C2B 1038  16.926   2.776   8.928  0.1540 -0.1546  0.3263
   65loPI   C3B 1039  16.723   2.809   8.601 -0.0093  0.1378  0.2123
   65loPI   C4B 1040  17.028   2.931   8.176 -0.0955 -0.1725 -0.0923
   66loPI    C1 1041  14.199   2.213  10.553 -0.0101  0.0510  0.0663
   66loPI    C2 1042  14.486   2.488  10.503  0.0049  0.0335  0.0557
   66loPI    C3 1043  14.259   2.493  10.833  0.0121  0.0521  0.0604
   66loPI   PO4 1044  14.055   2.165  10.364  0.2344  0.0950  0.0863
   66loPI   GL1 1045  13.968   2.440   9.987 -0.4215 -0.1159  0.6405
   66loPI   GL2 1046  14.308   2.643  10.057 -0.3185  0.0679 -0.1490
   66loPI   C1A 1047  14.134   2.476   9.553 -0.2254 -0.2115 -0.1073
   66loPI   C2A 1048  14.222   2.614   9.231  0.0259  0.2315  0.0307
   66loPI   C3A 1049  14.266   2.372   8.809  0.2108 -0.0944 -0.1264
   66loPI   C4A 1050  14.538   2.215   8.405  0.0206  0.0655 -0.3281
   66loPI   C5A 1051  14.736   1.930   8.217 -0.2307 -0.1124 -0.1004
   66loPI   C6A 1052  14.847   1.592   7.951 -0.1351  0.1040  0.0046
   66loPI   C1B 1053  14.576   2.661   9.680  0.2301  0.2708 -0.1563
   66loPI   C2B 1054  14.737   2.531   9.365  0.3382  0.0542  0.4138
   66loPI   C3B 1055  14.840   2.225   8.884 -0.0193  0.0078 -0.2074
   66loPI   C4B 1056  15.037   2.035   8.581  0.2512 -0.1070 -0.0314
   67loPI    C1 1057   5.138   1.023  11.102 -0.0713  0.3129 -0.0819
   67loPI    C2 1058   4.745   1.060  11.164 -0.0990 -0.2636  0.1528
   67loPI    C3 1059   4.996   1.050  11.475  0.1036  0.0689  0.0054
   67loPI   PO4 1060   5.134   0.784  10.821  0.0200  0.0257  0.1228
   67loPI   GL1 1061   5.108   0.822  10.426  0.1585  0.0005 -0.1852
   67loPI   GL2 1062   4.988   1.016  10.257 -0.1816  0.0776 -0.2886
   67loPI   C1A 1063   5.212   0.584  10.137  0.1951  0.0974 -0.1978
   67loPI   C2A 1064   5.269   0.514   9.719 -0.0993 -0.1695 -0.1971
   67loPI   C3A 1065   5.228   0.396   9.295  0.1936 -0.0988 -0.0885
   67loPI   C4A 1066   5.480   0.092   8.936  0.1005 -0.0053  0.1295
   67loPI   C5A 1067   5.503  -0.003   8.470  0.1000 -0.1866 -0.0970
   67loPI   C6A 1068   5.284  -0.007   8.123 -0.0035 -0.2156 -0.1304
   67loPI   C1B 1069   5.043   1.229   9.880  0.1692 -0.0189  0.3127
   67loPI   C2B 1070   4.894   1.273   9.407 -0.0656 -0.2080  0.0153
   67loPI   C3B 1071   4.978   1.067   9.049  0.0555  0.0186  0.2932
   67loPI   C4B 1072   5.060   0.708   8.791  0.2778 -0.1024  0.3565
   68loPI    C1 1073  10.009  15.360  10.630 -0.0145 -0.0634 -0.1997
   68loPI    C2 1074   9.890  15.116  10.924  0.0940  0.1539  0.0285
   68loPI    C3 1075  10.275  15.125  10.816  0.0850  0.2025  0.0005
   68loPI   PO4 1076   9.696  15.521  10.609  0.1307 -0.0467 -0.0380
   68loPI   GL1 1077   9.735  15.785  10.144 -0.1679  0.0785 -0.0854
   68loPI   GL2 1078   9.679  15.403  10.161  0.2913  0.1244 -0.1749
   68loPI   C1A 1079   9.855  15.813   9.698 -0.2627 -0.1119  0.1899
   68loPI   C2A 1080  10.137  15.721   9.294 -0.0686 -0.1835 -0.0341
   68loPI   C3A 1081  10.074  15.880   8.854 -0.3203  0.0030 -0.0907
   68loPI   C4A 1082  10.105  15.840   8.415  0.0020 -0.1251 -0.3130
   68loPI   C5A 1083  10.099  15.579   8.158 -0.0404  0.1564 -0.1910
   68loPI   C6A 1084   9.803  15.315   8.248  0.3215  0.3013  0.1872
   68loPI   C1B 1085   9.972  15.223   9.825 -0.1323  0.2598  0.3831
   68loPI   C2B 1086  10.090  15.255   9.412 -0.0170 -0.2860 -0.1228
   68loPI   C3B 1087  10.281  15.310   9.025 -0.0410  0.0827 -0.0949
   68loPI   C4B 1088  10.118  15.410   8.638 -0.1513  0.1663  0.0106
   69loPI    C1 1089   7.764  15.325  10.986  0.0462 -0.0702  0.0481
   69loPI    C2 1090   7.499  15.031  11.046  0.0464 -0.1265 -0.2142
   69loPI    C3 1091   7.646  15.234  11.358 -0.1031 -0.2721 -0.0463
   69loPI   PO4 1092   7.809  15.312  10.740 -0.0402  0.2974  0.0515
   69loPI   GL1 1093   7.540  15.151  10.461  0.2620  0.2319  0.0579
   69loPI   GL2 1094   7.171  15.201  10.548 -0.0824  0.2623  0.0139
   69loPI   C1A 1095   7.771  15.211  10.007 -0.1274 -0.0189 -0.0649
   69loPI   C2A 1096   7.596  15.235   9.596  0.3894 -0.0291  0.0995
   69loPI   C3A 1097   7.237  15.364   9.361  0.1475 -0.0688 -0.2869
   69loPI   C4A 1098   7.076  15.093   9.019  0.0486 -0.1724  0.0916
   69loPI   C5A 1099   7.208  14.928   8.611 -0.1327 -0.0673 -0.2893
   69loPI   C6A 1100   7.224  14.969   8.219  0.1401 -0.1067 -0.0604
   69loPI   C1B 1101   7.198  15.094  10.027 -0.0580 -0.1938 -0.1236
   69loPI   C2B 1102   7.235  14.803   9.614  0.2035 -0.1168 -0.2777
   69loPI   C3B 1103   7.251  14.689   9.287  0.1505  0.0560  0.0981
   69loPI   C4B 1104   7.261  14.521   8.905  0.2016  0.0485  0.3948
   70loPI    C1 1105  13.186   3.029  10.566  0.0918 -0.0827  0.0808
   70loPI    C2 1106  13.363   2.928  10.221 -0.1224  0.1521 -0.1024
   70loPI    C3 1107  13.585   3.001  10.546  0.0955  0.1371 -0.2454
   70loPI   PO4 1108  13.034   3.230  10.467  0.0283 -0.2615  0.0447
   70loPI   GL1 1109  12.941   3.176  10.024 -0.0750  0.1006 -0.0794
   70loPI   GL2 1110  12.827   3.493   9.912 -0.3035 -0.1678 -0.1414
   70loPI   C1A 1111  13.240   3.001   9.706  0.1479 -0.2260 -0.0962
   70loPI   C2A 1112  13.271   2.719   9.353 -0.2153  0.2555  0.4666
   70loPI   C3A 1113  13.234   2.628   8.888  0.1853  0.0193  0.0701
   70loPI   C4A 1114  13.265   2.470   8.487 -0.0066 -0.1154  0.1802
   70loPI   C5A 1115  13.367   2.308   8.142 -0.1966 -0.1548 -0.0365
   70loPI   C6A 1116  13.799   2.174   8.057  0.2096  0.4008  0.0899
   70loPI   C1B 1117  12.980   3.374   9.604  0.0971  0.0585 -0.1678
   70loPI   C2B 1118  13.170   3.177   9.255  0.0476 -0.2902  0.0048
   70loPI   C3B 1119  13.297   3.096   9.018 -0.1584 -0.2018 -0.0777
   70loPI   C4B 1120  13.461   3.017   8.612 -0.0889  0.1720  0.0385
   71loPI    C1 1121   4.813   5.425  10.925 -0.0141  0.1092 -0.0652
   71loPI    C2 1122   5.172   5.568  10.823  0.1452 -0.3698 -0.2047
   71loPI    C3 1123   5.139   5.307  11.125 -0.1063 -0.2304 -0.1084
   71loPI   PO4 1124   4.653   5.620  10.746  0.1367  0.0011  0.2263
   71loPI   GL1 1125   4.583   5.952  10.438 -0.1783 -0.0274  0.0056
   71loPI   GL2 1126   4.710   5.782  10.280 -0.0764  0.0173  0.1584
   71loPI   C1A 1127   4.276   5.934  10.053 -0.1173 -0.1137 -0.2109
   71loPI   C2A 1128   4.144   5.867   9.626 -0.1113 -0.1479  0.1555
   71loPI   C3A 1129   3.821   5.667   9.244 -0.0765 -0.0926  0.0692
   71loPI   C4A 1130   3.713   5.500   8.913  0.0960 -0.2020 -0.2013
   71loPI   C5A 1131   3.578   5.726   8.516 -0.2094 -0.1388 -0.0526
   71loPI   C6A 1132   3.398   5.930   8.119 -0.2374 -0.0499 -0.2481
   71loPI   C1B 1133   4.640   5.602   9.787 -0.0024 -0.1761  0.1996
   71loPI   C2B 1134   4.622   5.612   9.452  0.1263  0.0124 -0.0054
   71loPI   C3B 1135   4.402   5.809   9.158 -0.0721  0.2660 -0.1175
   71loPI   C4B 1136   4.295   6.207   9.076 -0.2288 -0.1585 -0.4947
   72loPI    C1 1137  17.282  13.151  10.960  0.2088  0.1074  0.2012
   72loPI    C2 1138  17.241  13.435  10.681 -0.1590 -0.1645 -0.0312
   72loPI    C3 1139  17.047  13.467  11.029 -0.1516 -0.1010 -0.0329
   72loPI   PO4 1140  17.367  12.929  10.709  0.0724  0.0983  0.0022
   72loPI   GL1 1141  17.140  12.640  10.557  0.0783  0.3697 -0.0594
   72loPI   GL2 1142  16.862  12.504  10.602  0.0146  0.0947  0.0238
   72loPI   C1A 1143  17.087  12.774  10.095 -0.1748 -0.1540 -0.0263
   72loPI   C2A 1144  17.024  12.897   9.594 -0.0558 -0.3978 -0.0139
   72loPI   C3A 1145  17.203  12.858   9.297 -0.2636 -0.0680  0.1258
   72loPI   C4A 1146  17.334  12.855   8.833  0.1033  0.3072 -0.1397
   72loPI   C5A 1147  17.388  12.890   8.375 -0.2478  0.0473 -0.3029
   72loPI   C6A 1148  17.359  13.103   8.002 -0.1087  0.0030  0.2178
   72loPI   C1B 1149  16.671  12.465  10.140  0.1089  0.0618 -0.0375
   72loPI   C2B 1150  16.867  12.434   9.686  0.2747  0.3286  0.0624
   72loPI   C3B 1151  17.185  12.338   9.358 -0.1229 -0.0328  0.0679
   72loPI   C4B 1152  17.320  12.388   8.986 -0.0145 -0.2517  0.2028
   73loPI    C1 1153   3.354   3.199  10.281  0.2676  0.0570 -0.1125
   73loPI    C2 1154   3.185   3.534  10.421  0.1265 -0.0299 -0.0722
   73loPI    C3 1155   3.396   3.298  10.666  0.4912  0.1875 -0.1688
   73loPI   PO4 1156   3.114   3.102  10.115  0.0467  0.1047  0.0387
   73loPI   GL1 1157   2.884   3.227   9.684  0.1335  0.2708  0.0655
   73loPI   GL2 1158   2.722   3.407   9.941 -0.0598  0.0634  0.1997
   73loPI   C1A 1159   2.973   3.315   9.283  0.0816 -0.0120 -0.3727
   73loPI   C2A 1160   2.964   3.364   8.829  0.0187 -0.0581  0.1039
   73loPI   C3A 1161   2.753   3.223   8.454 -0.1013 -0.4916 -0.0114
   73loPI   C4A 1162   2.493   2.928   8.556  0.2690 -0.0082  0.2010
   73loPI   C5A 1163   2.500   2.511   8.525 -0.0340  0.1258  0.2169
   73loPI   C6A 1164   2.386   2.043   8.423 -0.0372  0.0518  0.0172
   73loPI   C1B 1165   2.483   3.471   9.528  0.1190 -0.0121  0.0162
   73loPI   C2B 1166   2.475   3.301   9.132  0.1796 -0.1866  0.1111
   73loPI   C3B 1167   2.357   3.376   8.696 -0.0841 -0.1209  0.0168
   73loPI   C4B 1168   2.360   3.667   8.309  0.3058 -0.0433  0.0758
   74loPI    C1 1169  14.404   4.380  10.676  0.2933  0.1140 -0.2633
   74loPI    C2 1170  14.606   4.146  10.929  0.0338 -0.0949 -0.2447
   74loPI    C3 1171  14.684   4.538  10.913  0.2060 -0.1171 -0.0017
   74loPI   PO4 1172  14.416   4.348  10.485 -0.0904  0.3563  0.3310
   74loPI   GL1 1173  14.418   4.540  10.042 -0.1007  0.0059  0.0004
   74loPI   GL2 1174  14.673   4.269  10.005  0.0954  0.2037 -0.0726
   74loPI   C1A 1175  14.467   4.564   9.598  0.1304 -0.0411  0.0448
   74loPI   C2A 1176  14.493   4.593   9.195 -0.1812 -0.3463 -0.1517
   74loPI   C3A 1177  14.606   4.523   8.854 -0.3791 -0.2997 -0.0554
   74loPI   C4A 1178  14.728   4.565   8.374  0.1324 -0.0693  0.1604
   74loPI   C5A 1179  14.473   4.349   8.034  0.1874  0.1733  0.2532
   74loPI   C6A 1180  14.109   4.567   8.042 -0.0353  0.1175  0.0365
   74loPI   C1B 1181  14.938   4.194   9.654  0.0799 -0.1276 -0.3770
   74loPI   C2B 1182  14.891   4.210   9.214  0.0213  0.1331  0.1333
   74loPI   C3B 1183  14.993   4.074   8.701  0.1494  0.0165 -0.3114
   74loPI   C4B 1184  15.268   3.941   8.402  0.0289  0.3228 -0.2376
   75loPI    C1 1185  12.665   0.114  10.655  0.0287 -0.0078 -0.2313
   75loPI    C2 1186  12.446   0.448  10.628  0.2133  0.1333 -0.0131
   75loPI    C3 1187  12.673   0.382  10.951 -0.1496 -0.4065  0.1450
   75loPI   PO4 1188  12.724   0.123  10.401  0.0781 -0.0246 -0.0367
   75loPI   GL1 1189  12.442   0.038  10.088  0.0732 -0.1078 -0.1091
   75loPI   GL2 1190  12.465  -0.306  10.131  0.0244  0.0630 -0.4405
   75loPI   C1A 1191  12.470   0.004   9.600 -0.0397  0.0951  0.0052
   75loPI   C2A 1192  12.550   0.054   9.219 -0.0140  0.0255  0.1541
   75loPI   C3A 1193  12.640  -0.007   8.742  0.1776  0.1873  0.0865
   75loPI   C4A 1194  12.690  -0.188   8.412  0.1991 -0.0972  0.0185
   75loPI   C5A 1195  12.848  -0.435   8.093  0.0952  0.2094  0.1022
   75loPI   C6A 1196  13.052  -0.391   7.744 -0.1292  0.1662 -0.1543
   75loPI   C1B 1197  12.541  -0.579   9.843  0.0105 -0.2007 -0.2406
   75loPI   C2B 1198  12.549  -0.479   9.403 -0.0977 -0.2339 -0.0242
   75loPI   C3B 1199  12.568  -0.509   8.993  0.4205 -0.1042  0.1868
   75loPI   C4B 1200  12.443  -0.589   8.575  0.3553  0.1987  0.0601
   76loPI    C1 1201   0.012   2.813  10.699  0.0377 -0.1770 -0.0532
   76loPI    C2 1202  -0.146   2.445  10.703 -0.0204 -0.1512  0.0589
   76loPI    C3 1203  -0.318   2.739  10.914 -0.0401 -0.0321 -0.1210
   76loPI   PO4 1204   0.254   2.757  10.477 -0.0947  0.1321 -0.0847
   76loPI   GL1 1205   0.397   2.610  10.152  0.5000  0.0038  0.0598
   76loPI   GL2 1206   0.320   2.758   9.978  0.3169  0.0105 -0.0329
   76loPI   C1A 1207   0.623   2.374   9.778  0.0524 -0.1286  0.0266
   76loPI   C2A 1208   0.681   2.506   9.358 -0.0815 -0.0289  0.1873
   76loPI   C3A 1209   0.740   2.760   9.086  0.2072  0.1939 -0.0785
   76loPI   C4A 1210   0.998   3.006   8.800  0.1681  0.1279 -0.1009
   76loPI   C5A 1211   0.872   3.417   8.423  0.0553  0.1507 -0.1055
   76loPI   C6A 1212   0.984   3.722   8.052  0.0509  0.0843 -0.2146
   76loPI   C1B 1213   0.440   2.809   9.607 -0.1047 -0.1654 -0.0257
   76loPI   C2B 1214   0.268   2.841   9.208 -0.0097  0.1697  0.0750
   76loPI   C3B 1215   0.235   2.778   8.790 -0.2000 -0.1459 -0.1238
   76loPI   C4B 1216   0.194   2.633   8.335  0.0376 -0.0359 -0.0863
   77loPI    C1 1217  10.741   5.206  10.651  0.0709 -0.1649  0.0315
   77loPI    C2 1218  10.890   4.934  10.903 -0.0038  0.0250  0.2842
   77loPI    C3 1219  10.655   5.227  11.041 -0.0635  0.1190 -0.0107
   77loPI   PO4 1220  10.633   5.088  10.395  0.0112 -0.4646 -0.3798
   77loPI   GL1 1221  10.680   5.294  10.089 -0.0111 -0.3120 -0.0093
   77loPI   GL2 1222  10.913   5.054   9.918 -0.0509  0.2291 -0.1767
   77loPI   C1A 1223  10.624   5.406   9.684 -0.0114 -0.1368 -0.0384
   77loPI   C2A 1224  10.811   5.327   9.315 -0.2465  0.1104  0.0486
   77loPI   C3A 1225  10.719   5.089   8.983 -0.3350  0.0018  0.1787
   77loPI   C4A 1226  10.570   5.122   8.503 -0.1410 -0.4864  0.1112
   77loPI   C5A 1227  10.706   5.016   8.094 -0.1654  0.0645 -0.0346
   77loPI   C6A 1228  10.978   5.227   7.829 -0.1634 -0.0305  0.0878
   77loPI   C1B 1229  11.118   4.955   9.603 -0.0833 -0.3796 -0.1215
   77loPI   C2B 1230  11.208   5.015   9.214  0.1580  0.1862 -0.0584
   77loPI   C3B 1231  11.182   5.263   8.873 -0.0017 -0.0496 -0.2488
   77loPI   C4B 1232  11.489   5.326   8.492  0.0755  0.1593 -0.1560
   78loPI    C1 1233   1.269  11.591  10.857 -0.0098 -0.0303  0.0655
   78loPI    C2 1234   1.342  11.967  10.972 -0.4072  0.0299  0.1369
   78loPI    C3 1235   1.565  11.667  11.114  0.1548  0.2689 -0.2051
   78loPI   PO4 1236   1.061  11.588  10.736  0.3123  0.0435 -0.1108
   78loPI   GL1 1237   0.789  11.407  10.413 -0.1232  0.2234  0.0554
   78loPI   GL2 1238   0.543  11.183  10.437  0.0324  0.1517 -0.0485
   78loPI   C1A 1239   0.601  11.206  10.002  0.0985  0.4162 -0.0571
   78loPI   C2A 1240   0.499  11.075   9.673  0.0723 -0.0510 -0.3894
   78loPI   C3A 1241   0.342  10.857   9.257  0.4859  0.0633  0.2613
   78loPI   C4A 1242   0.165  10.630   8.837 -0.0795  0.1273  0.0503
   78loPI   C5A 1243  -0.003  10.717   8.434 -0.0516  0.1109  0.1416
   78loPI   C6A 1244  -0.399  10.760   8.300  0.2800 -0.3069  0.1437
   78loPI   C1B 1245   0.129  10.915  10.359 -0.1676 -0.0265  0.0553
   78loPI   C2B 1246  -0.308  10.704  10.222 -0.3039 -0.0078 -0.0183
   78loPI   C3B 1247  -0.447  10.606   9.711 -0.1801 -0.1508 -0.3540
   78loPI   C4B 1248  -0.577  10.480   9.311  0.0660  0.1311 -0.0159
   79loPI    C1 1249  11.691   6.576  10.926 -0.1198 -0.2763 -0.3751
   79loPI    C2 1250  11.935   6.329  11.124 -0.0707  0.1027  0.0538
   79loPI    C3 1251  11.547   6.239  11.088 -0.0134 -0.1379  0.0196
   79loPI   PO4 1252  11.848   6.623  10.673 -0.0246  0.0419 -0.0813
   79loPI   GL1 1253  11.938   6.696  10.270 -0.1385 -0.1299  0.1004
   79loPI   GL2 1254  11.590   6.915  10.297  0.0889  0.1868  0.0782
   79loPI   C1A 1255  12.225   6.522  10.074  0.0692 -0.0667  0.0804
   79loPI   C2A 1256  12.418   6.480   9.734 -0.2337  0.0682  0.1776
   79loPI   C3A 1257  12.629   6.817   9.485  0.0886  0.4353 -0.0918
   79loPI   C4A 1258  12.757   6.883   8.996 -0.1497 -0.0490 -0.0357
   79loPI   C5A 1259  12.966   6.836   8.671 -0.0078 -0.3512  0.0841
   79loPI   C6A 1260  13.356   6.650   8.420  0.0058 -0.1513 -0.0348
   79loPI   C1B 1261  11.570   7.064   9.942 -0.0369 -0.0613  0.0296
   79loPI   C2B 1262  11.725   7.012   9.457 -0.3797  0.0838 -0.1435
   79loPI   C3B 1263  11.684   7.003   8.921  0.0254 -0.1773  0.1320
   79loPI   C4B 1264  11.575   6.718   8.583  0.1141 -0.6535  0.2586
   80loPI    C1 1265  12.331   1.196  10.688  0.2315 -0.1047  0.1679
   80loPI    C2 1266  12.564   0.954  10.472  0.1866  0.0552 -0.0635
   80loPI    C3 1267  12.491   0.871  10.856  0.2225 -0.2626 -0.1226
   80loPI   PO4 1268  12.185   1.270  10.507 -0.2583  0.2471 -0.1886
   80loPI   GL1 1269  11.995   1.347  10.041  0.3804 -0.1115 -0.1995
   80loPI   GL2 1270  12.258   1.586  10.119 -0.2217  0.0804 -0.2026
   80loPI   C1A 1271  12.160   1.124   9.681  0.0858  0.0550 -0.0469
   80loPI   C2A 1272  12.187   1.091   9.178 -0.0308 -0.2861  0.0015
   80loPI   C3A 1273  12.346   1.071   8.843  0.0389  0.0728 -0.0043
   80loPI   C4A 1274  12.475   0.934   8.433 -0.0497 -0.2426  0.1295
   80loPI   C5A 1275  12.749   1.084   8.112 -0.0238 -0.0734  0.0624
   80loPI   C6A 1276  12.769   1.513   8.134 -0.0283  0.2612  0.2582
   80loPI   C1B 1277  12.480   1.533   9.788 -0.1508  0.1879  0.0468
   80loPI   C2B 1278  12.641   1.134   9.496 -0.1085 -0.1442  0.2354
   80loPI   C3B 1279  12.738   1.128   9.094 -0.0210  0.1349 -0.0818
   80loPI   C4B 1280  12.741   1.297   8.696  0.4415 -0.1377  0.2284
   81loPI    C1 1281   9.873  16.473  11.113 -0.1975  0.0473  0.3180
   81loPI    C2 1282  10.039  16.110  11.086 -0.2002  0.0461  0.3181
   81loPI    C3 1283  10.185  16.378  11.345  0.2278  0.2734 -0.1410
   81loPI   PO4 1284   9.876  16.535  10.840 -0.0482 -0.1804 -0.0819
   81loPI   GL1 1285  10.003  16.326  10.521  0.0830  0.2436  0.0557
   81loPI   GL2 1286  10.208  16.577  10.407  0.3230 -0.0528 -0.1615
   81loPI   C1A 1287   9.950  16.256   9.988 -0.3134 -0.1515  0.0051
   81loPI   C2A 1288   9.822  16.261   9.509  0.1973 -0.1119 -0.4489
   81loPI   C3A 1289   9.774  16.223   9.023 -0.0987 -0.2131  0.0106
   81loPI   C4A 1290   9.660  16.275   8.661  0.3291  0.1774 -0.0499
   81loPI   C5A 1291   9.565  16.050   8.248 -0.2476  0.3148  0.1175
   81loPI   C6A 1292   9.697  15.995   7.921  0.3134  0.0394 -0.1162
   81loPI   C1B 1293  10.249  16.847   9.975 -0.1331 -0.0726 -0.3515
   81loPI   C2B 1294   9.999  16.987   9.568 -0.3610  0.0770 -0.2328
   81loPI   C3B 1295   9.842  17.166   9.233  0.0656  0.5804 -0.1062
   81loPI   C4B 1296   9.628  17.234   8.820 -0.1733 -0.0753  0.1103
   82loPI    C1 1297  13.090  10.851  10.780  0.0583 -0.0243 -0.0433
   82loPI    C2 1298  13.194  10.579  11.054 -0.2941 -0.2133 -0.0925
   82loPI    C3 1299  12.991  10.906  11.163 -0.1885 -0.1491 -0.0876
   82loPI   PO4 1300  13.292  10.850  10.632  0.2609 -0.0771 -0.1507
   82loPI   GL1 1301  13.527  10.670  10.315  0.0850  0.1627 -0.1071
   82loPI   GL2 1302  13.554  10.935  10.156 -0.0994 -0.2669  0.0743
   82loPI   C1A 1303  13.421  10.554   9.925  0.1100 -0.0814 -0.2373
   82loPI   C2A 1304  13.282  10.716   9.589 -0.2236 -0.0087  0.0376
   82loPI   C3A 1305  13.104  10.496   9.252  0.1569 -0.1755  0.0687
   82loPI   C4A 1306  12.990  10.328   8.829 -0.0382  0.0065  0.1388
   82loPI   C5A 1307  12.883  10.281   8.402 -0.3470 -0.1464 -0.3115
   82loPI   C6A 1308  12.895  10.107   7.997  0.0476  0.1323  0.0296
   82loPI   C1B 1309  13.595  11.060   9.663 -0.0079 -0.2190 -0.0242
   82loPI   C2B 1310  13.501  11.033   9.230  0.1826 -0.1562 -0.0784
   82loPI   C3B 1311  13.210  10.843   8.869  0.0878  0.0925 -0.1222
   82loPI   C4B 1312  13.014  10.770   8.465  0.0982  0.0387 -0.2150
   83loPI    C1 1313  17.431   0.724  10.644  0.2090  0.1517  0.0668
   83loPI    C2 1314  17.787   0.708  10.825  0.0474  0.1027  0.3882
   83loPI    C3 1315  17.453   0.651  11.036 -0.1352 -0.2464  0.0188
   83loPI   PO4 1316  17.543   0.865  10.395  0.0974 -0.3058  0.0570
   83loPI   GL1 1317  17.425   0.742   9.997 -0.0420 -0.1597  0.1929
   83loPI   GL2 1318  17.117   0.598   9.854  0.3971 -0.2733 -0.2116
   83loPI   C1A 1319  17.464   0.872   9.628 -0.1330  0.3629  0.2056
   83loPI   C2A 1320  17.333   0.921   9.207  0.0379  0.2712  0.3250
   83loPI   C3A 1321  17.416   1.034   8.778  0.2283 -0.0125  0.0493
   83loPI   C4A 1322  17.557   0.913   8.381 -0.1596 -0.1771 -0.1409
   83loPI   C5A 1323  17.901   0.927   8.107  0.2979  0.1519  0.0174
   83loPI   C6A 1324  18.091   1.269   8.123 -0.1273  0.0218 -0.2927
   83loPI   C1B 1325  17.287   0.429   9.588 -0.0933 -0.3050  0.2071
   83loPI   C2B 1326  17.432   0.426   9.154 -0.0668 -0.2072  0.0512
   83loPI   C3B 1327  17.724   0.462   8.811  0.0253  0.0495 -0.0496
   83loPI   C4B 1328  17.981   0.606   8.471  0.0150 -0.0056  0.0266
   84loPI    C1 1329   3.195  17.206  11.044 -0.3278 -0.2790 -0.1813
   84loPI    C2 1330   3.404  16.910  10.874  0.1625  0.0803 -0.2247
   84loPI    C3 1331   3.457  16.995  11.261  0.0219  0.1107 -0.2118
   84loPI   PO4 1332   3.162  17.336  10.777  0.1903  0.0310  0.0714
   84loPI   GL1 1333   3.034  17.455  10.403 -0.2192 -0.0150  0.0567
   84loPI   GL2 1334   3.315  17.565  10.405 -0.4628 -0.4753 -0.0140
   84loPI   C1A 1335   3.009  17.474   9.984  0.3500 -0.0154 -0.0490
   84loPI   C2A 1336   3.018  17.380   9.458  0.0840  0.3557 -0.0759
   84loPI   C3A 1337   2.847  17.462   9.025  0.0712 -0.0520  0.2485
   84loPI   C4A 1338   2.606  17.363   8.645 -0.4033  0.0676  0.0252
   84loPI   C5A 1339   2.529  17.497   8.232 -0.2160 -0.0079  0.1187
   84loPI   C6A 1340   2.592  17.835   8.034 -0.0486 -0.1128  0.1169
   84loPI   C1B 1341   3.514  17.434  10.019  0.0225  0.0325 -0.1427
   84loPI   C2B 1342   3.496  17.568   9.667 -0.0696 -0.0842 -0.2211
   84loPI   C3B 1343   3.445  17.550   9.232 -0.0735  0.0484 -0.2298
   84loPI   C4B 1344   3.577  17.680   8.937  0.0764 -0.2081 -0.2904
   85loPI    C1 1345  14.730   6.478  10.934 -0.1364 -0.2659  0.0349
   85loPI    C2 1346  14.576   6.602  11.282  0.1647 -0.1264  0.1214
   85loPI    C3 1347  14.955   6.476  11.264  0.1778 -0.0518 -0.1729
   85loPI   PO4 1348  14.443   6.185  10.821  0.2122  0.1121 -0.0881
   85loPI   GL1 1349  14.301   6.200  10.362 -0.0338 -0.1298  0.0488
   85loPI   GL2 1350  14.077   6.357  10.435  0.0960  0.0818 -0.1586
   85loPI   C1A 1351  14.389   6.022   9.923 -0.0924  0.3488  0.0974
   85loPI   C2A 1352  14.406   5.975   9.459 -0.1924 -0.1017  0.0811
   85loPI   C3A 1353  14.515   5.877   9.020 -0.1883 -0.1227  0.0324
   85loPI   C4A 1354  14.681   5.926   8.707  0.0118 -0.3076  0.0160
   85loPI   C5A 1355  14.630   6.180   8.390 -0.4653 -0.0960 -0.1707
   85loPI   C6A 1356  14.371   6.489   8.567  0.1467 -0.2503  0.0654
   85loPI   C1B 1357  13.704   6.450  10.194 -0.0916  0.1049  0.1219
   85loPI   C2B 1358  13.498   6.856   9.918 -0.3743  0.0797  0.0474
   85loPI   C3B 1359  13.485   7.221   9.703  0.0157 -0.0159 -0.3140
   85loPI   C4B 1360  13.578   7.175   9.258  0.0491  0.0456 -0.1234
   86loPI    C1 1361   3.805  10.622  10.641 -0.2349  0.0794 -0.0901
   86loPI    C2 1362   4.166  10.665  10.807 -0.0623  0.1193 -0.4662
   86loPI    C3 1363   3.840  10.781  11.006  0.1027 -0.1875 -0.0016
   86loPI   PO4 1364   3.828  10.657  10.438  0.1748  0.2936  0.0773
   86loPI   GL1 1365   3.520  11.002  10.131  0.0499  0.1888 -0.2399
   86loPI   GL2 1366   3.498  10.685  10.027 -0.1895 -0.0101  0.3843
   86loPI   C1A 1367   3.435  11.026   9.746  0.2371  0.2917  0.2880
   86loPI   C2A 1368   3.390  10.835   9.372  0.1483 -0.1670  0.1246
   86loPI   C3A 1369   3.296  10.853   8.906 -0.0303  0.0783  0.1338
   86loPI   C4A 1370   3.296  10.745   8.418 -0.2785  0.1304  0.0743
   86loPI   C5A 1371   3.118  10.583   8.055 -0.4827 -0.0849  0.1793
   86loPI   C6A 1372   2.788  10.899   7.841 -0.1145  0.0187 -0.1218
   86loPI   C1B 1373   3.388  10.435   9.677  0.1877  0.1654 -0.0078
   86loPI   C2B 1374   3.125  10.326   9.345 -0.1627  0.0862  0.0305
   86loPI   C3B 1375   3.088  10.339   8.915  0.0225  0.0154  0.2968
   86loPI   C4B 1376   3.039  10.347   8.532  0.2878  0.0153  0.2326
   87loPI    C1 1377  13.126  12.891  10.872  0.1329  0.0829 -0.0771
   87loPI    C2 1378  13.376  13.129  11.073  0.0418  0.1320 -0.0215
   87loPI    C3 1379  12.982  13.192  11.091  0.0298  0.1027 -0.1714
   87loPI   PO4 1380  13.223  12.858  10.678  0.0671 -0.0461  0.0457
   87loPI   GL1 1381  13.311  12.778  10.247  0.0963 -0.0555 -0.1342
   87loPI   GL2 1382  13.428  12.422  10.271 -0.1531  0.1372 -0.1226
   87loPI   C1A 1383  13.065  12.729   9.872  0.0386  0.3688 -0.0497
   87loPI   C2A 1384  13.052  12.342   9.757  0.0983  0.0989 -0.2787
   87loPI   C3A 1385  12.738  12.132   9.571 -0.2825 -0.1760 -0.0671
   87loPI   C4A 1386  12.552  12.221   9.235  0.1249 -0.1527  0.3447
   87loPI   C5A 1387  12.489  12.500   8.932 -0.0404 -0.1328 -0.2043
   87loPI   C6A 1388  12.480  12.636   8.440 -0.0167 -0.0636  0.0677
   87loPI   C1B 1389  13.531  12.403   9.837 -0.3092 -0.0567  0.1419
   87loPI   C2B 1390  13.375  12.572   9.444  0.1632  0.1758  0.2383
   87loPI   C3B 1391  13.381  12.867   9.022  0.0273 -0.2300 -0.1923
   87loPI   C4B 1392  13.537  13.148   8.648  0.2327  0.1458  0.0804
   88loPI    C1 1393  17.747   7.725  11.085 -0.1172  0.1338 -0.0158
   88loPI    C2 1394  17.514   7.854  11.383 -0.1650 -0.1001  0.0503
   88loPI    C3 1395  17.814   7.601  11.459 -0.0768 -0.0349 -0.0779
   88loPI   PO4 1396  17.519   7.664  10.854  0.0348  0.0231 -0.1045
   88loPI   GL1 1397  17.346   7.454  10.355 -0.1423  0.0280 -0.1420
   88loPI   GL2 1398  17.037   7.392  10.123  0.0422 -0.0865 -0.4139
   88loPI   C1A 1399  17.400   7.817  10.105 -0.0027  0.2621  0.1282
   88loPI   C2A 1400  17.341   7.934   9.676  0.2907 -0.0974  0.1617
   88loPI   C3A 1401  17.320   7.986   9.124 -0.0933  0.1368  0.0632
   88loPI   C4A 1402  17.493   8.120   8.663 -0.0687  0.1947 -0.0912
   88loPI   C5A 1403  17.695   8.463   8.468 -0.1091  0.0823  0.0307
   88loPI   C6A 1404  18.123   8.466   8.313  0.1679 -0.0790  0.2160
   88loPI   C1B 1405  17.361   7.398   9.778  0.0136 -0.3482  0.1040
   88loPI   C2B 1406  17.297   7.557   9.348  0.3367  0.0070  0.1359
   88loPI   C3B 1407  17.145   7.541   8.907  0.5600  0.1553  0.0764
   88loPI   C4B 1408  16.988   7.955   8.688 -0.0732 -0.0607  0.0835
   89loPI    C1 1409   2.644   0.566  11.100  0.2923 -0.0150 -0.1098
   89loPI    C2 1410   2.418   0.253  10.994  0.1098  0.0194  0.1660
   89loPI    C3 1411   2.686   0.215  11.288  0.2277  0.0698  0.0657
   89loPI   PO4 1412   2.700   0.736  10.822 -0.1741  0.0836  0.1864
   89loPI   GL1 1413   2.762   1.070  10.681  0.2679  0.1949  0.1003
   89loPI   GL2 1414   3.112   0.951  10.505 -0.0936 -0.2957  0.1387
   89loPI   C1A 1415   2.686   1.007  10.219 -0.3508  0.1061  0.0980
   89loPI   C2A 1416   2.496   1.127   9.856 -0.1810 -0.0030  0.0315
   89loPI   C3A 1417   2.157   1.400   9.728 -0.2251  0.2961 -0.2453
   89loPI   C4A 1418   2.116   1.542   9.216 -0.5258 -0.1340 -0.0884
   89loPI   C5A 1419   2.057   1.573   8.861  0.1359  0.1099 -0.1723
   89loPI   C6A 1420   2.070   1.631   8.490 -0.0032  0.0468  0.0804
   89loPI   C1B 1421   3.130   0.760  10.022  0.2064 -0.0773 -0.0775
   89loPI   C2B 1422   3.235   0.672   9.622  0.2275 -0.2327 -0.0084
   89loPI   C3B 1423   3.244   0.849   9.217  0.1405 -0.0352  0.0858
   89loPI   C4B 1424   3.220   0.915   8.704  0.1004 -0.1216 -0.0582
   90loPI    C1 1425   0.194   0.573  10.767 -0.0314 -0.0136  0.1083
   90loPI    C2 1426   0.128   0.958  10.682  0.0282 -0.0682 -0.1995
   90loPI    C3 1427   0.434   0.856  10.918 -0.1286  0.0862  0.0771
   90loPI   PO4 1428   0.242   0.516  10.523  0.1507  0.5671  0.0502
   90loPI   GL1 1429   0.538   0.647  10.139  0.1858  0.0799  0.0101
   90loPI   GL2 1430   0.244   0.667   9.913 -0.1850  0.0406  0.1306
   90loPI   C1A 1431   0.742   0.585   9.777  0.0478 -0.1120  0.3957
   90loPI   C2A 1432   0.855   0.600   9.447  0.1879 -0.1012  0.1325
   90loPI   C3A 1433   1.040   0.530   9.020 -0.0706  0.0576 -0.2204
   90loPI   C4A 1434   1.019   0.499   8.551 -0.2412 -0.0178 -0.1333
   90loPI   C5A 1435   0.931   0.740   8.195  0.2809  0.3351 -0.0526
   90loPI   C6A 1436   1.130   1.210   8.160  0.0237 -0.0263  0.0083
   90loPI   C1B 1437   0.227   0.617   9.495  0.2832  0.0322  0.1231
   90loPI   C2B 1438   0.232   0.710   9.082 -0.1871 -0.0072 -0.0856
   90loPI   C3B 1439   0.349   0.599   8.737  0.1087 -0.2931 -0.1989
   90loPI   C4B 1440   0.439   0.575   8.340  0.2600  0.1371 -0.3007
   91loPI    C1 1441  16.611  12.801  10.919 -0.2822 -0.6040  0.1725
   91loPI    C2 1442  16.498  13.024  11.231 -0.3719 -0.2212 -0.1256
   91loPI    C3 1443  16.579  12.636  11.282  0.3845 -0.0044  0.5301
   91loPI   PO4 1444  16.849  12.999  10.802  0.0377 -0.1842  0.0711
   91loPI   GL1 1445  16.883  13.240  10.380  0.1583 -0.0591 -0.1956
   91loPI   GL2 1446  17.006  13.536  10.268 -0.2353 -0.1063  0.0144
   91loPI   C1A 1447  17.373  13.195  10.174 -0.1173  0.0661  0.1331
   91loPI   C2A 1448  17.541  13.165   9.719 -0.1097 -0.6057 -0.0458
   91loPI   C3A 1449  17.552  13.173   9.312  0.0613 -0.0338 -0.4517
   91loPI   C4A 1450  17.466  13.293   8.904  0.2235 -0.2577  0.2418
   91loPI   C5A 1451  17.174  13.352   8.568  0.0651 -0.0001 -0.2047
   91loPI   C6A 1452  17.034  13.530   8.104  0.1268  0.2509  0.2630
   91loPI   C1B 1453  17.056  13.437   9.870  0.0497  0.2150 -0.4151
   91loPI   C2B 1454  17.026  13.347   9.414 -0.0287 -0.2455  0.0186
   91loPI   C3B 1455  17.061  13.555   9.059  0.1326  0.0393  0.0783
   91loPI   C4B 1456  17.137  13.867   8.538  0.3436  0.0958 -0.1228
   92loPI    C1 1457  15.577  11.340  10.759  0.1080  0.0224  0.1145
   92loPI    C2 1458  15.870  11.475  10.996  0.1072  0.0917  0.0762
   92loPI    C3 1459  15.916  11.131  10.797  0.2211  0.1738 -0.0410
   92loPI   PO4 1460  15.305  11.447  10.773  0.2757 -0.1280 -0.0510
   92loPI   GL1 1461  15.021  11.327  10.300 -0.4669 -0.0874 -0.1384
   92loPI   GL2 1462  15.305  11.179  10.323  0.2561  0.2484  0.0239
   92loPI   C1A 1463  14.993  11.353   9.913 -0.0466 -0.0414  0.2583
   92loPI   C2A 1464  15.042  11.493   9.601  0.1212  0.1315 -0.0269
   92loPI   C3A 1465  15.088  11.585   9.257 -0.2898  0.0753  0.2344
   92loPI   C4A 1466  14.957  11.879   8.969 -0.0791 -0.2769  0.4838
   92loPI   C5A 1467  14.569  12.152   9.066 -0.3744 -0.1477  0.1480
   92loPI   C6A 1468  14.276  12.413   9.272 -0.0694  0.1081  0.4066
   92loPI   C1B 1469  15.464  11.322   9.884 -0.2349 -0.2426 -0.0209
   92loPI   C2B 1470  15.555  11.452   9.399 -0.0581  0.1534 -0.0300
   92loPI   C3B 1471  15.724  11.330   9.077  0.1354  0.3260  0.0194
   92loPI   C4B 1472  15.831  11.114   8.742 -0.2757 -0.0788  0.0315
   93loPI    C1 1473   0.621   1.265  10.730 -0.1184 -0.0743  0.2528
   93loPI    C2 1474   0.973   1.385  10.878 -0.0403 -0.1528  0.1320
   93loPI    C3 1475   0.671   1.298  11.126  0.0902 -0.2851  0.2462
   93loPI   PO4 1476   0.753   1.026  10.533  0.1716 -0.1931 -0.0568
   93loPI   GL1 1477   0.894   0.980  10.162 -0.0766  0.0591  0.0662
   93loPI   GL2 1478   0.694   1.106   9.916 -0.0843  0.1566  0.2309
   93loPI   C1A 1479   1.198   0.893   9.811  0.1718  0.0110  0.0969
   93loPI   C2A 1480   1.291   0.439   9.594  0.1623  0.0535  0.3593
   93loPI   C3A 1481   1.449   0.244   9.278 -0.1894 -0.1605  0.1642
   93loPI   C4A 1482   1.611   0.358   8.821  0.1762  0.4219  0.0296
   93loPI   C5A 1483   1.531   0.642   8.574 -0.0425  0.2218 -0.3521
   93loPI   C6A 1484   1.383   0.869   8.346  0.0577 -0.1227  0.4709
   93loPI   C1B 1485   0.558   1.033   9.505  0.1013  0.2134 -0.2253
   93loPI   C2B 1486   0.714   0.965   9.044 -0.1547  0.0486  0.1584
   93loPI   C3B 1487   0.673   1.008   8.601 -0.0785 -0.1189 -0.0909
   93loPI   C4B 1488   0.253   1.062   8.545 -0.0490 -0.4720  0.0469
   94loPI    C1 1489   8.877   0.161  10.760  0.3838 -0.0122 -0.0216
   94loPI    C2 1490   8.763   0.077  11.134 -0.0450  0.0154 -0.1397
   94loPI    C3 1491   8.968   0.412  11.057  0.0630 -0.0007  0.0710
   94loPI   PO4 1492   8.702   0.183  10.567  0.1464 -0.0306 -0.1531
   94loPI   GL1 1493   8.691   0.350  10.254  0.0166 -0.1137  0.2534
   94loPI   GL2 1494   8.974   0.431  10.061  0.0563  0.0036  0.2726
   94loPI   C1A 1495   8.392   0.242   9.901  0.1547 -0.4074  0.1283
   94loPI   C2A 1496   8.390   0.068   9.485 -0.3352  0.3013  0.3005
   94loPI   C3A 1497   8.367  -0.009   9.078  0.2909 -0.0868 -0.0602
   94loPI   C4A 1498   8.410  -0.090   8.582  0.3114  0.0534 -0.0140
   94loPI   C5A 1499   8.590   0.138   8.261  0.2569  0.1266 -0.1891
   94loPI   C6A 1500   8.784   0.029   7.925 -0.4129 -0.2207 -0.0067
   94loPI   C1B 1501   8.796   0.348   9.684  0.0268  0.0778 -0.1474
   94loPI   C2B 1502   8.765   0.305   9.215  0.1591 -0.0909 -0.1518
   94loPI   C3B 1503   8.630   0.362   8.790  0.0362  0.0768 -0.3332
   94loPI   C4B 1504   8.905   0.538   8.321 -0.1537 -0.2680 -0.0728
   95loPI    C1 1505  13.360   7.185  10.810  0.0071 -0.0476  0.2577
   95loPI    C2 1506  13.272   6.833  10.640  0.1340  0.0613 -0.0400
   95loPI    C3 1507  13.086   6.945  10.976  0.0252 -0.2474  0.0055
   95loPI   PO4 1508  13.319   7.413  10.654  0.2389 -0.1262 -0.0805
   95loPI   GL1 1509  13.187   7.401  10.271 -0.1928  0.0669  0.2696
   95loPI   GL2 1510  13.341   7.739  10.217  0.1357  0.0137 -0.0053
   95loPI   C1A 1511  13.088   7.162   9.943 -0.3027  0.0312 -0.0113
   95loPI   C2A 1512  13.001   7.244   9.513  0.2812  0.3556  0.0521
   95loPI   C3A 1513  13.098   7.229   9.104 -0.1167  0.0376 -0.0152
   95loPI   C4A 1514  13.069   7.402   8.691  0.1263 -0.0371 -0.1996
   95loPI   C5A 1515  12.787   7.733   8.568  0.1019  0.1966  0.2457
   95loPI   C6A 1516  12.713   7.979   8.274  0.0981 -0.3531  0.1664
   95loPI   C1B 1517  13.131   7.689   9.860 -0.1476 -0.3690  0.0210
   95loPI   C2B 1518  12.936   7.773   9.502 -0.1216 -0.0158 -0.1871
   95loPI   C3B 1519  12.857   7.709   9.067  0.0359  0.0852 -0.1191
   95loPI   C4B 1520  12.842   8.095   9.116  0.1309 -0.0617  0.0719
   96loPI    C1 1521   2.837  10.149  11.102  0.3159 -0.0329 -0.1089
   96loPI    C2 1522   2.893   9.755  11.145 -0.4103 -0.1536 -0.1449
   96loPI    C3 1523   2.857   9.988  11.468  0.4585 -0.0289 -0.1143
   96loPI   PO4 1524   2.979  10.109  10.722  0.1122  0.1788  0.0324
   96loPI   GL1 1525   2.767  10.081  10.252  0.0110 -0.0216  0.0625
   96loPI   GL2 1526   2.582  10.320  10.209 -0.1263 -0.0651 -0.0052
   96loPI   C1A 1527   3.004  10.132   9.864  0.0702 -0.3563  0.2377
   96loPI   C2A 1528   2.928   9.832   9.624  0.2077  0.1084  0.2230
   96loPI   C3A 1529   2.845   9.809   9.202 -0.1678  0.0167  0.0505
   96loPI   C4A 1530   2.761   9.853   8.683  0.0747  0.0266 -0.0116
   96loPI   C5A 1531   2.979   9.915   8.291  0.1671 -0.1752 -0.1107
   96loPI   C6A 1532   3.315   9.773   8.123  0.1957  0.0876 -0.0642
   96loPI   C1B 1533   2.492  10.648   9.985  0.0608  0.1892  0.3696
   96loPI   C2B 1534   2.391  10.780   9.582 -0.1961  0.0366 -0.1408
   96loPI   C3B 1535   2.385  10.897   9.097  0.0841  0.0897 -0.2088
   96loPI   C4B 1536   2.183  10.841   8.724 -0.2434 -0.1165 -0.1132
   97loPI    C1 1537  17.971  16.392  10.468  0.0002 -0.2030 -0.1129
   97loPI    C2 1538  18.213  16.638  10.268 -0.0930  0.0013  0.0225
   97loPI    C3 1539  18.055  16.754  10.616 -0.3472 -0.1484 -0.0410
   97loPI   PO4 1540  18.140  16.132  10.451  0.1615  0.1035 -0.0595
   97loPI   GL1 1541  18.315  15.930   9.970  0.2935  0.1452  0.0160
   97loPI   GL2 1542  18.345  16.243   9.974 -0.1085 -0.0207 -0.1310
   97loPI   C1A 1543  18.537  15.836   9.458 -0.0973 -0.0982  0.2235
   97loPI   C2A 1544  18.648  15.736   9.112  0.1904 -0.0807  0.0475
   97loPI   C3A 1545  18.637  15.813   8.652 -0.2278  0.2806 -0.0649
   97loPI   C4A 1546  18.692  16.035   8.270 -0.1265 -0.2305  0.2237
   97loPI   C5A 1547  18.873  15.830   7.909 -0.1277 -0.3121  0.1275
   97loPI   C6A 1548  18.761  15.856   7.487  0.2130 -0.0126  0.2455
   97loPI   C1B 1549  18.510  16.402   9.549  0.3584 -0.0877 -0.0657
   97loPI   C2B 1550  18.547  16.342   9.047 -0.0841 -0.1574  0.0279
   97loPI   C3B 1551  18.342  16.234   8.659  0.2120 -0.1211 -0.2591
   97loPI   C4B 1552  18.204  16.076   8.315 -0.4252  0.0394  0.0780
   98loPI    C1 1553  11.927   3.663  10.652 -0.0917  0.0003 -0.1444
   98loPI    C2 1554  11.812   4.047  10.666  0.1720  0.0803 -0.1302
   98loPI    C3 1555  11.601   3.768  10.859  0.0344  0.2322 -0.0594
   98loPI   PO4 1556  12.077   3.689  10.377  0.2897  0.1044 -0.1515
   98loPI   GL1 1557  11.869   3.965  10.136 -0.0849 -0.0914 -0.3321
   98loPI   GL2 1558  11.810   3.773   9.946 -0.1541 -0.1139  0.0267
   98loPI   C1A 1559  12.098   4.235   9.793 -0.1127 -0.1401  0.2489
   98loPI   C2A 1560  12.050   4.335   9.468  0.0182 -0.4118  0.2929
   98loPI   C3A 1561  12.049   4.465   9.019  0.1354 -0.0566 -0.4033
   98loPI   C4A 1562  12.021   4.541   8.715  0.0633  0.2502 -0.0854
   98loPI   C5A 1563  12.209   4.724   8.375  0.3997  0.0831  0.0578
   98loPI   C6A 1564  12.005   5.049   8.035  0.1686  0.1365 -0.3708
   98loPI   C1B 1565  11.923   3.801   9.562  0.0795  0.0203  0.0718
   98loPI   C2B 1566  11.913   3.843   9.106  0.2506  0.0859 -0.0821
   98loPI   C3B 1567  11.906   3.764   8.778  0.0433  0.1930  0.0478
   98loPI   C4B 1568  11.750   3.803   8.343 -0.0219  0.0483 -0.0161
   99loPI    C1 1569  17.020   6.502  10.840  0.1688 -0.0622  0.0873
   99loPI    C2 1570  16.940   6.110  10.851 -0.0930 -0.0112  0.0721
   99loPI    C3 1571  16.937   6.323  11.189 -0.0966  0.0062  0.0611
   99loPI   PO4 1572  16.888   6.545  10.628 -0.3075  0.1218  0.1009
   99loPI   GL1 1573  17.113   6.398  10.235  0.3313  0.1511  0.1316
   99loPI   GL2 1574  17.363   6.465  10.126  0.0230 -0.0550 -0.1240
   99loPI   C1A 1575  16.980   6.264   9.844  0.0683 -0.4871  0.1341
   99loPI   C2A 1576  17.001   6.232   9.424  0.0469  0.0285 -0.0007
   99loPI   C3A 1577  16.865   6.185   9.039 -0.1670 -0.1058  0.4318
   99loPI   C4A 1578  16.463   6.427   8.919  0.1747  0.1807 -0.0555
   99loPI   C5A 1579  16.362   6.607   8.515  0.0323 -0.0475 -0.0288
   99loPI   C6A 1580  16.614   6.682   8.245  0.0847 -0.1467 -0.0355
   99loPI   C1B 1581  17.267   6.598   9.569  0.2569  0.0423 -0.1459
   99loPI   C2B 1582  17.390   6.498   9.239 -0.0500  0.0374  0.3259
   99loPI   C3B 1583  17.305   6.381   8.844 -0.2575  0.3753  0.0417
   99loPI   C4B 1584  17.333   6.142   8.572  0.1834  0.1761  0.1278
  100loPI    C1 1585  12.049   5.949  10.829 -0.1490 -0.2185  0.0718
  100loPI    C2 1586  12.141   5.610  11.020  0.2013 -0.0838  0.1514
  100loPI    C3 1587  12.298   5.957  11.143 -0.0935  0.0988  0.0235
  100loPI   PO4 1588  12.028   5.868  10.566  0.0509 -0.3261 -0.2016
  100loPI   GL1 1589  12.019   6.157  10.297 -0.1499 -0.3027  0.0288
  100loPI   GL2 1590  11.881   6.010  10.099  0.0571  0.5872 -0.0334
  100loPI   C1A 1591  12.356   6.035   9.969 -0.0702 -0.0602  0.1192
  100loPI   C2A 1592  12.475   6.035   9.504  0.2022 -0.0297  0.1641
  100loPI   C3A 1593  12.582   5.873   9.173  0.0173 -0.0202  0.0338
  100loPI   C4A 1594  12.701   5.922   8.744 -0.0224 -0.0496  0.1962
  100loPI   C5A 1595  12.603   5.669   8.408 -0.3590 -0.1079  0.0059
  100loPI   C6A 1596  12.439   5.315   8.290 -0.1393  0.0348 -0.0284
  100loPI   C1B 1597  11.925   5.864   9.700  0.0594 -0.1086  0.0076
  100loPI   C2B 1598  12.135   5.742   9.415 -0.0621  0.0129  0.0097
  100loPI   C3B 1599  12.166   5.608   9.093  0.2978 -0.1090  0.0516
  100loPI   C4B 1600  12.425   5.473   8.844  0.6065 -0.0666 -0.1695
  101loPI    C1 1601  15.084   8.174  10.750 -0.0246 -0.0733  0.0216
  101loPI    C2 1602  15.174   7.815  10.902  0.0610 -0.0268  0.0815
  101loPI    C3 1603  15.058   8.111  11.145 -0.1162 -0.0449  0.0204
  101loPI   PO4 1604  15.265   8.320  10.597 -0.1774 -0.2080  0.1436
  101loPI   GL1 1605  15.483   8.194  10.176 -0.3118  0.0127 -0.0176
  101loPI   GL2 1606  15.688   8.375  10.328  0.2330  0.0607 -0.3010
  101loPI   C1A 1607  15.468   8.167   9.775  0.0933  0.1034  0.1374
  101loPI   C2A 1608  15.435   8.173   9.361  0.0280  0.2818 -0.0711
  101loPI   C3A 1609  15.430   8.248   9.008  0.1267 -0.0823 -0.0884
  101loPI   C4A 1610  15.521   8.025   8.674  0.1411 -0.1761 -0.1668
  101loPI   C5A 1611  15.636   7.607   8.498 -0.1546  0.0309  0.1553
  101loPI   C6A 1612  15.731   7.220   8.447  0.2948  0.0506  0.3434
  101loPI   C1B 1613  15.910   8.262   9.907  0.1033 -0.3033  0.1410
  101loPI   C2B 1614  15.989   8.364   9.482 -0.0938 -0.3869  0.0952
  101loPI   C3B 1615  15.844   8.487   9.125 -0.4422 -0.2066  0.1912
  101loPI   C4B 1616  15.749   8.672   8.737  0.1888 -0.1569  0.1085
  102loPI    C1 1617  15.888   1.827  10.478  0.1570  0.1152 -0.1562
  102loPI    C2 1618  15.531   1.695  10.355  0.0702 -0.0013  0.2075
  102loPI    C3 1619  15.776   1.451  10.555  0.3491  0.0839 -0.0231
  102loPI   PO4 1620  16.041   1.913  10.324 -0.0893 -0.0828  0.0087
  102loPI   GL1 1621  16.147   1.911   9.988 -0.0013  0.2945 -0.1372
  102loPI   GL2 1622  15.778   2.072   9.928 -0.1317 -0.1837  0.0954
  102loPI   C1A 1623  16.221   1.929   9.590 -0.3519 -0.1041  0.2230
  102loPI   C2A 1624  16.296   1.874   9.139  0.5932 -0.1193 -0.0126
  102loPI   C3A 1625  16.401   2.003   8.708  0.0581  0.2206  0.2687
  102loPI   C4A 1626  16.353   1.973   8.296 -0.1283 -0.0406 -0.1531
  102loPI   C5A 1627  16.557   2.053   7.888 -0.2878  0.0964  0.4112
  102loPI   C6A 1628  16.760   2.156   7.642  0.0566  0.1508 -0.2190
  102loPI   C1B 1629  15.599   2.268   9.618 -0.1930  0.0872  0.0280
  102loPI   C2B 1630  15.700   2.477   9.226  0.0220  0.0066 -0.0263
  102loPI   C3B 1631  15.629   2.632   8.808 -0.1023  0.2370 -0.0825
  102loPI   C4B 1632  15.577   2.501   8.418 -0.1769 -0.1116 -0.3905
  103loPI    C1 1633  10.676  11.905  10.747 -0.0100  0.2586 -0.0856
  103loPI    C2 1634  10.670  11.535  10.595 -0.0335  0.1794  0.1051
  103loPI    C3 1635  10.371  11.660  10.829 -0.0869  0.3628 -0.0581
  103loPI   PO4 1636  10.685  12.026  10.476 -0.2234 -0.1780 -0.0155
  103loPI   GL1 1637  10.740  12.128  10.034 -0.2496 -0.0275 -0.0651
  103loPI   GL2 1638  11.019  12.374  10.124  0.2811  0.0121 -0.1687
  103loPI   C1A 1639  10.709  12.073   9.612 -0.0596 -0.0679 -0.2142
  103loPI   C2A 1640  10.709  12.349   9.193 -0.1647  0.1190 -0.1417
  103loPI   C3A 1641  10.419  12.482   8.953 -0.0292  0.1977 -0.1225
  103loPI   C4A 1642  10.031  12.677   8.637  0.0515  0.2061  0.1318
  103loPI   C5A 1643   9.732  13.007   8.696  0.0568 -0.0420  0.1505
  103loPI   C6A 1644   9.517  13.307   8.484  0.0777  0.0367 -0.1450
  103loPI   C1B 1645  11.095  12.467   9.719 -0.1017 -0.0365 -0.3505
  103loPI   C2B 1646  11.125  12.651   9.173 -0.2260  0.3501 -0.2918
  103loPI   C3B 1647  11.309  13.004   8.968  0.1376 -0.3160 -0.0738
  103loPI   C4B 1648  11.644  13.150   8.862 -0.0844 -0.2189 -0.2132
  104loPI    C1 1649  11.446   4.685  10.836  0.1045  0.1113 -0.2133
  104loPI    C2 1650  11.610   4.360  11.001 -0.0430  0.0171 -0.2509
  104loPI    C3 1651  11.268   4.506  11.146  0.0697  0.2100 -0.1761
  104loPI   PO4 1652  11.288   4.597  10.610 -0.2925  0.1385  0.3469
  104loPI   GL1 1653  11.275   4.598  10.135  0.0260  0.0906 -0.0334
  104loPI   GL2 1654  11.510   4.733   9.978 -0.0571 -0.0939 -0.1603
  104loPI   C1A 1655  11.113   4.402   9.679 -0.2443  0.3405  0.1350
  104loPI   C2A 1656  11.182   4.498   9.201  0.1466 -0.1485  0.0432
  104loPI   C3A 1657  11.020   4.561   8.830 -0.3396 -0.3337 -0.2166
  104loPI   C4A 1658  11.095   4.912   8.469  0.1982  0.0180 -0.0177
  104loPI   C5A 1659  11.383   5.072   8.077  0.1950 -0.0286  0.1413
  104loPI   C6A 1660  11.452   5.517   7.939 -0.0064  0.3265  0.0059
  104loPI   C1B 1661  11.597   4.589   9.541  0.1986  0.4592  0.2577
  104loPI   C2B 1662  11.615   4.730   9.148 -0.0672 -0.2187 -0.1587
  104loPI   C3B 1663  11.527   4.852   8.762  0.1283 -0.2479 -0.1852
  104loPI   C4B 1664  11.693   4.781   8.386 -0.1114 -0.0804 -0.0288
  105loPI    C1 1665   5.585  14.606  10.759 -0.2315 -0.1680 -0.2465
  105loPI    C2 1666   5.287  14.343  10.809 -0.0226 -0.3627  0.0037
  105loPI    C3 1667   5.326  14.651  11.061 -0.2131 -0.1395 -0.2350
  105loPI   PO4 1668   5.878  14.538  10.707 -0.3324 -0.2918  0.1254
  105loPI   GL1 1669   5.890  14.329  10.377 -0.1716 -0.1603 -0.1668
  105loPI   GL2 1670   5.572  14.226  10.387  0.0854  0.1575 -0.3178
  105loPI   C1A 1671   6.193  14.248  10.003 -0.4870 -0.1520  0.0933
  105loPI   C2A 1672   6.273  14.204   9.527  0.0026  0.1134 -0.0423
  105loPI   C3A 1673   6.153  13.961   9.227  0.0821  0.0762 -0.2847
  105loPI   C4A 1674   6.222  13.929   8.806  0.1173  0.2256 -0.0159
  105loPI   C5A 1675   6.124  13.722   8.408  0.0476 -0.1998 -0.1751
  105loPI   C6A 1676   6.174  13.386   8.121 -0.1845  0.2487  0.4310
  105loPI   C1B 1677   5.497  14.176  10.030  0.0120 -0.1286 -0.3629
  105loPI   C2B 1678   5.243  14.106   9.690  0.2164 -0.0656 -0.0087
  105loPI   C3B 1679   5.054  14.218   9.389  0.0159 -0.2949 -0.4192
  105loPI   C4B 1680   4.914  14.137   9.068 -0.0550  0.0551  0.3369
  106loPI    C1 1681   2.846   2.624  11.161 -0.1545  0.1851 -0.1380
  106loPI    C2 1682   3.039   2.974  11.144  0.0305  0.0993  0.1311
  106loPI    C3 1683   2.903   2.837  11.494 -0.1090 -0.0633  0.0153
  106loPI   PO4 1684   2.748   2.652  10.820  0.0878 -0.0401 -0.0351
  106loPI   GL1 1685   2.619   2.527  10.466  0.0357 -0.1283 -0.2266
  106loPI   GL2 1686   2.370   2.572  10.336 -0.2106  0.0980 -0.1142
  106loPI   C1A 1687   2.789   2.345  10.103 -0.3359  0.1866  0.0833
  106loPI   C2A 1688   2.798   2.237   9.796  0.2375  0.0360 -0.1603
  106loPI   C3A 1689   2.767   2.064   9.377 -0.1400 -0.0284  0.1286
  106loPI   C4A 1690   2.607   1.782   9.135  0.0231  0.0594  0.1057
  106loPI   C5A 1691   2.575   1.651   8.728 -0.0677 -0.0301 -0.2751
  106loPI   C6A 1692   2.525   1.528   8.270 -0.0040  0.1870 -0.0192
  106loPI   C1B 1693   2.294   2.584   9.889  0.0560  0.1341 -0.0173
  106loPI   C2B 1694   2.445   2.412   9.474  0.3262  0.1903  0.0582
  106loPI   C3B 1695   2.532   2.429   9.069 -0.2640  0.0253 -0.0505
  106loPI   C4B 1696   2.736   2.130   8.787 -0.1173 -0.0765  0.1234
  107loPI    C1 1697  10.880   9.642  10.874 -0.0446  0.0800  0.0548
  107loPI    C2 1698  11.135   9.504  11.150  0.0055 -0.0142 -0.0378
  107loPI    C3 1699  10.740   9.478  11.211  0.0162 -0.0783  0.0041
  107loPI   PO4 1700  10.949   9.833  10.749 -0.0084  0.1055  0.1794
  107loPI   GL1 1701  10.976   9.926  10.315  0.3013 -0.2974 -0.1979
  107loPI   GL2 1702  11.195   9.708  10.204 -0.5213 -0.0477 -0.0443
  107loPI   C1A 1703  10.705   9.933  10.041  0.1247 -0.0940  0.0022
  107loPI   C2A 1704  10.696   9.865   9.692  0.1207  0.1036  0.1095
  107loPI   C3A 1705  10.577   9.830   9.278  0.0238  0.0172  0.1675
  107loPI   C4A 1706  10.719   9.757   8.827  0.2559 -0.2718 -0.1423
  107loPI   C5A 1707  10.922   9.777   8.532  0.1777 -0.3466  0.1798
  107loPI   C6A 1708  11.134   9.850   8.170  0.1094  0.0546  0.0963
  107loPI   C1B 1709  11.338   9.671   9.810 -0.2276  0.0491  0.1634
  107loPI   C2B 1710  11.453   9.985   9.578 -0.2395 -0.1251  0.2314
  107loPI   C3B 1711  11.376  10.200   9.207 -0.1587  0.1647 -0.0454
  107loPI   C4B 1712  11.172  10.183   8.800 -0.0969 -0.0734 -0.2163
  108loPI    C1 1713  16.334   5.265  10.858  0.0100 -0.0656  0.1255
  108loPI    C2 1714  16.714   5.329  10.966  0.0751 -0.3461  0.0689
  108loPI    C3 1715  16.527   4.994  11.080 -0.0944 -0.2977 -0.0631
  108loPI   PO4 1716  16.286   5.322  10.641 -0.0960  0.3279  0.0682
  108loPI   GL1 1717  16.458   5.258  10.252  0.1371 -0.1270  0.1212
  108loPI   GL2 1718  16.583   5.656  10.129 -0.0793  0.2918 -0.0917
  108loPI   C1A 1719  16.249   5.222   9.964  0.1527 -0.1222 -0.0356
  108loPI   C2A 1720  16.044   5.221   9.533  0.0160  0.1752 -0.0882
  108loPI   C3A 1721  15.900   5.098   9.085 -0.0002 -0.2210  0.0947
  108loPI   C4A 1722  15.978   5.179   8.630 -0.2749  0.0846  0.1385
  108loPI   C5A 1723  16.202   5.009   8.348 -0.1226  0.0404 -0.0187
  108loPI   C6A 1724  16.462   5.039   7.992  0.0491 -0.1250  0.4239
  108loPI   C1B 1725  16.295   5.677   9.737 -0.0688 -0.0063  0.0777
  108loPI   C2B 1726  16.055   5.845   9.380  0.2220  0.0999  0.0677
  108loPI   C3B 1727  15.987   6.109   9.107  0.1378 -0.1425  0.2321
  108loPI   C4B 1728  16.038   6.224   8.675 -0.2038 -0.0930 -0.0791
  109loPI    C1 1729  13.903  15.126  10.754 -0.1476 -0.0037 -0.0270
  109loPI    C2 1730  13.885  14.808  10.997 -0.1247  0.1892  0.2308
  109loPI    C3 1731  14.155  15.097  11.063  0.1672  0.0450 -0.2739
  109loPI   PO4 1732  13.868  15.038  10.508  0.1365  0.0273 -0.2757
  109loPI   GL1 1733  13.991  14.754  10.140 -0.1320  0.1603  0.0651
  109loPI   GL2 1734  13.760  14.967  10.051 -0.1057  0.2296 -0.0877
  109loPI   C1A 1735  14.075  14.560   9.803 -0.3086 -0.0129 -0.0422
  109loPI   C2A 1736  14.125  14.630   9.414  0.1255 -0.1371 -0.1064
  109loPI   C3A 1737  13.941  14.704   9.076  0.1562  0.3847  0.0593
  109loPI   C4A 1738  13.777  14.543   8.680  0.1707 -0.1616 -0.1436
  109loPI   C5A 1739  13.771  14.353   8.306  0.0177  0.0165 -0.0996
  109loPI   C6A 1740  14.119  14.323   8.027  0.2642 -0.0817 -0.2090
  109loPI   C1B 1741  13.665  14.970   9.542 -0.0097  0.3698  0.2362
  109loPI   C2B 1742  13.596  15.054   9.095  0.2180 -0.4167 -0.2405
  109loPI   C3B 1743  13.379  15.233   8.664  0.4048 -0.2189  0.0534
  109loPI   C4B 1744  13.522  15.561   8.415 -0.4281  0.0822  0.2618
  110loPI    C1 1745   7.392   1.883  10.799  0.0394 -0.0255  0.0363
  110loPI    C2 1746   7.599   1.719  11.100 -0.0878 -0.1731  0.0449
  110loPI    C3 1747   7.354   2.027  11.171 -0.1470 -0.2326  0.0997
  110loPI   PO4 1748   7.328   1.740  10.658 -0.1225  0.1542 -0.0188
  110loPI   GL1 1749   7.270   1.739  10.198 -0.3790 -0.0650  0.0318
  110loPI   GL2 1750   7.592   1.922  10.023 -0.1286  0.0138  0.1710
  110loPI   C1A 1751   7.491   1.416   9.962 -0.0234  0.1950  0.0909
  110loPI   C2A 1752   7.601   1.215   9.592 -0.1387 -0.0984  0.2399
  110loPI   C3A 1753   7.552   1.162   9.191  0.0492 -0.1540  0.0449
  110loPI   C4A 1754   7.600   1.129   8.708 -0.0709  0.1763  0.1440
  110loPI   C5A 1755   7.759   0.997   8.251 -0.2324  0.0663 -0.2422
  110loPI   C6A 1756   8.100   0.761   8.077  0.1182  0.0410  0.1907
  110loPI   C1B 1757   7.229   1.746   9.683  0.1360 -0.2041 -0.0001
  110loPI   C2B 1758   7.247   1.588   9.332 -0.1867  0.1179 -0.0241
  110loPI   C3B 1759   7.343   1.550   8.937 -0.2384 -0.1200  0.0986
  110loPI   C4B 1760   7.333   1.576   8.456  0.3895 -0.3058  0.2613
  111loPI    C1 1761  14.454  10.023  10.531  0.0533 -0.0697  0.1845
  111loPI    C2 1762  14.457  10.422  10.555 -0.0963 -0.0623  0.0939
  111loPI    C3 1763  14.114  10.229  10.487  0.0219 -0.1875 -0.1595
  111loPI   PO4 1764  14.620   9.992  10.397 -0.1067  0.1490 -0.1483
  111loPI   GL1 1765  14.727   9.820  10.024  0.0980 -0.4035  0.0976
  111loPI   GL2 1766  14.752   9.553   9.935 -0.1650 -0.2156  0.2769
  111loPI   C1A 1767  14.689   9.956   9.613 -0.0632  0.0705 -0.1643
  111loPI   C2A 1768  14.734  10.131   9.317 -0.0299  0.3121 -0.1695
  111loPI   C3A 1769  14.561  10.269   8.925  0.0488  0.2186 -0.0127
  111loPI   C4A 1770  14.237  10.482   8.707  0.0337  0.1101  0.1936
  111loPI   C5A 1771  13.801  10.512   8.382 -0.0167 -0.0861 -0.0712
  111loPI   C6A 1772  13.382  10.452   8.622  0.0946  0.0741 -0.0094
  111loPI   C1B 1773  14.872   9.507   9.575  0.1235 -0.0363 -0.2445
  111loPI   C2B 1774  14.858   9.625   9.191  0.3699  0.2053  0.1019
  111loPI   C3B 1775  14.651   9.623   8.855 -0.1876 -0.5233 -0.1943
  111loPI   C4B 1776  14.504   9.930   8.576  0.0221  0.0229  0.0021
  112loPI    C1 1777  14.235  15.574  10.735  0.1570  0.1396  0.0466
  112loPI    C2 1778  14.257  15.625  11.131  0.0123  0.3153  0.0338
  112loPI    C3 1779  14.564  15.732  10.899  0.1880  0.0035  0.1163
  112loPI   PO4 1780  14.028  15.624  10.619 -0.2769  0.3320 -0.3129
  112loPI   GL1 1781  13.886  15.505  10.275  0.1530 -0.4143 -0.0752
  112loPI   GL2 1782  13.639  15.813  10.233  0.1948  0.3605  0.1892
  112loPI   C1A 1783  13.787  15.561   9.773 -0.1046  0.1816 -0.1123
  112loPI   C2A 1784  13.717  15.541   9.303 -0.2695 -0.1927  0.0530
  112loPI   C3A 1785  13.840  15.449   8.831 -0.0419  0.2854  0.2141
  112loPI   C4A 1786  13.811  15.019   8.678 -0.4587 -0.2933  0.0567
  112loPI   C5A 1787  13.642  14.810   8.285 -0.3123  0.1271  0.0562
  112loPI   C6A 1788  13.225  14.649   8.156  0.2596  0.2280  0.0402
  112loPI   C1B 1789  13.420  15.846   9.864  0.1232 -0.3027  0.0340
  112loPI   C2B 1790  13.371  15.843   9.466 -0.0593 -0.0694  0.2480
  112loPI   C3B 1791  13.358  15.688   8.995 -0.3560  0.0395 -0.2372
  112loPI   C4B 1792  13.173  15.922   8.622  0.2806  0.0166 -0.1071
  113loPI    C1 1793  17.104  11.137  10.723  0.0175 -0.0504  0.0112
  113loPI    C2 1794  17.328  11.251  11.035 -0.0302  0.0806 -0.0017
  113loPI    C3 1795  17.436  11.351  10.663  0.0252 -0.0734 -0.0279
  113loPI   PO4 1796  16.803  11.176  10.674 -0.2389 -0.0394 -0.0084
  113loPI   GL1 1797  16.726  10.943  10.232 -0.2426  0.0214 -0.1771
  113loPI   GL2 1798  16.503  11.179  10.152  0.0074 -0.2972 -0.0843
  113loPI   C1A 1799  16.932  10.971   9.915 -0.3122 -0.2226 -0.1485
  113loPI   C2A 1800  17.115  10.807   9.677  0.0044  0.0926 -0.1382
  113loPI   C3A 1801  17.130  10.670   9.153 -0.0311  0.0685  0.0863
  113loPI   C4A 1802  17.236  10.445   8.844 -0.2415 -0.1735 -0.0155
  113loPI   C5A 1803  17.291  10.288   8.445 -0.1466  0.0831  0.0456
  113loPI   C6A 1804  17.038  10.128   8.213 -0.1883 -0.0922 -0.0898
  113loPI   C1B 1805  16.516  11.002   9.716 -0.0237 -0.0745  0.2592
  113loPI   C2B 1806  16.680  11.102   9.342  0.0032 -0.0330  0.0412
  113loPI   C3B 1807  16.709  10.976   8.924 -0.1238  0.0572 -0.2456
  113loPI   C4B 1808  16.556  11.106   8.570 -0.1261  0.1035 -0.2302
  114loPI    C1 1809   2.240   6.525  11.059 -0.0210 -0.1349 -0.0919
  114loPI    C2 1810   2.066   6.185  11.177  0.0270 -0.1318 -0.0118
  114loPI    C3 1811   2.299   6.389  11.430 -0.0875  0.0169 -0.0249
  114loPI   PO4 1812   2.230   6.439  10.774  0.2366 -0.3979  0.3344
  114loPI   GL1 1813   2.377   6.603  10.350  0.0840  0.0362  0.0523
  114loPI   GL2 1814   2.700   6.524  10.187 -0.1771  0.0225 -0.1398
  114loPI   C1A 1815   2.256   6.628   9.949  0.1962  0.2230  0.0555
  114loPI   C2A 1816   2.371   6.730   9.580 -0.4233  0.0583 -0.0355
  114loPI   C3A 1817   2.510   6.948   9.279  0.0492  0.1887 -0.3124
  114loPI   C4A 1818   2.663   6.808   9.046  0.1414  0.0737  0.2711
  114loPI   C5A 1819   2.606   6.901   8.523 -0.2580  0.3061 -0.0965
  114loPI   C6A 1820   2.710   6.590   8.230  0.3189  0.0566  0.1645
  114loPI   C1B 1821   2.933   6.580   9.896  0.1681 -0.0495  0.2814
  114loPI   C2B 1822   2.944   6.671   9.466  0.0162 -0.0763  0.0686
  114loPI   C3B 1823   3.147   6.836   9.059 -0.1529  0.0436 -0.2892
  114loPI   C4B 1824   3.141   7.031   8.640  0.5200  0.3130  0.2987
  115loPI    C1 1825  11.643   2.401  10.258 -0.0981  0.2012 -0.1099
  115loPI    C2 1826  11.634   2.397  10.658  0.0297  0.0108 -0.1076
  115loPI    C3 1827  11.807   2.701  10.465  0.1865 -0.0173 -0.0125
  115loPI   PO4 1828  11.743   2.177  10.172 -0.0413 -0.3162 -0.2921
  115loPI   GL1 1829  11.660   1.791  10.095 -0.0036  0.0758  0.1804
  115loPI   GL2 1830  11.362   1.873   9.949  0.2236 -0.1316 -0.2141
  115loPI   C1A 1831  11.921   1.739   9.740  0.0522  0.0238 -0.1675
  115loPI   C2A 1832  12.167   1.627   9.450  0.0900 -0.1291  0.0819
  115loPI   C3A 1833  12.476   1.577   9.114  0.1868 -0.2410 -0.3965
  115loPI   C4A 1834  12.398   1.662   8.758  0.1027  0.0066 -0.0197
  115loPI   C5A 1835  12.310   1.476   8.302  0.2089  0.0449 -0.0625
  115loPI   C6A 1836  12.349   1.427   7.870  0.0218 -0.0129  0.0840
  115loPI   C1B 1837  11.530   1.790   9.485 -0.0587  0.0591  0.2094
  115loPI   C2B 1838  11.705   1.808   9.221  0.1666  0.0910  0.2653
  115loPI   C3B 1839  11.923   1.457   8.938  0.1404 -0.1915 -0.2237
  115loPI   C4B 1840  11.959   1.218   8.598  0.0050 -0.2515 -0.2411
  116loPI    C1 1841   7.530   9.554  10.081  0.0734 -0.1169 -0.0564
  116loPI    C2 1842   7.679   9.591  10.451 -0.1738 -0.2457  0.0583
  116loPI    C3 1843   7.867   9.762  10.141  0.1056 -0.2465  0.2244
  116loPI   PO4 1844   7.465   9.334  10.072  0.0340 -0.0583  0.3928
  116loPI   GL1 1845   7.540   9.019   9.813  0.3942 -0.2596 -0.2365
  116loPI   GL2 1846   7.256   8.895   9.727  0.0653 -0.1140 -0.0886
  116loPI   C1A 1847   7.594   9.147   9.395 -0.1995  0.1838  0.2918
  116loPI   C2A 1848   7.845   9.190   9.068 -0.0455 -0.1540 -0.0454
  116loPI   C3A 1849   7.813   9.243   8.674 -0.0873 -0.0428  0.1204
  116loPI   C4A 1850   7.772   8.901   8.370  0.0466 -0.2090 -0.0830
  116loPI   C5A 1851   7.766   8.725   7.971  0.1416  0.1333 -0.3354
  116loPI   C6A 1852   7.878   8.526   7.530  0.0734 -0.1863 -0.0469
  116loPI   C1B 1853   7.175   8.715   9.280 -0.3290  0.3546 -0.0494
  116loPI   C2B 1854   7.053   8.576   8.983 -0.2407 -0.0554 -0.0638
  116loPI   C3B 1855   6.848   8.418   8.705  0.1886  0.0461 -0.0318
  116loPI   C4B 1856   6.769   8.477   8.283  0.0831 -0.1578 -0.1513
  117loPI    C1 1857   0.786  10.761  11.109  0.0232 -0.0306  0.1827
  117loPI    C2 1858   0.540  10.641  11.401 -0.1379  0.1018  0.1028
  117loPI    C3 1859   0.869  10.851  11.490 -0.0148 -0.1360  0.2161
  117loPI   PO4 1860   0.785  10.676  10.916  0.0252  0.1446 -0.2749
  117loPI   GL1 1861   0.616  10.545  10.604 -0.1746 -0.5888  0.0683
  117loPI   GL2 1862   0.785  10.269  10.574 -0.0855  0.0128 -0.2580
  117loPI   C1A 1863   0.518  10.686  10.191  0.0726  0.0692  0.4135
  117loPI   C2A 1864   0.526  10.537   9.725 -0.2968  0.0024  0.2456
  117loPI   C3A 1865   0.463  10.331   9.328 -0.3216  0.0875 -0.1958
  117loPI   C4A 1866   0.546  10.057   9.026  0.1580  0.2947 -0.0016
  117loPI   C5A 1867   0.601   9.621   8.711 -0.2565  0.2526  0.0585
  117loPI   C6A 1868   0.075   9.379   8.641 -0.1239  0.0255  0.1512
  117loPI   C1B 1869   0.651  10.200  10.183  0.2014 -0.1523 -0.1212
  117loPI   C2B 1870   0.701  10.061   9.739  0.1576  0.0230  0.3190
  117loPI   C3B 1871   0.916  10.117   9.414  0.0789  0.0600  0.1822
  117loPI   C4B 1872   1.085  10.320   8.979  0.2170 -0.1175  0.4320
  118loPI    C1 1873  13.269   1.042   9.998 -0.1582 -0.1301 -0.0479
  118loPI    C2 1874  13.032   1.140  10.305 -0.1040 -0.1610  0.0044
  118loPI    C3 1875  12.949   1.273   9.937 -0.1255 -0.0593  0.0457
  118loPI   PO4 1876  13.502   1.122  10.002  0.1826 -0.0446 -0.0191
  118loPI   GL1 1877  13.764   1.101   9.690  0.2485  0.0598  0.0520
  118loPI   GL2 1878  13.764   0.796   9.782  0.2425  0.2051  0.1204
  118loPI   C1A 1879  13.780   1.145   9.290  0.1217 -0.1259 -0.1298
  118loPI   C2A 1880  13.656   0.950   8.922 -0.2908  0.0787  0.4060
  118loPI   C3A 1881  13.670   1.108   8.518  0.0246  0.1131  0.1871
  118loPI   C4A 1882  13.527   1.154   8.122  0.1413  0.1290  0.0291
  118loPI   C5A 1883  13.613   1.344   7.736 -0.2113  0.0239  0.0026
  118loPI   C6A 1884  13.920   1.277   7.410 -0.2876  0.0181 -0.1056
  118loPI   C1B 1885  13.862   0.676   9.476 -0.0078 -0.1597  0.0419
  118loPI   C2B 1886  13.865   0.488   9.020 -0.4068 -0.1075 -0.0086
  118loPI   C3B 1887  13.975   0.232   8.622 -0.2941 -0.0520  0.1001
  118loPI   C4B 1888  14.282   0.166   8.243 -0.3132 -0.1400  0.1320
  119loPI    C1 1889   3.342  13.615  10.734 -0.1398  0.1838  0.2959
  119loPI    C2 1890   3.352  13.246  10.889 -0.1251  0.1739  0.2713
  119loPI    C3 1891   3.693  13.439  10.808 -0.1292  0.0617 -0.0276
  119loPI   PO4 1892   3.116  13.593  10.509  0.0258 -0.2943  0.1524
  119loPI   GL1 1893   3.139  13.821  10.100  0.0484 -0.1075 -0.1013
  119loPI   GL2 1894   2.942  13.996  10.065  0.2663  0.2617  0.0888
  119loPI   C1A 1895   3.267  13.494   9.818 -0.4074  0.0312 -0.0388
  119loPI   C2A 1896   3.307  13.306   9.446 -0.2069 -0.0381  0.1791
  119loPI   C3A 1897   3.217  13.136   8.958  0.1575  0.3274  0.0026
  119loPI   C4A 1898   3.228  13.024   8.480  0.0823 -0.5157 -0.2823
  119loPI   C5A 1899   3.363  12.802   8.159  0.3281 -0.2867 -0.1143
  119loPI   C6A 1900   3.464  12.499   7.851  0.0899  0.0608 -0.2010
  119loPI   C1B 1901   3.132  13.967   9.671  0.3210 -0.0004 -0.0506
  119loPI   C2B 1902   3.085  13.747   9.219  0.1465  0.1272  0.1586
  119loPI   C3B 1903   2.970  13.633   8.810 -0.2651 -0.1765  0.2288
  119loPI   C4B 1904   2.876  13.438   8.467 -0.0493 -0.2676  0.1780
  120loPI    C1 1905   9.143   6.084  10.428 -0.1509 -0.0815 -0.0944
  120loPI    C2 1906   9.044   5.812  10.704 -0.0040 -0.2853 -0.2393
  120loPI    C3 1907   9.004   6.202  10.784 -0.2922 -0.3490 -0.0583
  120loPI   PO4 1908   8.950   6.112  10.232 -0.1339  0.1676  0.1239
  120loPI   GL1 1909   9.148   6.152   9.877 -0.0699 -0.1925  0.1373
  120loPI   GL2 1910   9.372   6.364   9.802  0.1257 -0.2951 -0.1763
  120loPI   C1A 1911   9.132   6.000   9.509 -0.2862  0.0454 -0.1400
  120loPI   C2A 1912   9.232   6.081   9.039  0.0441  0.0585 -0.0278
  120loPI   C3A 1913   9.268   6.018   8.633 -0.0891 -0.0613  0.1894
  120loPI   C4A 1914   9.426   5.789   8.467 -0.0906 -0.1441  0.1076
  120loPI   C5A 1915   9.386   5.672   8.002 -0.1320 -0.1333  0.1658
  120loPI   C6A 1916   9.227   5.347   7.878  0.1842 -0.1473 -0.0541
  120loPI   C1B 1917   9.486   6.395   9.346  0.0689 -0.0985 -0.2210
  120loPI   C2B 1918   9.543   6.534   8.938 -0.0945  0.1077 -0.2333
  120loPI   C3B 1919   9.375   6.501   8.614  0.2406 -0.0437  0.0988
  120loPI   C4B 1920   9.423   6.689   8.226 -0.0696 -0.0259  0.0301
  121loPI    C1 1921   8.659  13.062  10.745 -0.1378 -0.0014  0.0104
  121loPI    C2 1922   8.442  12.781  10.930  0.4347 -0.1862  0.4335
  121loPI    C3 1923   8.455  13.153  11.077 -0.2122  0.0482 -0.0484
  121loPI   PO4 1924   8.550  13.079  10.521  0.3341  0.1339  0.1719
  121loPI   GL1 1925   8.527  12.935  10.085 -0.0604 -0.0116 -0.0646
  121loPI   GL2 1926   8.783  13.087  10.053 -0.0751 -0.1099  0.4529
  121loPI   C1A 1927   8.307  12.936   9.634  0.0440  0.0775  0.0697
  121loPI   C2A 1928   8.283  12.745   9.244 -0.1367 -0.0177  0.0804
  121loPI   C3A 1929   8.205  12.943   8.959 -0.2274 -0.5631 -0.0392
  121loPI   C4A 1930   8.345  13.128   8.594  0.0726 -0.0938 -0.3421
  121loPI   C5A 1931   8.457  13.419   8.252 -0.0812  0.1927 -0.1047
  121loPI   C6A 1932   8.152  13.868   8.197  0.1303 -0.2004  0.0121
  121loPI   C1B 1933   8.658  13.327   9.637 -0.1400  0.0250  0.0424
  121loPI   C2B 1934   8.759  13.561   9.243  0.4560  0.0471  0.0018
  121loPI   C3B 1935   8.930  13.827   8.833 -0.0411  0.0244 -0.1418
  121loPI   C4B 1936   9.306  13.768   8.496 -0.0180 -0.1410 -0.0422
  122loPI    C1 1937  12.565  10.696  10.996 -0.0399  0.0762  0.0843
  122loPI    C2 1938  12.427  10.411  11.241 -0.0200  0.0019  0.0097
  122loPI    C3 1939  12.211  10.742  11.176 -0.1423 -0.0933 -0.0706
  122loPI   PO4 1940  12.621  10.601  10.777 -0.0214  0.0764  0.1534
  122loPI   GL1 1941  12.698  10.743  10.438  0.0495  0.3147  0.0530
  122loPI   GL2 1942  13.010  10.751  10.217  0.4681  0.1673 -0.0929
  122loPI   C1A 1943  12.655  11.098  10.208 -0.2694  0.1003 -0.1127
  122loPI   C2A 1944  12.653  11.231   9.764  0.0174  0.0598  0.0668
  122loPI   C3A 1945  12.555  11.372   9.417  0.0349  0.0760 -0.0040
  122loPI   C4A 1946  12.363  11.286   9.048 -0.1095 -0.1751 -0.0513
  122loPI   C5A 1947  12.291  11.239   8.531 -0.0857  0.2161 -0.0704
  122loPI   C6A 1948  12.136  10.812   8.390 -0.2496 -0.2315 -0.0186
  122loPI   C1B 1949  12.781  10.738   9.777  0.1318 -0.0109 -0.1531
  122loPI   C2B 1950  12.694  10.823   9.364  0.1451 -0.2377 -0.3589
  122loPI   C3B 1951  12.705  10.690   8.995  0.2282 -0.0446  0.0486
  122loPI   C4B 1952  12.447  10.814   8.766  0.0896 -0.2449  0.1016
  123loPI    C1 1953   6.708   5.348  10.489 -0.0266 -0.0893  0.2538
  123loPI    C2 1954   6.326   5.256  10.412  0.0331 -0.2155  0.1025
  123loPI    C3 1955   6.441   5.336  10.787 -0.1594 -0.0891  0.1364
  123loPI   PO4 1956   6.690   5.332  10.103 -0.0412  0.3308  0.2607
  123loPI   GL1 1957   6.313   5.445   9.888 -0.1689 -0.1393  0.4539
  123loPI   GL2 1958   6.622   5.715   9.771 -0.1315  0.0694 -0.1968
  123loPI   C1A 1959   6.132   5.210   9.576  0.0082 -0.0887 -0.0091
  123loPI   C2A 1960   6.123   4.818   9.199  0.3118  0.1082 -0.0818
  123loPI   C3A 1961   5.874   4.531   8.896  0.0224 -0.0276 -0.2059
  123loPI   C4A 1962   5.923   4.205   8.625 -0.0969 -0.2215 -0.1777
  123loPI   C5A 1963   5.807   3.925   8.350 -0.4801 -0.1252  0.1507
  123loPI   C6A 1964   5.884   3.762   7.964  0.1978  0.0523  0.1727
  123loPI   C1B 1965   6.430   5.597   9.361 -0.1471 -0.3301 -0.1789
  123loPI   C2B 1966   6.781   5.605   8.986  0.0747 -0.3332 -0.1436
  123loPI   C3B 1967   6.913   5.656   8.584  0.1685  0.1623 -0.0152
  123loPI   C4B 1968   7.025   5.550   8.132 -0.0422  0.1253 -0.1193
  124loPI    C1 1969   9.307   7.402  10.590 -0.2019  0.1858  0.0113
  124loPI    C2 1970   9.350   7.592  10.939 -0.2708  0.0461  0.0964
  124loPI    C3 1971   9.268   7.200  10.933 -0.2834  0.0507 -0.0763
  124loPI   PO4 1972   9.517   7.493  10.379 -0.1123  0.0906  0.0209
  124loPI   GL1 1973   9.553   7.461  10.020 -0.0946 -0.0447  0.0149
  124loPI   GL2 1974   9.757   7.677   9.873  0.0413  0.0441 -0.1764
  124loPI   C1A 1975   9.620   7.234   9.678 -0.1299 -0.0186  0.1739
  124loPI   C2A 1976   9.706   7.246   9.254  0.3395  0.1175  0.0537
  124loPI   C3A 1977   9.643   7.431   8.940  0.1711  0.0298  0.2587
  124loPI   C4A 1978   9.891   7.380   8.474  0.1513  0.0956  0.1806
  124loPI   C5A 1979   9.650   7.592   8.114 -0.0210  0.1806 -0.0967
  124loPI   C6A 1980   9.327   7.925   7.956  0.0530  0.0571 -0.0211
  124loPI   C1B 1981   9.556   7.753   9.457 -0.2669  0.2626 -0.2075
  124loPI   C2B 1982   9.508   7.877   9.103 -0.0469 -0.1637 -0.0001
  124loPI   C3B 1983   9.396   8.234   8.747 -0.1628 -0.0010  0.0538
  124loPI   C4B 1984   9.563   8.453   8.377  0.4571 -0.0289  0.1468
  125loPI    C1 1985  11.254   4.124  10.559  0.0783  0.0744 -0.0603
  125loPI    C2 1986  10.936   4.262  10.759  0.1699  0.1137  0.0594
  125loPI    C3 1987  11.232   4.078  10.955  0.1501 -0.0606 -0.0714
  125loPI   PO4 1988  11.162   4.141  10.319  0.1503 -0.0715 -0.0707
  125loPI   GL1 1989  11.339   3.963   9.943 -0.0993  0.4623 -0.0411
  125loPI   GL2 1990  11.106   3.878   9.763  0.2648  0.0779 -0.0979
  125loPI   C1A 1991  11.479   4.102   9.469 -0.0597  0.0716 -0.0466
  125loPI   C2A 1992  11.580   4.204   9.035 -0.2295  0.0107  0.2645
  125loPI   C3A 1993  11.550   4.386   8.725  0.0132 -0.1981 -0.0028
  125loPI   C4A 1994  11.286   4.483   8.380  0.0763 -0.2844 -0.2124
  125loPI   C5A 1995  11.107   4.603   7.899  0.2164 -0.0528 -0.2804
  125loPI   C6A 1996  10.788   4.666   7.553 -0.1096 -0.2975  0.1011
  125loPI   C1B 1997  11.004   4.063   9.341  0.2045  0.0164 -0.3209
  125loPI   C2B 1998  10.958   4.083   8.943  0.2525  0.1402 -0.2490
  125loPI   C3B 1999  10.800   4.181   8.545  0.2951  0.1687 -0.0347
  125loPI   C4B 2000  10.677   4.586   8.335  0.0840  0.1007  0.1282
  126loPI    C1 2001   0.950  12.212  10.742 -0.1639  0.1554 -0.1754
  126loPI    C2 2002   0.804  11.996  11.046  0.1096  0.1152 -0.0701
  126loPI    C3 2003   0.696  12.378  11.002 -0.1695  0.0343 -0.1025
  126loPI   PO4 2004   0.972  12.108  10.536 -0.2195 -0.0120  0.0854
  126loPI   GL1 2005   1.111  11.749  10.247  0.1438 -0.3347  0.0651
  126loPI   GL2 2006   1.159  12.119  10.072 -0.1323  0.1545 -0.2755
  126loPI   C1A 2007   0.767  11.650   9.861 -0.1622 -0.0156 -0.0395
  126loPI   C2A 2008   0.530  11.544   9.471 -0.3432 -0.0986 -0.1961
  126loPI   C3A 2009   0.395  11.451   9.097 -0.2752  0.0187 -0.0483
  126loPI   C4A 2010   0.183  11.752   8.816 -0.0074 -0.0758  0.1599
  126loPI   C5A 2011  -0.112  12.037   8.537 -0.1405  0.1728  0.0292
  126loPI   C6A 2012  -0.080  12.229   8.150  0.2159 -0.0378  0.1319
  126loPI   C1B 2013   1.114  11.956   9.673 -0.1490 -0.3779 -0.0735
  126loPI   C2B 2014   0.969  11.704   9.377 -0.0584  0.0625 -0.4458
  126loPI   C3B 2015   0.873  11.635   8.938  0.1386 -0.4166  0.0660
  126loPI   C4B 2016   0.970  11.298   8.669  0.0833  0.0631  0.0470
  127loPI    C1 2017  14.320  14.677  10.760  0.0911 -0.0009  0.2058
  127loPI    C2 2018  14.204  14.426  11.049  0.1812 -0.0357  0.2121
  127loPI    C3 2019  14.592  14.510  11.002  0.1778 -0.1157  0.0310
  127loPI   PO4 2020  14.216  14.612  10.561  0.0831 -0.1373 -0.1842
  127loPI   GL1 2021  14.226  14.243  10.279 -0.3146  0.2867 -0.1590
  127loPI   GL2 2022  14.090  13.907  10.315 -0.2635 -0.2898  0.0641
  127loPI   C1A 2023  14.484  14.214   9.968 -0.1719  0.1564 -0.4732
  127loPI   C2A 2024  14.560  14.329   9.593 -0.1454 -0.0696  0.0297
  127loPI   C3A 2025  14.612  14.466   9.221  0.3478  0.1021 -0.1239
  127loPI   C4A 2026  14.345  14.541   8.819 -0.1074 -0.2647  0.0076
  127loPI   C5A 2027  14.141  14.685   8.412 -0.1355  0.0117  0.0697
  127loPI   C6A 2028  14.217  15.001   8.139 -0.0498  0.1476 -0.2127
  127loPI   C1B 2029  13.895  14.037   9.965  0.3403  0.0610  0.0782
  127loPI   C2B 2030  13.884  14.210   9.495 -0.0114 -0.3390  0.0110
  127loPI   C3B 2031  13.813  14.167   9.068  0.1594 -0.1328  0.1060
  127loPI   C4B 2032  13.581  14.090   8.673 -0.2250  0.1658  0.1058
  128loPI    C1 2033  13.656   4.740  10.604 -0.1414  0.1260  0.0362
  128loPI    C2 2034  13.676   4.626  10.987 -0.3206  0.0561  0.0258
  128loPI    C3 2035  14.010   4.720  10.788 -0.2174 -0.0009  0.1707
  128loPI   PO4 2036  13.445   4.528  10.527 -0.3387 -0.0627 -0.1096
  128loPI   GL1 2037  13.381   4.383  10.186 -0.0335  0.2020  0.0108
  128loPI   GL2 2038  13.611   4.204  10.124  0.1201  0.2530  0.2039
  128loPI   C1A 2039  13.583   4.693   9.943  0.0129 -0.1209  0.1029
  128loPI   C2A 2040  13.803   4.850   9.596 -0.1591  0.0433 -0.0418
  128loPI   C3A 2041  13.700   5.012   9.228  0.1067  0.0496 -0.2782
  128loPI   C4A 2042  13.690   5.299   8.981  0.1610 -0.0031 -0.1495
  128loPI   C5A 2043  13.624   5.351   8.554  0.0821 -0.2489  0.0231
  128loPI   C6A 2044  13.495   5.678   8.233  0.2429 -0.0870  0.1216
  128loPI   C1B 2045  13.395   4.241   9.681 -0.1647 -0.1422 -0.1157
  128loPI   C2B 2046  13.447   4.151   9.227  0.0698 -0.0081  0.0418
  128loPI   C3B 2047  13.366   4.011   8.788  0.1373  0.1119 -0.0393
  128loPI   C4B 2048  13.076   3.932   8.541  0.1419 -0.0709  0.0752
  129loPI    C1 2049  13.716  17.021  10.681 -0.0783 -0.1776  0.0213
  129loPI    C2 2050  13.321  17.007  10.744 -0.0943 -0.0830 -0.0555
  129loPI    C3 2051  13.552  16.700  10.854 -0.1785 -0.1044  0.0637
  129loPI   PO4 2052  13.793  17.213  10.456  0.0113 -0.2752 -0.2213
  129loPI   GL1 2053  13.897  17.119  10.047  0.1266 -0.2517 -0.2068
  129loPI   GL2 2054  14.215  17.095  10.204  0.2847 -0.1941  0.4417
  129loPI   C1A 2055  13.946  16.998   9.669  0.3175 -0.1259 -0.0864
  129loPI   C2A 2056  13.840  17.184   9.314  0.3004 -0.0268 -0.0139
  129loPI   C3A 2057  13.617  17.096   8.930 -0.3071  0.1074 -0.2406
  129loPI   C4A 2058  13.633  16.942   8.527 -0.1547  0.4115 -0.2860
  129loPI   C5A 2059  13.764  16.716   8.165  0.0596 -0.2771  0.1437
  129loPI   C6A 2060  13.503  16.392   7.914 -0.0731  0.0558  0.1310
  129loPI   C1B 2061  14.345  16.783   9.912  0.1422  0.1703  0.2454
  129loPI   C2B 2062  14.380  16.674   9.383  0.0499 -0.1296 -0.0307
  129loPI   C3B 2063  14.155  16.829   9.025  0.0561 -0.0250 -0.0053
  129loPI   C4B 2064  14.162  16.738   8.600  0.2769 -0.2752 -0.0367
  130loPI    C1 2065  17.468  14.947  10.896  0.1750 -0.1334 -0.2900
  130loPI    C2 2066  17.576  14.665  11.158 -0.0054 -0.1060 -0.1849
  130loPI    C3 2067  17.475  15.030  11.287 -0.0117 -0.0668 -0.2998
  130loPI   PO4 2068  17.497  14.771  10.605  0.1497 -0.1303  0.2136
  130loPI   GL1 2069  17.765  14.764  10.265 -0.2209 -0.2601  0.1624
  130loPI   GL2 2070  18.052  14.658  10.294 -0.2260 -0.3655 -0.1070
  130loPI   C1A 2071  17.624  14.688   9.894 -0.0778  0.1190 -0.1273
  130loPI   C2A 2072  17.558  14.634   9.474 -0.0419 -0.0115 -0.1508
  130loPI   C3A 2073  17.700  14.467   9.101 -0.0601 -0.1307  0.2800
  130loPI   C4A 2074  17.531  14.164   8.660  0.0225  0.2220 -0.2184
  130loPI   C5A 2075  17.674  13.889   8.341  0.1004  0.1825  0.0070
  130loPI   C6A 2076  17.482  13.604   8.002 -0.0542 -0.0914  0.2006
  130loPI   C1B 2077  18.209  14.337   9.948 -0.0748 -0.0292 -0.1355
  130loPI   C2B 2078  18.319  14.202   9.470  0.4169 -0.0833  0.3927
  130loPI   C3B 2079  18.547  14.169   9.102  0.1921  0.2740 -0.0292
  130loPI   C4B 2080  18.278  14.201   8.637 -0.2217 -0.1319  0.1308
  131loPI    C1 2081  10.327  13.826  11.000 -0.0470  0.0404 -0.3093
  131loPI    C2 2082  10.150  14.178  10.929 -0.1181  0.0135 -0.2665
  131loPI    C3 2083  10.360  14.123  11.265 -0.2008 -0.0207 -0.2201
  131loPI   PO4 2084  10.266  13.710  10.745 -0.1982  0.2436 -0.0829
  131loPI   GL1 2085  10.143  13.999  10.404 -0.2075  0.0370 -0.0469
  131loPI   GL2 2086   9.913  14.110  10.371  0.1008 -0.1956  0.1094
  131loPI   C1A 2087  10.109  13.801   9.957 -0.2187  0.3250  0.1149
  131loPI   C2A 2088  10.166  13.666   9.512 -0.2046 -0.1111 -0.4181
  131loPI   C3A 2089  10.102  13.831   9.164 -0.1854  0.0710 -0.1800
  131loPI   C4A 2090  10.181  13.855   8.800  0.1568  0.3582 -0.0603
  131loPI   C5A 2091  10.596  13.951   8.634  0.1574  0.1035  0.0609
  131loPI   C6A 2092  10.908  14.148   8.442 -0.0004  0.1017 -0.0308
  131loPI   C1B 2093   9.898  14.223   9.892  0.0280 -0.2599 -0.0659
  131loPI   C2B 2094   9.906  14.167   9.460  0.0663 -0.0903 -0.4070
  131loPI   C3B 2095   9.732  14.079   9.002 -0.1762  0.0958 -0.1032
  131loPI   C4B 2096   9.604  14.148   8.575 -0.0019  0.0701  0.1317
  132loPI    C1 2097  13.868   5.212  10.618 -0.1117 -0.0023  0.0144
  132loPI    C2 2098  13.959   5.495  10.886  0.0652  0.0768 -0.1270
  132loPI    C3 2099  13.827   5.138  11.009 -0.2150  0.2376  0.0509
  132loPI   PO4 2100  14.085   5.195  10.509 -0.0315 -0.0247 -0.0447
  132loPI   GL1 2101  14.293   5.418  10.202  0.0412 -0.0576 -0.0187
  132loPI   GL2 2102  14.362   5.027  10.155  0.0722  0.1644 -0.0510
  132loPI   C1A 2103  14.453   5.526   9.773 -0.2246  0.1841  0.0525
  132loPI   C2A 2104  14.493   5.451   9.489 -0.0007 -0.0692  0.0852
  132loPI   C3A 2105  14.647   5.394   9.129  0.0061 -0.3077 -0.0796
  132loPI   C4A 2106  14.945   5.519   8.884 -0.0921  0.0924  0.1018
  132loPI   C5A 2107  15.321   5.678   8.588  0.0052  0.0641  0.3627
  132loPI   C6A 2108  15.565   5.819   8.220 -0.1108 -0.1091 -0.1346
  132loPI   C1B 2109  14.267   4.975   9.776  0.1810 -0.0129  0.1270
  132loPI   C2B 2110  14.205   5.040   9.246  0.0975  0.1479  0.2398
  132loPI   C3B 2111  14.159   4.987   8.861  0.1966 -0.0616 -0.0452
  132loPI   C4B 2112  14.143   5.095   8.360 -0.2186  0.0845 -0.2895
  133loPI    C1 2113  18.069   8.733  11.158  0.0929 -0.1305 -0.0463
  133loPI    C2 2114  17.696   8.627  11.255  0.0855 -0.2470 -0.1983
  133loPI    C3 2115  17.759   8.948  11.024  0.1093  0.1082  0.2879
  133loPI   PO4 2116  18.282   8.459  11.117  0.2875  0.0404 -0.0093
  133loPI   GL1 2117  18.439   8.426  10.854  0.1514 -0.1835 -0.2355
  133loPI   GL2 2118  18.415   8.850  10.767  0.1447  0.0456  0.1069
  133loPI   C1A 2119  18.422   8.408  10.413  0.1332  0.1141  0.3769
  133loPI   C2A 2120  18.393   8.305   9.983 -0.2222  0.1840 -0.0510
  133loPI   C3A 2121  18.315   8.036   9.663 -0.0668 -0.2070 -0.2337
  133loPI   C4A 2122  18.372   7.838   9.295  0.3507 -0.3967 -0.0447
  133loPI   C5A 2123  18.249   7.916   8.912  0.1733 -0.1633  0.2142
  133loPI   C6A 2124  18.136   8.285   8.758 -0.5160  0.1194 -0.1368
  133loPI   C1B 2125  18.354   8.836  10.296 -0.0207  0.0051 -0.1801
  133loPI   C2B 2126  18.538   8.832   9.824 -0.0676  0.0864  0.1872
  133loPI   C3B 2127  18.442   8.660   9.427  0.2512 -0.0474  0.0670
  133loPI   C4B 2128  18.123   8.668   9.097 -0.3267  0.0940 -0.0154
  134loPI    C1 2129   9.484   0.413  10.789  0.0969 -0.0265  0.2309
  134loPI    C2 2130   9.469   0.507  11.178 -0.5284 -0.0477  0.2217
  134loPI    C3 2131   9.309   0.753  10.906  0.0335  0.0383 -0.0459
  134loPI   PO4 2132   9.391   0.185  10.819 -0.1237  0.0147  0.1129
  134loPI   GL1 2133   9.335  -0.034  10.467 -0.2439  0.1908  0.1473
  134loPI   GL2 2134   9.135   0.045  10.323 -0.1530  0.0441 -0.0659
  134loPI   C1A 2135   9.628  -0.248  10.086  0.1374 -0.1327 -0.3246
  134loPI   C2A 2136   9.640  -0.228   9.723  0.0200 -0.1148 -0.1846
  134loPI   C3A 2137   9.604  -0.334   9.357 -0.5029  0.1101 -0.0496
  134loPI   C4A 2138   9.675  -0.152   8.919 -0.3483 -0.1091 -0.0788
  134loPI   C5A 2139   9.414  -0.103   8.564 -0.3983  0.0680  0.2448
  134loPI   C6A 2140   9.499   0.131   8.236  0.0694 -0.0881 -0.1595
  134loPI   C1B 2141   8.851  -0.162   9.925  0.0165 -0.0917  0.1485
  134loPI   C2B 2142   8.479  -0.311   9.812 -0.2227  0.0433  0.2679
  134loPI   C3B 2143   8.339  -0.423   9.434 -0.1644  0.2941  0.3769
  134loPI   C4B 2144   8.478  -0.495   9.045  0.0710  0.0447  0.0445
  135loPI    C1 2145  15.595   3.732  10.836 -0.1918  0.3563  0.2751
  135loPI    C2 2146  15.324   3.699  11.128 -0.1104 -0.0003  0.3151
  135loPI    C3 2147  15.462   3.371  10.945 -0.0061  0.2057  0.0163
  135loPI   PO4 2148  15.558   4.023  10.760  0.4554 -0.1172  0.6001
  135loPI   GL1 2149  15.557   4.456  10.551  0.3153 -0.2865  0.0165
  135loPI   GL2 2150  15.353   4.216  10.356  0.1888  0.4307  0.3366
  135loPI   C1A 2151  15.763   4.417  10.129  0.1240 -0.0010  0.1564
  135loPI   C2A 2152  15.861   4.209   9.737 -0.0477  0.0137  0.2556
  135loPI   C3A 2153  15.978   4.304   9.366 -0.0107  0.1871  0.1467
  135loPI   C4A 2154  16.016   4.474   9.009  0.2595  0.0945  0.3124
  135loPI   C5A 2155  16.204   4.624   8.707  0.3562  0.1664 -0.3491
  135loPI   C6A 2156  16.397   4.496   8.274  0.3542  0.0905 -0.2244
  135loPI   C1B 2157  15.317   4.035   9.933  0.0318 -0.1062 -0.0836
  135loPI   C2B 2158  15.316   3.846   9.586  0.2188  0.1012  0.2205
  135loPI   C3B 2159  15.215   3.832   9.112  0.2334  0.2757 -0.1940
  135loPI   C4B 2160  15.129   3.596   8.737 -0.2276 -0.2228  0.0828
  136loPI    C1 2161   0.851   9.536  11.002  0.3413 -0.0860 -0.1138
  136loPI    C2 2162   0.710   9.171  10.921  0.3360 -0.1090 -0.0022
  136loPI    C3 2163   0.779   9.279  11.300  0.2988  0.0202 -0.0319
  136loPI   PO4 2164   0.860   9.617  10.749 -0.1906 -0.0435  0.3508
  136loPI   GL1 2165   0.882   9.374  10.435 -0.0984  0.1270  0.0073
  136loPI   GL2 2166   0.622   9.303  10.452 -0.0010 -0.1321 -0.1273
  136loPI   C1A 2167   0.913   9.497   9.985  0.0771  0.0279 -0.1276
  136loPI   C2A 2168   1.044   9.596   9.533 -0.2671  0.0164 -0.1241
  136loPI   C3A 2169   1.001   9.789   9.092  0.2897  0.0884 -0.1112
  136loPI   C4A 2170   0.959  10.006   8.613 -0.0451 -0.1106 -0.0651
  136loPI   C5A 2171   1.190  10.367   8.543 -0.3045 -0.1444  0.1072
  136loPI   C6A 2172   1.487  10.462   8.733 -0.0410 -0.0437  0.1061
  136loPI   C1B 2173   0.500   9.263  10.003  0.2058 -0.2542  0.1885
  136loPI   C2B 2174   0.607   9.209   9.520  0.0427  0.1468  0.0349
  136loPI   C3B 2175   0.730   9.342   9.124  0.0935 -0.2007  0.0699
  136loPI   C4B 2176   0.996   9.348   8.795  0.4139 -0.0455 -0.4075
  137loPI    C1 2177   7.442  12.641  10.820 -0.0303 -0.0512  0.0742
  137loPI    C2 2178   7.205  12.900  10.627  0.2654  0.2637  0.1235
  137loPI    C3 2179   7.054  12.666  10.914 -0.0348  0.2782 -0.0195
  137loPI   PO4 2180   7.628  12.618  10.547 -0.2046 -0.0557 -0.1371
  137loPI   GL1 2181   7.785  12.916  10.161 -0.0584 -0.1306  0.1206
  137loPI   GL2 2182   8.056  13.108  10.197  0.2090  0.0026 -0.2046
  137loPI   C1A 2183   7.809  12.785   9.747  0.1286  0.3752 -0.0612
  137loPI   C2A 2184   7.791  12.863   9.374 -0.1541 -0.0224  0.0813
  137loPI   C3A 2185   7.733  12.806   8.912 -0.0381  0.1655  0.0825
  137loPI   C4A 2186   7.957  12.802   8.509 -0.0611 -0.2395 -0.0438
  137loPI   C5A 2187   7.700  12.866   8.164  0.0295 -0.1226 -0.1716
  137loPI   C6A 2188   7.349  12.629   8.122  0.2806  0.2774  0.1902
  137loPI   C1B 2189   8.088  13.381   9.833  0.1332  0.0305 -0.0328
  137loPI   C2B 2190   8.227  13.420   9.393 -0.0140  0.0121 -0.0961
  137loPI   C3B 2191   8.322  13.466   8.984 -0.0157 -0.0599  0.0944
  137loPI   C4B 2192   8.339  13.668   8.688 -0.1028 -0.0263 -0.1480
  138loPI    C1 2193   2.588  13.032  10.761  0.0053  0.1387 -0.0595
  138loPI    C2 2194   2.868  13.296  10.866 -0.0399  0.1690 -0.0147
  138loPI    C3 2195   2.707  13.055  11.142  0.1877 -0.0863 -0.1009
  138loPI   PO4 2196   2.615  13.066  10.493  0.0986  0.1746 -0.1302
  138loPI   GL1 2197   2.526  13.271  10.126  0.0616  0.0119  0.0412
  138loPI   GL2 2198   2.737  13.501  10.164 -0.0728 -0.1113 -0.1999
  138loPI   C1A 2199   2.315  13.448   9.789 -0.0337 -0.2811 -0.1427
  138loPI   C2A 2200   2.263  13.306   9.446  0.0446  0.1152  0.1802
  138loPI   C3A 2201   2.094  13.323   9.018 -0.0398  0.2881 -0.0894
  138loPI   C4A 2202   2.063  13.008   8.570  0.1745 -0.0702  0.0983
  138loPI   C5A 2203   2.316  12.842   8.276 -0.1103 -0.0189  0.1228
  138loPI   C6A 2204   2.249  12.538   8.097 -0.4263 -0.2663  0.2335
  138loPI   C1B 2205   2.786  13.606   9.762 -0.3261  0.1195 -0.1946
  138loPI   C2B 2206   2.581  13.760   9.417 -0.1248 -0.1111 -0.2223
  138loPI   C3B 2207   2.650  13.923   9.006 -0.0528  0.0597 -0.1158
  138loPI   C4B 2208   2.625  13.952   8.544  0.0394  0.0271 -0.0397
  139loPI    C1 2209   5.542   7.837  10.287 -0.3466  0.0773 -0.1503
  139loPI    C2 2210   5.829   7.948  10.542 -0.3372  0.1523 -0.1934
  139loPI    C3 2211   5.506   7.756  10.677 -0.1062 -0.2441 -0.1904
  139loPI   PO4 2212   5.485   8.105  10.154  0.0267  0.0275 -0.0876
  139loPI   GL1 2213   5.352   8.126   9.751  0.0367 -0.1533 -0.0604
  139loPI   GL2 2214   5.120   8.209   9.629  0.0726 -0.1334  0.0103
  139loPI   C1A 2215   5.252   7.720   9.533 -0.1237  0.0546 -0.2672
  139loPI   C2A 2216   5.084   7.614   9.186 -0.3522  0.2274  0.0165
  139loPI   C3A 2217   5.007   7.446   8.808 -0.1861 -0.3582 -0.0777
  139loPI   C4A 2218   5.068   7.430   8.445 -0.2283  0.2961 -0.0226
  139loPI   C5A 2219   5.303   7.211   8.132  0.2258  0.0579 -0.0459
  139loPI   C6A 2220   5.216   7.442   7.742  0.1698  0.0860 -0.1278
  139loPI   C1B 2221   5.065   8.123   9.157 -0.0261 -0.2914 -0.0699
  139loPI   C2B 2222   5.054   7.925   8.712 -0.3961 -0.2227  0.1692
  139loPI   C3B 2223   4.852   7.860   8.287 -0.0676 -0.1335  0.0296
  139loPI   C4B 2224   4.883   7.801   7.807  0.4669 -0.2247  0.0418
  140loPI    C1 2225  12.985  12.007  10.923 -0.0580 -0.1223 -0.1331
  140loPI    C2 2226  12.914  12.376  11.062  0.0617 -0.1155 -0.0882
  140loPI    C3 2227  12.660  12.078  11.146 -0.0284 -0.0464 -0.1137
  140loPI   PO4 2228  13.009  12.011  10.671 -0.0132  0.0644  0.0305
  140loPI   GL1 2229  12.888  12.004  10.261 -0.0852  0.1236 -0.1659
  140loPI   GL2 2230  13.208  11.975  10.227 -0.0457 -0.2369  0.2911
  140loPI   C1A 2231  12.553  12.186  10.104 -0.1948 -0.0402 -0.0351
  140loPI   C2A 2232  12.603  12.533   9.864 -0.0441 -0.1011 -0.1983
  140loPI   C3A 2233  12.686  12.676   9.436  0.2222  0.0325  0.1446
  140loPI   C4A 2234  12.962  12.499   9.083  0.2791 -0.1225 -0.1264
  140loPI   C5A 2235  13.005  12.541   8.731 -0.1679  0.1738  0.1765
  140loPI   C6A 2236  13.354  12.628   8.488 -0.0183 -0.1865 -0.1917
  140loPI   C1B 2237  13.217  11.932   9.788  0.0946 -0.0095  0.1099
  140loPI   C2B 2238  13.204  12.028   9.358 -0.0467 -0.3500  0.1038
  140loPI   C3B 2239  13.246  12.117   9.014 -0.2260 -0.1248 -0.0299
  140loPI   C4B 2240  13.401  12.349   8.891 -0.0644 -0.0922  0.3034
  141loPI    C1 2241   1.025   4.354  10.422 -0.0916  0.0100 -0.2618
  141loPI    C2 2242   1.117   3.973  10.338  0.0732  0.0308 -0.1791
  141loPI    C3 2243   1.063   4.087  10.717  0.1219  0.1113 -0.1961
  141loPI   PO4 2244   0.928   4.416  10.257 -0.0615  0.1229 -0.1092
  141loPI   GL1 2245   0.724   4.544   9.857 -0.1549  0.2068 -0.1455
  141loPI   GL2 2246   0.748   4.855   9.953 -0.1705 -0.3939 -0.1279
  141loPI   C1A 2247   0.784   4.648   9.424 -0.2028 -0.1675  0.1273
  141loPI   C2A 2248   0.758   4.688   9.034 -0.1175 -0.2046 -0.0393
  141loPI   C3A 2249   0.689   4.736   8.594  0.3267 -0.1278  0.0330
  141loPI   C4A 2250   0.677   4.865   8.174  0.1013 -0.1204  0.2884
  141loPI   C5A 2251   0.773   4.616   7.787 -0.1484 -0.2260 -0.0110
  141loPI   C6A 2252   1.002   4.212   7.915  0.1808 -0.1790 -0.3065
  141loPI   C1B 2253   1.100   4.973   9.640 -0.2543 -0.1406 -0.0568
  141loPI   C2B 2254   1.183   4.978   9.195  0.0397  0.1734  0.0968
  141loPI   C3B 2255   1.172   4.862   8.726  0.0529 -0.0575 -0.1986
  141loPI   C4B 2256   1.216   4.778   8.304  0.1136 -0.2040 -0.0735
  142loPI    C1 2257   0.965  16.267  10.746  0.2038  0.0851 -0.0886
  142loPI    C2 2258   0.676  16.034  10.892  0.0848  0.2493 -0.0590
  142loPI    C3 2259   1.016  16.082  11.096  0.0956  0.1310 -0.0482
  142loPI   PO4 2260   0.901  16.376  10.528 -0.2462 -0.0823 -0.0959
  142loPI   GL1 2261   0.697  16.390  10.080 -0.2334  0.3418 -0.2295
  142loPI   GL2 2262   0.712  16.178   9.880  0.0355  0.0934  0.0258
  142loPI   C1A 2263   0.438  16.775   9.846  0.0088  0.1005 -0.1497
  142loPI   C2A 2264   0.377  16.863   9.388 -0.0473  0.1890 -0.0211
  142loPI   C3A 2265   0.246  16.970   8.921  0.1213  0.2230 -0.1868
  142loPI   C4A 2266   0.280  16.935   8.406  0.1697  0.2673 -0.5154
  142loPI   C5A 2267   0.142  17.234   8.132  0.0026 -0.0173 -0.0866
  142loPI   C6A 2268   0.075  17.660   7.880  0.1881  0.1033 -0.0065
  142loPI   C1B 2269   0.890  16.214   9.373 -0.0891  0.4772  0.1101
  142loPI   C2B 2270   0.993  16.072   8.917  0.0828 -0.2356 -0.1031
  142loPI   C3B 2271   1.076  16.280   8.456  0.3880  0.1298  0.0375
  142loPI   C4B 2272   1.162  16.051   8.068 -0.1192  0.0711 -0.2865
  143loPI    C1 2273  12.075   3.166  10.476 -0.1971 -0.0267 -0.0355
  143loPI    C2 2274  12.334   3.191  10.780 -0.1860  0.0105 -0.0479
  143loPI    C3 2275  11.973   3.028  10.837 -0.1190 -0.1432 -0.0575
  143loPI   PO4 2276  12.276   3.062  10.291  0.0903 -0.1590 -0.2429
  143loPI   GL1 2277  12.130   3.134   9.936 -0.1902  0.0980 -0.0076
  143loPI   GL2 2278  12.261   3.468   9.944 -0.0962 -0.2215  0.0429
  143loPI   C1A 2279  11.927   3.335   9.651  0.0411 -0.0293 -0.1164
  143loPI   C2A 2280  12.022   3.397   9.279 -0.5691  0.1705 -0.2539
  143loPI   C3A 2281  12.244   3.491   8.902 -0.3881  0.0653 -0.0815
  143loPI   C4A 2282  12.333   3.580   8.449  0.0261 -0.1456  0.0323
  143loPI   C5A 2283  12.600   3.820   8.331  0.3179  0.0161  0.0195
  143loPI   C6A 2284  12.962   4.030   8.044 -0.1795 -0.2004  0.4281
  143loPI   C1B 2285  12.482   3.309   9.586  0.1426 -0.1028  0.1307
  143loPI   C2B 2286  12.636   3.296   9.152 -0.0773 -0.4604 -0.3725
  143loPI   C3B 2287  12.569   3.179   8.715 -0.1292 -0.2181  0.2992
  143loPI   C4B 2288  12.612   3.213   8.366 -0.3017  0.1693  0.0999
  144loPI    C1 2289  10.979  17.101  10.838  0.1124  0.0664  0.1519
  144loPI    C2 2290  11.229  17.186  11.139  0.0696  0.1484  0.1647
  144loPI    C3 2291  11.004  17.475  10.978 -0.1206  0.0478  0.2472
  144loPI   PO4 2292  11.125  16.968  10.667 -0.0354 -0.0668 -0.0953
  144loPI   GL1 2293  11.183  16.796  10.382 -0.1263 -0.0296 -0.3052
  144loPI   GL2 2294  11.406  16.542  10.348 -0.1420  0.1007  0.1685
  144loPI   C1A 2295  10.950  16.586   9.978 -0.2105 -0.0773 -0.0938
  144loPI   C2A 2296  10.904  16.517   9.591 -0.0577  0.0617  0.1062
  144loPI   C3A 2297  10.712  16.546   9.209  0.1783 -0.0890  0.0678
  144loPI   C4A 2298  10.669  16.818   8.866  0.0116 -0.0993 -0.0600
  144loPI   C5A 2299  10.573  16.943   8.512 -0.0599 -0.2479 -0.2903
  144loPI   C6A 2300  10.591  17.274   8.195  0.0061  0.0087 -0.2564
  144loPI   C1B 2301  11.346  16.287  10.034  0.2188  0.1087 -0.2158
  144loPI   C2B 2302  11.384  16.377   9.631  0.2040 -0.0712  0.0009
  144loPI   C3B 2303  11.352  16.421   9.204  0.1572 -0.2127  0.3519
  144loPI   C4B 2304  11.253  16.429   8.917 -0.0438  0.2668 -0.0367
  145loPI    C1 2305   0.813   2.722  10.502 -0.1196  0.1859 -0.0530
  145loPI    C2 2306   1.054   2.410  10.570  0.1882  0.3891 -0.1897
  145loPI    C3 2307   0.683   2.412  10.719  0.1733 -0.0503 -0.2069
  145loPI   PO4 2308   0.971   2.898  10.483 -0.0943  0.3356  0.0709
  145loPI   GL1 2309   1.237   3.099  10.260  0.1769 -0.0467  0.2749
  145loPI   GL2 2310   1.122   3.407  10.336 -0.2700  0.2779 -0.2455
  145loPI   C1A 2311   1.399   2.892   9.871  0.3604 -0.0770 -0.2784
  145loPI   C2A 2312   1.492   2.762   9.504 -0.0348  0.0586 -0.3652
  145loPI   C3A 2313   1.243   2.621   9.139 -0.0774  0.0641 -0.2673
  145loPI   C4A 2314   1.079   2.498   8.821 -0.0098  0.0397  0.1335
  145loPI   C5A 2315   1.026   2.399   8.318 -0.0718 -0.0257  0.0654
  145loPI   C6A 2316   0.661   2.225   8.000  0.0847  0.0548  0.0226
  145loPI   C1B 2317   1.209   3.488   9.878 -0.1766  0.5565 -0.0152
  145loPI   C2B 2318   1.402   3.337   9.634  0.1083 -0.0901 -0.2934
  145loPI   C3B 2319   1.425   3.313   9.220 -0.0736  0.0129  0.1029
  145loPI   C4B 2320   1.162   3.445   8.872  0.1077 -0.2096  0.0235
  146loPI    C1 2321   9.027  16.991  11.204  0.1330 -0.2498 -0.1795
  146loPI    C2 2322   9.403  16.929  11.325  0.0469 -0.1605  0.1459
  146loPI    C3 2323   9.098  16.840  11.568 -0.1334  0.0066 -0.0162
  146loPI   PO4 2324   9.051  16.887  10.969 -0.1880 -0.0112 -0.1440
  146loPI   GL1 2325   9.166  16.817  10.596  0.1174  0.0830 -0.2291
  146loPI   GL2 2326   9.456  16.579  10.570 -0.3171 -0.0844  0.0991
  146loPI   C1A 2327   8.992  16.622  10.235  0.3496 -0.1392  0.0887
  146loPI   C2A 2328   9.137  16.579   9.878 -0.2304 -0.1636  0.0115
  146loPI   C3A 2329   9.168  16.462   9.473 -0.0655  0.6103 -0.1061
  146loPI   C4A 2330   9.263  16.373   9.100 -0.2421 -0.1480 -0.2119
  146loPI   C5A 2331   9.163  16.109   8.687 -0.4135  0.1936  0.0999
  146loPI   C6A 2332   9.435  15.690   8.531 -0.2050  0.0997  0.2108
  146loPI   C1B 2333   9.526  16.401  10.145  0.0945  0.2025  0.2190
  146loPI   C2B 2334   9.319  16.136   9.880  0.0930 -0.1616 -0.0630
  146loPI   C3B 2335   9.408  16.008   9.459  0.0550  0.0858  0.1001
  146loPI   C4B 2336   9.399  15.862   9.019  0.0187 -0.1759 -0.0781
  147loPI    C1 2337  12.331   7.174  10.759 -0.0158 -0.2450 -0.2055
  147loPI    C2 2338  12.195   7.309  11.110 -0.0107 -0.0198 -0.2883
  147loPI    C3 2339  12.587   7.321  11.029 -0.0106 -0.0820 -0.2977
  147loPI   PO4 2340  12.236   6.926  10.678 -0.1060 -0.1447  0.1068
  147loPI   GL1 2341  12.493   6.785  10.386 -0.1218 -0.0944 -0.2190
  147loPI   GL2 2342  12.350   6.968  10.204 -0.0149 -0.2972 -0.0392
  147loPI   C1A 2343  12.727   6.731   9.995 -0.0295 -0.2288 -0.0699
  147loPI   C2A 2344  13.084   6.663   9.746  0.0235  0.1861  0.0557
  147loPI   C3A 2345  13.131   6.714   9.300 -0.0275  0.1022  0.1969
  147loPI   C4A 2346  13.407   6.780   8.953 -0.2052  0.0367 -0.0827
  147loPI   C5A 2347  13.449   7.131   8.734  0.4437 -0.1952 -0.1265
  147loPI   C6A 2348  13.607   7.508   8.502 -0.1901  0.2303 -0.0708
  147loPI   C1B 2349  12.157   6.946   9.772 -0.0119  0.1222 -0.1492
  147loPI   C2B 2350  12.158   6.913   9.221  0.2994 -0.0292 -0.2617
  147loPI   C3B 2351  11.984   6.637   8.884 -0.1046 -0.2957 -0.2507
  147loPI   C4B 2352  11.969   6.448   8.427  0.4365 -0.0389  0.0463
  148loPI    C1 2353  14.453   5.298  10.927 -0.1539  0.1104  0.2661
  148loPI    C2 2354  14.727   5.068  11.104 -0.0948  0.0268  0.0694
  148loPI    C3 2355  14.345   4.949  11.089 -0.1343  0.1189  0.2975
  148loPI   PO4 2356  14.526   5.315  10.723 -0.0083 -0.0784 -0.3522
  148loPI   GL1 2357  14.778   5.403  10.360 -0.1098 -0.1963 -0.2673
  148loPI   GL2 2358  14.684   5.742  10.266 -0.0091 -0.2700 -0.4448
  148loPI   C1A 2359  14.897   5.318   9.969 -0.0022 -0.2199  0.2006
  148loPI   C2A 2360  14.871   5.184   9.509 -0.1037  0.2330 -0.0836
  148loPI   C3A 2361  14.786   4.949   9.048 -0.4887 -0.2073 -0.1825
  148loPI   C4A 2362  14.680   4.970   8.603  0.4176  0.0126  0.0071
  148loPI   C5A 2363  14.573   4.995   8.170  0.2781  0.1809  0.0077
  148loPI   C6A 2364  14.439   4.906   7.849 -0.1974 -0.1083  0.0733
  148loPI   C1B 2365  14.852   5.841   9.780  0.2733 -0.0766  0.1564
  148loPI   C2B 2366  15.048   5.660   9.404  0.2442  0.4380  0.1308
  148loPI   C3B 2367  15.282   5.834   9.059 -0.2904 -0.2215  0.0705
  148loPI   C4B 2368  15.600   5.991   8.773  0.2444  0.0851 -0.1667
  149loPI    C1 2369   8.552   5.843  10.491 -0.1015  0.0565 -0.1464
  149loPI    C2 2370   8.387   5.632  10.787  0.3486 -0.1002  0.0020
  149loPI    C3 2371   8.569   5.979  10.867  0.2945 -0.0424 -0.1234
  149loPI   PO4 2372   8.754   5.608  10.342  0.0831  0.1932 -0.1298
  149loPI   GL1 2373   8.860   5.474   9.950  0.2695 -0.1978 -0.1766
  149loPI   GL2 2374   8.921   5.211   9.831 -0.2098 -0.0186  0.0535
  149loPI   C1A 2375   8.865   5.597   9.485  0.0498  0.1338 -0.2959
  149loPI   C2A 2376   8.825   5.670   9.058 -0.2825 -0.1727 -0.1650
  149loPI   C3A 2377   8.949   5.642   8.602  0.0732 -0.4916  0.0123
  149loPI   C4A 2378   8.876   5.671   8.198  0.0647  0.0469  0.2047
  149loPI   C5A 2379   9.028   5.940   7.795  0.0560 -0.1767  0.0169
  149loPI   C6A 2380   8.733   6.108   7.628 -0.0446 -0.1295  0.1908
  149loPI   C1B 2381   8.856   4.969   9.447  0.2243 -0.2686  0.0406
  149loPI   C2B 2382   8.846   4.964   9.022  0.0641  0.2053  0.1565
  149loPI   C3B 2383   9.171   4.806   8.703  0.0442 -0.0412  0.2865
  149loPI   C4B 2384   9.265   4.544   8.406  0.0728 -0.2582  0.1035
  150loPI    C1 2385  17.417  13.816  10.946 -0.1214 -0.2808 -0.0395
  150loPI    C2 2386  17.657  14.107  10.813 -0.2365 -0.2555 -0.1947
  150loPI    C3 2387  17.790  13.731  10.830 -0.1617 -0.2299 -0.2101
  150loPI   PO4 2388  17.075  13.923  10.755 -0.3647 -0.0610  0.0787
  150loPI   GL1 2389  17.019  13.996  10.420 -0.1643  0.2581 -0.1507
  150loPI   GL2 2390  16.662  13.854  10.429 -0.2031 -0.3565  0.1539
  150loPI   C1A 2391  16.912  14.011   9.962 -0.0308  0.3047 -0.0843
  150loPI   C2A 2392  16.839  14.090   9.584 -0.2426  0.1087  0.1207
  150loPI   C3A 2393  16.878  13.955   9.256 -0.4050  0.2155  0.1596
  150loPI   C4A 2394  16.661  13.979   8.803 -0.1017 -0.0492  0.1180
  150loPI   C5A 2395  16.361  14.286   8.496  0.0013 -0.1606 -0.0579
  150loPI   C6A 2396  16.233  14.373   8.056 -0.3060 -0.0609 -0.0197
  150loPI   C1B 2397  16.590  13.623   9.973 -0.0703  0.0107 -0.1295
  150loPI   C2B 2398  16.651  13.636   9.581  0.1037  0.0935 -0.0676
  150loPI   C3B 2399  16.566  13.531   9.076  0.4689 -0.0791  0.2111
  150loPI   C4B 2400  16.711  13.461   8.621  0.1620 -0.1031 -0.0694
  151loPI    C1 2401  12.940   5.610  10.911  0.0111 -0.4681 -0.0884
  151loPI    C2 2402  12.968   5.689  11.302  0.0891 -0.2080 -0.1447
  151loPI    C3 2403  12.613   5.598  11.141  0.0400 -0.2179 -0.0315
  151loPI   PO4 2404  13.020   5.772  10.778 -0.0887 -0.1810 -0.1177
  151loPI   GL1 2405  12.912   6.011  10.371  0.1351  0.0338 -0.0854
  151loPI   GL2 2406  13.270   5.845  10.316  0.0671  0.0989 -0.1616
  151loPI   C1A 2407  12.811   6.190   9.858  0.1443  0.2181 -0.1685
  151loPI   C2A 2408  13.074   6.163   9.573 -0.0479  0.2108 -0.0996
  151loPI   C3A 2409  13.297   6.190   9.237  0.0784  0.3937 -0.1240
  151loPI   C4A 2410  13.573   6.259   8.941  0.0190  0.1963  0.1591
  151loPI   C5A 2411  13.739   6.425   8.608 -0.2989 -0.1691 -0.3784
  151loPI   C6A 2412  13.898   6.645   8.277 -0.1105  0.0585 -0.3370
  151loPI   C1B 2413  13.287   6.286  10.097 -0.0336  0.0811 -0.1124
  151loPI   C2B 2414  13.532   6.333   9.698 -0.1541  0.0355 -0.1792
  151loPI   C3B 2415  13.705   6.584   9.332  0.0847 -0.0288  0.1538
  151loPI   C4B 2416  13.985   6.583   8.981 -0.1265 -0.0186 -0.2895
  152loPI    C1 2417   6.080   2.673  10.863  0.1560  0.0478 -0.1040
  152loPI    C2 2418   5.718   2.526  10.776 -0.0002  0.1838  0.2906
  152loPI    C3 2419   5.979   2.306  10.985  0.2280  0.0073 -0.1651
  152loPI   PO4 2420   6.160   2.736  10.609 -0.2606  0.1711 -0.1999
  152loPI   GL1 2421   5.998   2.793  10.166 -0.1207  0.1536  0.0603
  152loPI   GL2 2422   6.222   2.595  10.079 -0.0799  0.3616  0.0566
  152loPI   C1A 2423   5.918   3.078   9.855 -0.0461  0.1546  0.2406
  152loPI   C2A 2424   5.984   3.265   9.507 -0.0803  0.0014 -0.3676
  152loPI   C3A 2425   6.338   3.238   9.175 -0.1704  0.0479 -0.1825
  152loPI   C4A 2426   6.657   2.956   9.008 -0.0446 -0.0296  0.1152
  152loPI   C5A 2427   6.768   2.726   8.608 -0.0902 -0.1398  0.1700
  152loPI   C6A 2428   6.669   2.660   8.221 -0.0453  0.0250 -0.1686
  152loPI   C1B 2429   6.002   2.387   9.721 -0.2492  0.0637  0.0775
  152loPI   C2B 2430   5.906   2.332   9.253 -0.0706  0.1804  0.1035
  152loPI   C3B 2431   5.611   2.438   8.978  0.0992  0.1396  0.1331
  152loPI   C4B 2432   5.319   2.722   8.884 -0.0061 -0.0936 -0.3605
  153loPI    C1 2433  12.079  17.704  11.177 -0.0673  0.0127 -0.0806
  153loPI    C2 2434  12.120  17.570  11.552  0.0134  0.0874 -0.0625
  153loPI    C3 2435  11.870  17.873  11.474 -0.0706  0.0133 -0.0832
  153loPI   PO4 2436  11.992  17.492  10.970 -0.1181 -0.0347 -0.3110
  153loPI   GL1 2437  11.952  17.517  10.480 -0.2699  0.1843  0.1290
  153loPI   GL2 2438  12.229  17.347  10.277 -0.1626 -0.2169 -0.1950
  153loPI   C1A 2439  11.809  17.546  10.005  0.1618 -0.1128 -0.0689
  153loPI   C2A 2440  11.547  17.318   9.674  0.1174 -0.0601  0.2201
  153loPI   C3A 2441  11.432  17.200   9.269  0.0804 -0.2606  0.0487
  153loPI   C4A 2442  11.527  16.895   8.898  0.0834 -0.0776 -0.0502
  153loPI   C5A 2443  11.367  16.669   8.512 -0.1059  0.1215  0.2615
  153loPI   C6A 2444  11.466  16.477   8.219 -0.3695  0.1500 -0.2074
  153loPI   C1B 2445  12.177  17.221   9.771 -0.2541 -0.3140  0.0290
  153loPI   C2B 2446  12.054  17.357   9.396 -0.0101 -0.0483  0.3881
  153loPI   C3B 2447  11.967  17.394   8.925 -0.5183  0.1286  0.0986
  153loPI   C4B 2448  11.940  17.477   8.415 -0.0120  0.0629 -0.2449
  154loPI    C1 2449  13.624   8.102  10.783  0.0044  0.0180 -0.1752
  154loPI    C2 2450  13.787   8.069  11.147  0.0236  0.2336 -0.1625
  154loPI    C3 2451  13.437   8.257  11.101 -0.1553 -0.1021 -0.2093
  154loPI   PO4 2452  13.641   7.936  10.695 -0.0908 -0.2149  0.3135
  154loPI   GL1 2453  13.778   8.122  10.254  0.2075 -0.3634 -0.2668
  154loPI   GL2 2454  13.861   8.398  10.074 -0.2457 -0.1441  0.0477
  154loPI   C1A 2455  13.929   7.830  10.065  0.0853 -0.0303  0.0682
  154loPI   C2A 2456  13.702   7.723   9.700 -0.0716 -0.3906  0.2638
  154loPI   C3A 2457  13.409   7.685   9.322 -0.0282 -0.1353  0.3535
  154loPI   C4A 2458  13.359   7.855   8.874 -0.2019 -0.1205 -0.1719
  154loPI   C5A 2459  13.241   7.919   8.465  0.0909 -0.2278  0.1885
  154loPI   C6A 2460  13.148   8.367   8.154  0.0769 -0.0471  0.2286
  154loPI   C1B 2461  13.860   8.199   9.595 -0.0185 -0.0791  0.1502
  154loPI   C2B 2462  13.798   7.999   9.245  0.1741 -0.5165 -0.0245
  154loPI   C3B 2463  13.809   7.952   8.712 -0.0643  0.0402  0.1041
  154loPI   C4B 2464  13.927   8.227   8.492 -0.0795  0.3068 -0.3620
  155loPI    C1 2465   3.992   1.906  11.028 -0.2800 -0.1648 -0.2548
  155loPI    C2 2466   3.764   1.695  11.280 -0.0474  0.0806  0.1718
  155loPI    C3 2467   4.145   1.588  11.218 -0.1516 -0.0818 -0.2181
  155loPI   PO4 2468   3.642   2.006  10.855  0.0896 -0.3778  0.0673
  155loPI   GL1 2469   3.459   2.251  10.529 -0.0315  0.3342  0.0120
  155loPI   GL2 2470   3.207   2.235  10.452  0.1499  0.0263  0.0343
  155loPI   C1A 2471   3.757   1.931  10.057  0.1486 -0.0779 -0.0944
  155loPI   C2A 2472   3.655   1.909   9.530  0.3326 -0.2181 -0.0350
  155loPI   C3A 2473   3.576   1.810   9.010  0.0718  0.2438  0.2690
  155loPI   C4A 2474   3.533   1.947   8.580  0.1761 -0.0177  0.2579
  155loPI   C5A 2475   3.429   1.577   8.250 -0.1236  0.0693  0.1100
  155loPI   C6A 2476   3.233   1.229   8.098  0.1747  0.4103 -0.0769
  155loPI   C1B 2477   3.236   2.100  10.056  0.2451  0.2843  0.0630
  155loPI   C2B 2478   3.116   1.867   9.686  0.3457  0.0435  0.0781
  155loPI   C3B 2479   2.939   1.575   9.408  0.0281 -0.0332 -0.1844
  155loPI   C4B 2480   2.976   1.293   8.978  0.2248  0.0343 -0.0272
  156loPI    C1 2481   7.834   2.271  10.613 -0.1810 -0.0150  0.1485
  156loPI    C2 2482   7.727   2.270  10.998  0.1508  0.0262  0.2441
  156loPI    C3 2483   8.005   2.013  10.867 -0.2817 -0.2992 -0.0661
  156loPI   PO4 2484   7.524   2.236  10.394  0.1732  0.0105  0.1879
  156loPI   GL1 2485   7.487   2.436   9.862 -0.1887  0.1895 -0.3587
  156loPI   GL2 2486   7.434   2.888   9.940 -0.2387  0.2830  0.0622
  156loPI   C1A 2487   7.543   2.495   9.306  0.5038 -0.1770  0.0688
  156loPI   C2A 2488   7.644   2.717   8.952  0.0879 -0.0593  0.1087
  156loPI   C3A 2489   7.872   2.914   8.576 -0.1219 -0.1338  0.0156
  156loPI   C4A 2490   7.884   2.757   8.144  0.0286  0.1162 -0.2813
  156loPI   C5A 2491   7.803   2.897   7.669  0.3214  0.0863 -0.0265
  156loPI   C6A 2492   7.798   3.068   7.205  0.0993  0.0739 -0.2307
  156loPI   C1B 2493   7.337   2.934   9.506  0.1554  0.0408 -0.1093
  156loPI   C2B 2494   7.029   3.198   9.244 -0.2186  0.1717 -0.0645
  156loPI   C3B 2495   6.980   3.245   8.740 -0.0307  0.2580 -0.1777
  156loPI   C4B 2496   6.999   3.012   8.317 -0.2001 -0.0706 -0.0363
  157loPI    C1 2497   2.116   9.288  10.529  0.0356  0.1934 -0.0554
  157loPI    C2 2498   1.999   9.454  10.873 -0.0287 -0.0480  0.0417
  157loPI    C3 2499   1.733   9.264  10.643  0.0849 -0.2080  0.0413
  157loPI   PO4 2500   2.333   9.501  10.495 -0.1174 -0.0810  0.3364
  157loPI   GL1 2501   2.702   9.416  10.134  0.1829 -0.2291  0.0247
  157loPI   GL2 2502   2.262   9.365  10.065  0.2923 -0.3316  0.1693
  157loPI   C1A 2503   2.677   9.420   9.748  0.1412  0.0678 -0.0010
  157loPI   C2A 2504   2.593   9.377   9.341  0.2417 -0.0973 -0.2885
  157loPI   C3A 2505   2.535   9.453   8.947 -0.2068  0.0066 -0.0508
  157loPI   C4A 2506   2.319   9.258   8.729 -0.3681  0.2712 -0.1931
  157loPI   C5A 2507   2.370   8.913   8.565  0.3265 -0.1500 -0.0529
  157loPI   C6A 2508   2.541   8.870   8.184  0.0404 -0.0182  0.0886
  157loPI   C1B 2509   2.137   9.486   9.691  0.2932 -0.1695 -0.2098
  157loPI   C2B 2510   2.083   9.501   9.325  0.5024 -0.0154  0.0586
  157loPI   C3B 2511   1.901   9.665   8.880  0.0582  0.1536  0.1726
  157loPI   C4B 2512   1.867   9.550   8.456 -0.1719  0.0121  0.0962
  158loPI    C1 2513   8.300   6.805  10.567 -0.0890  0.2089 -0.0159
  158loPI    C2 2514   7.991   6.678  10.348  0.0442 -0.3693  0.1136
  158loPI    C3 2515   7.931   6.806  10.723 -0.0571 -0.3299  0.0845
  158loPI   PO4 2516   8.430   6.902  10.301 -0.0927 -0.1820 -0.2694
  158loPI   GL1 2517   8.279   6.746   9.916 -0.2718 -0.1569 -0.0545
  158loPI   GL2 2518   7.986   7.083  10.001 -0.2293  0.2030  0.1073
  158loPI   C1A 2519   8.343   6.500   9.651 -0.0437 -0.0099 -0.0523
  158loPI   C2A 2520   8.393   6.573   9.133 -0.3125 -0.0702  0.2668
  158loPI   C3A 2521   8.510   6.628   8.784  0.0922 -0.3046 -0.1398
  158loPI   C4A 2522   8.534   6.554   8.347 -0.2202  0.0960 -0.2875
  158loPI   C5A 2523   8.433   6.509   7.902  0.0678  0.0325 -0.0737
  158loPI   C6A 2524   8.169   6.709   7.510  0.1039  0.1455 -0.2077
  158loPI   C1B 2525   8.118   7.139   9.624 -0.3404  0.1461 -0.2516
  158loPI   C2B 2526   8.176   7.083   9.257  0.0931  0.1454 -0.0088
  158loPI   C3B 2527   8.231   7.220   8.873 -0.0604  0.1091  0.0075
  158loPI   C4B 2528   8.073   7.310   8.479 -0.0765  0.5164  0.1570
  159loPI    C1 2529  10.943   7.619  10.787  0.0108 -0.0313  0.0884
  159loPI    C2 2530  10.700   7.669  11.101 -0.1450  0.0217 -0.0397
  159loPI    C3 2531  10.924   7.974  10.971 -0.4093  0.1315 -0.2501
  159loPI   PO4 2532  10.790   7.513  10.553 -0.1835  0.5772  0.0907
  159loPI   GL1 2533  10.804   7.348  10.114  0.2411  0.0561 -0.2275
  159loPI   GL2 2534  10.659   7.071  10.079 -0.4374 -0.2300 -0.2666
  159loPI   C1A 2535  11.118   7.169   9.739  0.0797 -0.0395 -0.0270
  159loPI   C2A 2536  11.246   7.115   9.357  0.1816  0.2724  0.1865
  159loPI   C3A 2537  11.166   6.927   8.980  0.0841  0.0439  0.0932
  159loPI   C4A 2538  11.120   6.931   8.561 -0.1304 -0.1242 -0.3477
  159loPI   C5A 2539  11.218   6.716   8.204  0.0256 -0.0234 -0.2606
  159loPI   C6A 2540  11.161   6.695   7.844  0.0486  0.3733 -0.1893
  159loPI   C1B 2541  10.646   7.248   9.654 -0.2612  0.1355 -0.0361
  159loPI   C2B 2542  10.421   7.657   9.417 -0.1644 -0.1082 -0.1569
  159loPI   C3B 2543  10.003   7.764   9.173 -0.2228  0.1024  0.0886
  159loPI   C4B 2544   9.810   7.910   8.693  0.1669  0.0331 -0.3733
  160loPI    C1 2545   7.538  13.588  10.918 -0.4145 -0.0921  0.2184
  160loPI    C2 2546   7.542  13.815  11.247  0.3041  0.1755  0.0456
  160loPI    C3 2547   7.702  13.449  11.255 -0.0867  0.0003  0.1011
  160loPI   PO4 2548   7.610  13.683  10.716 -0.0522 -0.1270 -0.0600
  160loPI   GL1 2549   7.462  13.667  10.285  0.1636 -0.0045 -0.3612
  160loPI   GL2 2550   7.255  13.742   9.990 -0.0636 -0.0059 -0.0826
  160loPI   C1A 2551   7.627  13.360  10.021  0.2713 -0.1221 -0.4578
  160loPI   C2A 2552   7.679  13.460   9.557 -0.0267  0.1235 -0.1324
  160loPI   C3A 2553   7.847  13.304   9.119 -0.0147 -0.0155 -0.1093
  160loPI   C4A 2554   7.886  13.332   8.648  0.1890  0.0401 -0.0894
  160loPI   C5A 2555   7.907  13.423   8.200 -0.1389  0.1095 -0.0487
  160loPI   C6A 2556   8.050  13.519   7.732  0.0000  0.0867  0.1521
  160loPI   C1B 2557   7.296  13.865   9.559  0.1870 -0.0833  0.0010
  160loPI   C2B 2558   7.410  13.637   9.139  0.2771  0.2728  0.2341
  160loPI   C3B 2559   7.319  13.581   8.663 -0.2484  0.3038  0.0154
  160loPI   C4B 2560   7.418  13.321   8.282 -0.0287  0.1265 -0.1022
  161loPI    C1 2561   9.659   2.225  10.800  0.2172  0.1452  0.0936
  161loPI    C2 2562   9.296   2.384  10.858  0.0637 -0.2109  0.1332
  161loPI    C3 2563   9.546   2.339  11.167  0.1159 -0.0311  0.1183
  161loPI   PO4 2564   9.602   2.059  10.574 -0.0255  0.2347 -0.1287
  161loPI   GL1 2565   9.345   2.226  10.235  0.0818  0.2835  0.2313
  161loPI   GL2 2566   9.423   2.364  10.039 -0.1139  0.1849  0.1510
  161loPI   C1A 2567   9.369   1.829   9.951  0.2550  0.1014 -0.0032
  161loPI   C2A 2568   9.390   1.751   9.572 -0.0609  0.1312  0.0758
  161loPI   C3A 2569   9.260   1.646   9.129 -0.1128  0.1573  0.1118
  161loPI   C4A 2570   9.493   1.673   8.671  0.0293 -0.2125 -0.0097
  161loPI   C5A 2571   9.758   1.522   8.279  0.1723  0.1574  0.0840
  161loPI   C6A 2572   9.924   1.244   8.053 -0.3386 -0.1602  0.3352
  161loPI   C1B 2573   9.654   2.133   9.713 -0.0417 -0.2556  0.1701
  161loPI   C2B 2574   9.762   2.208   9.445 -0.1331 -0.0317  0.1900
  161loPI   C3B 2575   9.700   2.087   9.060  0.2529 -0.2143  0.5449
  161loPI   C4B 2576   9.654   2.185   8.652  0.2851  0.2073  0.2233
  162loPI    C1 2577   1.258  17.011  10.835 -0.2833  0.0460 -0.0390
  162loPI    C2 2578   1.523  17.001  11.134 -0.3199 -0.1216 -0.0108
  162loPI    C3 2579   1.168  17.177  11.187 -0.2290  0.0726 -0.0377
  162loPI   PO4 2580   1.430  17.070  10.637  0.0106 -0.1468 -0.1752
  162loPI   GL1 2581   1.349  17.129  10.198  0.0181  0.1654  0.0192
  162loPI   GL2 2582   1.138  16.718  10.178 -0.0171  0.1513 -0.3569
  162loPI   C1A 2583   1.356  16.895   9.779 -0.1385 -0.0022  0.3437
  162loPI   C2A 2584   1.327  16.782   9.325  0.2142  0.1968 -0.1468
  162loPI   C3A 2585   1.557  16.795   8.874  0.1248 -0.3215  0.0554
  162loPI   C4A 2586   1.771  16.935   8.595 -0.2439  0.0351 -0.2881
  162loPI   C5A 2587   2.030  16.949   8.292  0.2744  0.0788 -0.1511
  162loPI   C6A 2588   2.194  17.132   7.936  0.0202 -0.0949 -0.0402
  162loPI   C1B 2589   0.920  16.619   9.755  0.0468 -0.3028 -0.0664
  162loPI   C2B 2590   0.848  16.696   9.216 -0.1063  0.2381 -0.1399
  162loPI   C3B 2591   1.042  16.593   8.904 -0.4805  0.4686 -0.1525
  162loPI   C4B 2592   1.088  16.805   8.503  0.0504  0.0027 -0.0199
  163loPI    C1 2593   2.064   3.673  10.553  0.0692  0.0628  0.2736
  163loPI    C2 2594   2.219   3.306  10.590  0.1425  0.0602 -0.0305
  163loPI    C3 2595   2.370   3.609  10.802  0.2353 -0.0395  0.0468
  163loPI   PO4 2596   2.109   3.831  10.239 -0.1704 -0.2616 -0.2133
  163loPI   GL1 2597   2.194   3.939   9.801 -0.5490  0.0175 -0.0046
  163loPI   GL2 2598   2.541   3.870   9.915  0.1505  0.1760  0.0154
  163loPI   C1A 2599   2.189   3.888   9.407  0.0561  0.0499 -0.0554
  163loPI   C2A 2600   2.175   3.954   9.049 -0.1875 -0.1301 -0.1529
  163loPI   C3A 2601   2.099   3.827   8.737 -0.0190  0.1780  0.0951
  163loPI   C4A 2602   1.881   3.547   8.450 -0.0762  0.2849  0.1408
  163loPI   C5A 2603   2.078   3.294   8.106 -0.0952  0.0709 -0.0283
  163loPI   C6A 2604   2.198   2.858   8.092  0.2109  0.1073  0.3512
  163loPI   C1B 2605   2.850   3.846   9.542 -0.0096  0.4911 -0.2118
  163loPI   C2B 2606   3.026   3.836   9.105  0.0611  0.5249  0.0278
  163loPI   C3B 2607   3.247   3.875   8.795  0.1015 -0.1860 -0.2476
  163loPI   C4B 2608   3.213   3.559   8.464 -0.1924  0.0787 -0.1024
  164loPI    C1 2609  12.390  14.724  10.658 -0.0313  0.0115  0.0668
  164loPI    C2 2610  12.459  14.730  11.052 -0.0870 -0.2415  0.0818
  164loPI    C3 2611  12.182  14.972  10.894  0.0223 -0.0503  0.1797
  164loPI   PO4 2612  12.575  14.475  10.634  0.2565 -0.0132 -0.4002
  164loPI   GL1 2613  12.526  14.325  10.206  0.1991  0.1686 -0.1986
  164loPI   GL2 2614  12.815  14.466  10.125 -0.0254  0.1916  0.0991
  164loPI   C1A 2615  12.415  14.348   9.797 -0.2172 -0.4763 -0.0663
  164loPI   C2A 2616  12.367  14.238   9.427  0.1018 -0.0039  0.1256
  164loPI   C3A 2617  12.258  14.152   8.909  0.1269 -0.3848 -0.2163
  164loPI   C4A 2618  12.187  13.847   8.508  0.2094 -0.0872  0.1392
  164loPI   C5A 2619  11.933  13.465   8.492 -0.0518  0.0380 -0.1802
  164loPI   C6A 2620  11.508  13.490   8.466  0.1999  0.2913  0.1145
  164loPI   C1B 2621  12.932  14.478   9.705  0.2321 -0.3593 -0.3188
  164loPI   C2B 2622  12.802  14.400   9.273  0.6304 -0.1397 -0.1050
  164loPI   C3B 2623  12.771  14.425   8.872 -0.1149 -0.0743 -0.3743
  164loPI   C4B 2624  12.734  14.390   8.436  0.3715 -0.2218 -0.2750
  165loPI    C1 2625   3.670  11.277  11.129  0.0387 -0.1230  0.0193
  165loPI    C2 2626   3.425  11.517  11.336 -0.0824 -0.2180 -0.0128
  165loPI    C3 2627   3.597  11.204  11.516  0.1121 -0.0818  0.0410
  165loPI   PO4 2628   3.780  11.568  10.907 -0.1284 -0.1372 -0.1812
  165loPI   GL1 2629   3.862  11.657  10.451  0.1804  0.0586 -0.1463
  165loPI   GL2 2630   4.021  11.786  10.300 -0.2113  0.1940 -0.0793
  165loPI   C1A 2631   3.517  11.803  10.312 -0.1450 -0.2903  0.2197
  165loPI   C2A 2632   3.178  11.419  10.018 -0.0913  0.0383 -0.2375
  165loPI   C3A 2633   2.959  11.500   9.690 -0.0089 -0.3063 -0.0226
  165loPI   C4A 2634   2.846  11.632   9.258 -0.2937 -0.4029 -0.1941
  165loPI   C5A 2635   2.918  11.579   8.878 -0.3000 -0.2042 -0.0116
  165loPI   C6A 2636   2.957  11.205   8.651 -0.0098 -0.2273  0.2173
  165loPI   C1B 2637   4.058  11.863   9.859 -0.0190 -0.0775  0.0452
  165loPI   C2B 2638   3.979  12.016   9.376  0.1608  0.2078  0.2659
  165loPI   C3B 2639   3.992  12.030   8.953 -0.0987 -0.0464 -0.2262
  165loPI   C4B 2640   4.358  11.970   8.723 -0.0314  0.1383  0.1842
  166loPI    C1 2641   1.609   9.747  11.085 -0.2214  0.4801 -0.5133
  166loPI    C2 2642   1.262   9.601  11.221  0.1608  0.0076  0.0069
  166loPI    C3 2643   1.381   9.968  11.329 -0.0060  0.0282  0.1240
  166loPI   PO4 2644   1.589   9.743  10.833  0.5658 -0.2519  0.0459
  166loPI   GL1 2645   1.245   9.763  10.470 -0.0210  0.1318 -0.0234
  166loPI   GL2 2646   1.064   9.886  10.250  0.0612  0.0998  0.0852
  166loPI   C1A 2647   1.375   9.587  10.164 -0.0269 -0.0458 -0.0133
  166loPI   C2A 2648   1.409   9.420   9.827 -0.0218 -0.0355 -0.1109
  166loPI   C3A 2649   1.604   9.574   9.498 -0.0022 -0.0343 -0.1744
  166loPI   C4A 2650   1.368   9.541   9.086 -0.1257  0.1183  0.1398
  166loPI   C5A 2651   1.421   9.791   8.643  0.0007 -0.2311  0.3754
  166loPI   C6A 2652   1.613  10.028   8.531 -0.1017 -0.0215  0.2299
  166loPI   C1B 2653   1.257   9.921   9.800 -0.1297  0.1034  0.0952
  166loPI   C2B 2654   1.395  10.005   9.410  0.0550  0.3338  0.0314
  166loPI   C3B 2655   1.573  10.044   9.051  0.2063  0.1099  0.1453
  166loPI   C4B 2656   1.869  10.188   8.913  0.3278 -0.2125  0.2120
  167loPI    C1 2657   4.287  14.698  11.199 -0.2282 -0.1676  0.1049
  167loPI    C2 2658   4.486  14.653  11.544  0.1783 -0.1369 -0.1189
  167loPI    C3 2659   4.087  14.691  11.546  0.1980  0.1182  0.3655
  167loPI   PO4 2660   4.357  14.447  11.026 -0.2251  0.1689 -0.0991
  167loPI   GL1 2661   4.422  14.531  10.626  0.1249 -0.1667 -0.1818
  167loPI   GL2 2662   4.645  14.548  10.428 -0.1262  0.0568  0.3162
  167loPI   C1A 2663   4.264  14.639  10.139  0.2777 -0.0484  0.1090
  167loPI   C2A 2664   4.268  14.735   9.705 -0.1394  0.2406 -0.1813
  167loPI   C3A 2665   4.255  14.944   9.302  0.2400 -0.0451 -0.0406
  167loPI   C4A 2666   4.303  14.924   8.808  0.0901  0.0486 -0.1579
  167loPI   C5A 2667   4.239  14.628   8.466  0.0260  0.1935 -0.1975
  167loPI   C6A 2668   3.916  14.391   8.122  0.0728 -0.0327 -0.0373
  167loPI   C1B 2669   4.746  14.575   9.969  0.0519 -0.0093 -0.0466
  167loPI   C2B 2670   4.753  14.581   9.564 -0.1330 -0.1919 -0.1508
  167loPI   C3B 2671   4.618  14.528   9.091 -0.1494  0.1186 -0.0887
  167loPI   C4B 2672   4.670  14.429   8.669 -0.2221 -0.0717  0.0489
  168loPI    C1 2673   2.021  13.400  10.731 -0.2288  0.1988 -0.1123
  168loPI    C2 2674   2.312  13.466  10.997 -0.1546 -0.5016 -0.0004
  168loPI    C3 2675   1.929  13.488  11.111 -0.1494  0.0584 -0.0601
  168loPI   PO4 2676   2.145  13.128  10.544  0.0670  0.0350  0.0337
  168loPI   GL1 2677   1.990  12.988  10.101 -0.2703 -0.1664  0.1237
  168loPI   GL2 2678   2.045  12.588  10.107  0.3704  0.2026  0.0468
  168loPI   C1A 2679   2.328  12.887   9.899 -0.2917 -0.2384 -0.0137
  168loPI   C2A 2680   2.416  12.795   9.447  0.2520 -0.0985  0.4063
  168loPI   C3A 2681   2.376  12.814   9.061 -0.0521 -0.2544  0.0099
  168loPI   C4A 2682   2.471  12.497   8.776 -0.0039 -0.1155  0.1164
  168loPI   C5A 2683   2.542  12.236   8.483 -0.0252 -0.1742  0.1763
  168loPI   C6A 2684   2.973  12.084   8.237 -0.1261 -0.2399  0.2178
  168loPI   C1B 2685   2.039  12.492   9.658  0.0360  0.0455 -0.0306
  168loPI   C2B 2686   2.075  12.423   9.212  0.0674  0.3532 -0.1398
  168loPI   C3B 2687   2.020  12.423   8.871 -0.3572  0.0497  0.0075
  168loPI   C4B 2688   1.989  12.512   8.588  0.1527  0.0559  0.2635
  169loPI    C1 2689  13.777   3.560  11.011  0.0393  0.0565  0.2344
  169loPI    C2 2690  13.552   3.235  10.948  0.0130  0.1419 -0.1338
  169loPI    C3 2691  13.924   3.197  11.091 -0.0787 -0.0304  0.0629
  169loPI   PO4 2692  13.799   3.735  10.726 -0.2059 -0.0148 -0.1632
  169loPI   GL1 2693  13.912   3.758  10.280  0.2146  0.0306  0.0685
  169loPI   GL2 2694  14.056   4.134  10.130 -0.0029  0.0881 -0.1991
  169loPI   C1A 2695  13.750   3.818   9.932 -0.3559  0.0227  0.1425
  169loPI   C2A 2696  13.881   3.940   9.442 -0.1693  0.0292  0.0536
  169loPI   C3A 2697  13.933   3.954   9.033  0.1239 -0.2898  0.0364
  169loPI   C4A 2698  13.925   3.846   8.596  0.0167  0.4829 -0.0744
  169loPI   C5A 2699  13.854   3.563   8.240  0.0115  0.4670 -0.3792
  169loPI   C6A 2700  13.568   3.275   8.037  0.0923 -0.3692 -0.1773
  169loPI   C1B 2701  13.934   4.368   9.789 -0.4341  0.1805 -0.0306
  169loPI   C2B 2702  13.881   4.409   9.372 -0.0484  0.1233  0.0947
  169loPI   C3B 2703  14.046   4.521   9.059 -0.1989  0.2852 -0.0240
  169loPI   C4B 2704  14.118   4.536   8.645 -0.3186 -0.3221 -0.1496
  170loPI    C1 2705   7.359   4.461  10.133 -0.0418  0.0893  0.3515
  170loPI    C2 2706   6.969   4.425  10.213 -0.1651 -0.0298 -0.2497
  170loPI    C3 2707   7.188   4.100  10.132 -0.0334  0.0742 -0.3151
  170loPI   PO4 2708   7.383   4.663   9.914  0.2413 -0.5990 -0.1237
  170loPI   GL1 2709   7.375   4.447   9.570  0.0193 -0.0977  0.2168
  170loPI   GL2 2710   7.153   4.253   9.615  0.0680  0.1919  0.1253
  170loPI   C1A 2711   7.274   4.734   9.282 -0.1878 -0.2674 -0.0907
  170loPI   C2A 2712   7.252   4.759   8.785  0.0733  0.0868  0.1850
  170loPI   C3A 2713   7.307   4.445   8.530  0.0945  0.0163 -0.0439
  170loPI   C4A 2714   7.349   4.090   8.232 -0.2463 -0.0311  0.1183
  170loPI   C5A 2715   7.227   3.954   7.985  0.0770  0.0303  0.2190
  170loPI   C6A 2716   6.927   3.664   7.622 -0.0427  0.0868 -0.1410
  170loPI   C1B 2717   6.908   4.475   9.360  0.2672  0.0314  0.1490
  170loPI   C2B 2718   6.651   4.690   9.102 -0.1346 -0.1287 -0.4299
  170loPI   C3B 2719   6.323   4.716   8.745  0.4375  0.2888  0.1608
  170loPI   C4B 2720   6.052   4.796   8.430  0.0240  0.1445  0.0687
  171loPI    C1 2721   6.753   4.692  10.599  0.1012  0.0854 -0.1871
  171loPI    C2 2722   7.152   4.678  10.574  0.1441  0.4330  0.1856
  171loPI    C3 2723   6.965   4.505  10.882 -0.0472 -0.2290 -0.2798
  171loPI   PO4 2724   6.642   4.845  10.370 -0.1504 -0.2280 -0.1360
  171loPI   GL1 2725   6.418   4.977   9.981 -0.2426  0.0640  0.3168
  171loPI   GL2 2726   6.078   5.011  10.008 -0.0242  0.1203  0.1721
  171loPI   C1A 2727   6.578   5.019   9.487  0.1105  0.1978  0.1730
  171loPI   C2A 2728   6.455   5.198   9.098  0.0150 -0.1052 -0.0990
  171loPI   C3A 2729   6.014   5.242   8.874  0.1504  0.0621  0.1187
  171loPI   C4A 2730   5.818   5.378   8.518 -0.0518  0.3204 -0.1076
  171loPI   C5A 2731   6.065   5.336   8.273 -0.0446 -0.0886 -0.1143
  171loPI   C6A 2732   6.408   5.228   8.515 -0.3961  0.1092  0.1929
  171loPI   C1B 2733   5.860   4.749   9.647 -0.1680  0.3150  0.0052
  171loPI   C2B 2734   5.518   4.664   9.461 -0.4205  0.0915 -0.1863
  171loPI   C3B 2735   5.437   4.564   9.043  0.2189  0.0805 -0.0792
  171loPI   C4B 2736   5.324   4.574   8.670 -0.0585 -0.1301 -0.1350
  172loPI    C1 2737   5.751  12.012  10.487  0.1560 -0.4384  0.1370
  172loPI    C2 2738   5.520  12.008  10.813 -0.0219  0.3099  0.0390
  172loPI    C3 2739   5.902  12.124  10.840  0.1386 -0.1994  0.0703
  172loPI   PO4 2740   5.670  11.800  10.336  0.4476 -0.1279  0.1150
  172loPI   GL1 2741   5.471  11.901   9.949  0.1193  0.0383 -0.0168
  172loPI   GL2 2742   5.577  11.771   9.777 -0.1773  0.1019 -0.0299
  172loPI   C1A 2743   5.365  12.065   9.492 -0.1959  0.0274  0.0146
  172loPI   C2A 2744   5.581  12.253   9.065 -0.1104  0.0696 -0.0276
  172loPI   C3A 2745   5.959  12.430   8.995 -0.1707 -0.0349 -0.2197
  172loPI   C4A 2746   6.054  12.799   8.810  0.0199  0.0802  0.3178
  172loPI   C5A 2747   6.339  13.006   8.513 -0.1342  0.3654  0.1048
  172loPI   C6A 2748   6.479  13.445   8.619  0.1666 -0.0566  0.3000
  172loPI   C1B 2749   5.734  11.689   9.431  0.2867  0.0256  0.2031
  172loPI   C2B 2750   5.588  11.718   9.128  0.1266 -0.3302 -0.1994
  172loPI   C3B 2751   5.609  11.845   8.730  0.1240  0.1534 -0.2305
  172loPI   C4B 2752   5.501  11.753   8.398  0.0035 -0.0706  0.2333
  173loPI    C1 2753   0.148  13.543  10.582  0.2010  0.0458  0.0179
  173loPI    C2 2754   0.139  13.374  10.944 -0.1328  0.0419  0.0103
  173loPI    C3 2755   0.486  13.503  10.793  0.0454 -0.1675  0.2319
  173loPI   PO4 2756  -0.050  13.442  10.489  0.1333 -0.0601 -0.0886
  173loPI   GL1 2757  -0.165  13.099  10.199  0.2136  0.1447 -0.0300
  173loPI   GL2 2758   0.045  13.256  10.005 -0.0414 -0.0859 -0.0633
  173loPI   C1A 2759  -0.258  12.752   9.892 -0.0513 -0.1423  0.3867
  173loPI   C2A 2760  -0.417  12.763   9.487 -0.0256  0.2686 -0.0712
  173loPI   C3A 2761  -0.328  12.705   9.107 -0.0441  0.2231  0.0820
  173loPI   C4A 2762  -0.216  12.489   8.780  0.1471  0.0686 -0.0104
  173loPI   C5A 2763  -0.487  12.369   8.438  0.0210 -0.0538 -0.2552
  173loPI   C6A 2764  -0.863  12.280   8.297 -0.1029 -0.1963  0.5921
  173loPI   C1B 2765  -0.012  13.150   9.616 -0.5296 -0.1250 -0.0663
  173loPI   C2B 2766   0.128  12.849   9.291 -0.0871  0.0270  0.1097
  173loPI   C3B 2767   0.175  12.769   8.820 -0.1852 -0.3503  0.3447
  173loPI   C4B 2768   0.284  12.494   8.528  0.1940  0.4140 -0.2675
  174loPI    C1 2769   2.536  11.859  11.164 -0.2147  0.0708  0.0330
  174loPI    C2 2770   2.757  11.538  11.075 -0.0665  0.1959 -0.0551
  174loPI    C3 2771   2.407  11.494  11.263  0.1216  0.0090  0.2599
  174loPI   PO4 2772   2.571  11.992  10.951  0.2041  0.0011  0.0448
  174loPI   GL1 2773   2.530  12.209  10.576  0.1644  0.2438 -0.1264
  174loPI   GL2 2774   2.737  11.949  10.372  0.1141  0.0031 -0.0622
  174loPI   C1A 2775   2.700  12.389  10.090  0.1291  0.0248 -0.0738
  174loPI   C2A 2776   2.522  12.365   9.676 -0.0729 -0.0723  0.3680
  174loPI   C3A 2777   2.613  12.332   9.215  0.0074 -0.1532 -0.2054
  174loPI   C4A 2778   2.644  12.013   8.907 -0.0027 -0.1577  0.0184
  174loPI   C5A 2779   2.636  11.773   8.498 -0.3324  0.0356  0.0192
  174loPI   C6A 2780   2.568  11.748   8.058  0.1177 -0.0510 -0.2150
  174loPI   C1B 2781   2.679  11.877   9.918 -0.0162 -0.1062 -0.2116
  174loPI   C2B 2782   2.461  11.559   9.760 -0.1779  0.0532 -0.1580
  174loPI   C3B 2783   2.275  11.222   9.867 -0.4221 -0.1832 -0.5308
  174loPI   C4B 2784   2.016  10.802  10.015 -0.1218 -0.2089  0.1284
  175loPI    C1 2785  13.246  11.605  10.929  0.0686  0.3499  0.0509
  175loPI    C2 2786  12.901  11.573  11.129  0.0048  0.0675 -0.0990
  175loPI    C3 2787  13.215  11.752  11.300 -0.1062  0.0023  0.1788
  175loPI   PO4 2788  13.290  11.380  10.850  0.0186  0.1292  0.0038
  175loPI   GL1 2789  13.216  11.262  10.363  0.3286 -0.0189  0.1799
  175loPI   GL2 2790  13.037  11.545  10.435  0.0624  0.1769 -0.1203
  175loPI   C1A 2791  13.101  11.125   9.913  0.1495  0.3771  0.1171
  175loPI   C2A 2792  13.048  11.150   9.484 -0.3342  0.2178  0.1381
  175loPI   C3A 2793  12.870  11.222   9.054  0.0230  0.0606 -0.2706
  175loPI   C4A 2794  12.871  11.208   8.786  0.3360 -0.2479 -0.0433
  175loPI   C5A 2795  13.107  11.296   8.422 -0.0230 -0.1271 -0.1846
  175loPI   C6A 2796  13.127  11.614   8.177 -0.0673 -0.0385 -0.2865
  175loPI   C1B 2797  12.897  11.603  10.015 -0.0940  0.0917  0.1933
  175loPI   C2B 2798  12.901  11.630   9.618  0.1163  0.2078  0.0839
  175loPI   C3B 2799  12.772  11.720   9.183  0.0660  0.0319  0.0111
  175loPI   C4B 2800  12.786  12.055   8.845  0.0266  0.0572 -0.2736
  176loPI    C1 2801   2.751   8.831  10.909 -0.0686 -0.5282 -0.1745
  176loPI    C2 2802   2.378   8.924  10.798  0.0923  0.1169 -0.2118
  176loPI    C3 2803   2.463   8.868  11.185 -0.0428 -0.0459 -0.2044
  176loPI   PO4 2804   2.806   8.638  10.787 -0.0879 -0.0833 -0.0587
  176loPI   GL1 2805   2.780   8.588  10.358 -0.0835 -0.0481  0.1287
  176loPI   GL2 2806   2.498   8.516  10.311  0.0778 -0.1687 -0.0726
  176loPI   C1A 2807   3.070   8.721  10.018  0.1302  0.2649 -0.1592
  176loPI   C2A 2808   2.908   8.960   9.726 -0.2991 -0.0031  0.3199
  176loPI   C3A 2809   2.921   8.947   9.366  0.0023 -0.0303 -0.1081
  176loPI   C4A 2810   2.705   8.970   8.943 -0.2425 -0.1836 -0.1412
  176loPI   C5A 2811   2.942   8.899   8.539  0.0820  0.1436  0.1018
  176loPI   C6A 2812   3.426   8.899   8.450  0.3489  0.1059 -0.2506
  176loPI   C1B 2813   2.609   8.465   9.872 -0.1173  0.0751  0.1926
  176loPI   C2B 2814   2.686   8.504   9.350  0.0918 -0.3896  0.0702
  176loPI   C3B 2815   2.848   8.427   8.933  0.1655 -0.0189  0.1201
  176loPI   C4B 2816   2.885   7.946   8.651  0.1762  0.2843 -0.0575
  177loPI    C1 2817  15.646   7.900  10.807 -0.0008 -0.0617 -0.0790
  177loPI    C2 2818  15.905   8.204  10.776 -0.0033 -0.0437  0.0703
  177loPI    C3 2819  15.571   8.247  10.992 -0.1326 -0.0664 -0.1225
  177loPI   PO4 2820  15.570   7.880  10.540 -0.0036 -0.1133 -0.0057
  177loPI   GL1 2821  15.618   7.683  10.172 -0.3845  0.3354  0.0018
  177loPI   GL2 2822  15.529   7.473  10.243 -0.1055  0.1031  0.1389
  177loPI   C1A 2823  15.780   7.760   9.771 -0.0902 -0.1648  0.0764
  177loPI   C2A 2824  15.768   7.834   9.331 -0.1133  0.2280  0.2551
  177loPI   C3A 2825  15.587   7.730   9.080 -0.1080 -0.0920  0.0454
  177loPI   C4A 2826  15.453   7.409   8.888  0.2075 -0.4185  0.0224
  177loPI   C5A 2827  15.238   7.310   8.528 -0.1502 -0.1731 -0.1532
  177loPI   C6A 2828  15.096   6.992   8.212 -0.4827  0.1520  0.2143
  177loPI   C1B 2829  15.237   7.736   9.898 -0.1598  0.0142 -0.0125
  177loPI   C2B 2830  15.305   7.649   9.495 -0.1787  0.0211  0.1138
  177loPI   C3B 2831  15.110   7.703   9.075  0.3403  0.2318 -0.0418
  177loPI   C4B 2832  14.744   7.626   8.913 -0.1557  0.2013  0.1421
  178loPI    C1 2833   5.673  18.078  10.857 -0.1793  0.2510 -0.3165
  178loPI    C2 2834   5.888  18.324  11.089 -0.0091 -0.0134 -0.1896
  178loPI    C3 2835   5.498  18.272  11.161  0.0717 -0.2029  0.1335
  178loPI   PO4 2836   5.832  18.119  10.593 -0.5731  0.0712  0.0755
  178loPI   GL1 2837   5.559  18.136  10.170 -0.1252 -0.2171  0.0730
  178loPI   GL2 2838   5.196  18.134  10.064 -0.1801  0.3939 -0.2075
  178loPI   C1A 2839   5.663  18.468   9.964  0.2360  0.1941 -0.0330
  178loPI   C2A 2840   5.763  18.622   9.523 -0.1852 -0.0162  0.0528
  178loPI   C3A 2841   5.678  18.671   9.080 -0.0605  0.2887 -0.2953
  178loPI   C4A 2842   5.506  18.590   8.679 -0.4870  0.1033  0.1081
  178loPI   C5A 2843   5.351  18.584   8.172  0.1903  0.0961  0.1560
  178loPI   C6A 2844   5.406  18.842   7.763  0.1635 -0.0199  0.0454
  178loPI   C1B 2845   5.316  18.131   9.629 -0.3422  0.2286 -0.0774
  178loPI   C2B 2846   5.319  17.968   9.315 -0.2776 -0.1127  0.0007
  178loPI   C3B 2847   5.648  17.729   8.968 -0.0047 -0.1338  0.4255
  178loPI   C4B 2848   5.778  17.335   8.968  0.0553 -0.3178  0.0867
  179loPI    C1 2849   3.401   0.406  10.959  0.0721 -0.0125 -0.0428
  179loPI    C2 2850   3.758   0.578  11.014  0.2801 -0.4327 -0.0417
  179loPI    C3 2851   3.676   0.226  11.186 -0.1986 -0.2637  0.0937
  179loPI   PO4 2852   3.362   0.502  10.708  0.1963  0.2708 -0.3404
  179loPI   GL1 2853   3.145   0.466  10.372  0.1259 -0.1636  0.3016
  179loPI   GL2 2854   2.813   0.564  10.342 -0.1734 -0.1012  0.3267
  179loPI   C1A 2855   3.459   0.357  10.095 -0.0054  0.0632 -0.1368
  179loPI   C2A 2856   3.408   0.218   9.736  0.1839 -0.2380  0.0483
  179loPI   C3A 2857   3.336   0.086   9.328 -0.2617 -0.1617  0.0515
  179loPI   C4A 2858   3.346  -0.010   8.961 -0.0313 -0.2818  0.3001
  179loPI   C5A 2859   3.464  -0.046   8.582  0.0898 -0.0784 -0.1046
  179loPI   C6A 2860   3.551   0.107   8.171 -0.0518  0.1630  0.2928
  179loPI   C1B 2861   2.492   0.564  10.093 -0.2639  0.0266  0.0380
  179loPI   C2B 2862   2.362   0.477   9.634  0.1220  0.1748  0.2315
  179loPI   C3B 2863   2.552   0.662   9.166 -0.0922  0.1591 -0.2462
  179loPI   C4B 2864   2.780   0.806   8.857 -0.0739  0.2534  0.0390
  180loPI    C1 2865   4.354  17.565  11.001  0.0920 -0.1342 -0.0829
  180loPI    C2 2866   4.073  17.387  11.223 -0.1271 -0.0432 -0.2833
  180loPI    C3 2867   4.310  17.665  11.386 -0.0453 -0.2339 -0.0719
  180loPI   PO4 2868   4.277  17.534  10.773  0.3470 -0.0112  0.0695
  180loPI   GL1 2869   3.965  17.341  10.481 -0.0618  0.1763 -0.0785
  180loPI   GL2 2870   3.849  17.572  10.368  0.1078  0.0650 -0.0318
  180loPI   C1A 2871   3.970  17.056  10.137 -0.0832  0.4890  0.0494
  180loPI   C2A 2872   3.827  17.072   9.876 -0.1790 -0.1600  0.1805
  180loPI   C3A 2873   3.827  17.275   9.533 -0.0938 -0.3102 -0.1497
  180loPI   C4A 2874   3.813  17.219   9.124  0.2043  0.1946 -0.1787
  180loPI   C5A 2875   4.060  17.029   8.740 -0.4108 -0.2027 -0.2417
  180loPI   C6A 2876   4.295  16.839   8.447  0.2668 -0.0846 -0.4330
  180loPI   C1B 2877   3.990  17.509   9.938 -0.0043  0.1718  0.1251
  180loPI   C2B 2878   4.279  17.497   9.580  0.0908  0.2313 -0.2805
  180loPI   C3B 2879   4.316  17.230   9.275 -0.0959 -0.0451  0.3649
  180loPI   C4B 2880   4.462  16.770   9.245  0.1470 -0.1722 -0.2467
  181loPI    C1 2881   7.799   4.091  10.392  0.1005 -0.1830  0.1416
  181loPI    C2 2882   7.647   4.437  10.522  0.1949 -0.0474 -0.1034
  181loPI    C3 2883   8.043   4.383  10.514  0.1882 -0.0775 -0.2721
  181loPI   PO4 2884   7.748   4.039  10.235 -0.3477 -0.0319 -0.3061
  181loPI   GL1 2885   7.654   4.078   9.802  0.2682  0.2684 -0.0064
  181loPI   GL2 2886   7.479   3.835   9.837  0.1027  0.0686 -0.1550
  181loPI   C1A 2887   7.530   3.963   9.325 -0.0680  0.2146  0.0281
  181loPI   C2A 2888   7.239   4.259   9.007  0.0248 -0.4037  0.1433
  181loPI   C3A 2889   6.936   4.423   8.847  0.1436 -0.2066  0.1809
  181loPI   C4A 2890   6.777   4.549   8.366 -0.1039  0.0634  0.1566
  181loPI   C5A 2891   7.002   4.415   8.038  0.3046 -0.1360  0.0875
  181loPI   C6A 2892   7.164   4.550   7.723 -0.0486  0.0231 -0.1490
  181loPI   C1B 2893   7.154   3.675   9.598  0.3740  0.1038  0.0567
  181loPI   C2B 2894   7.091   3.743   9.203 -0.2349  0.1495  0.2514
  181loPI   C3B 2895   7.181   3.739   8.817 -0.1655  0.0180 -0.0879
  181loPI   C4B 2896   7.532   4.053   8.733 -0.3473  0.0117 -0.3161
  182loPI    C1 2897  15.138   4.878  10.912  0.1036  0.0016  0.0618
  182loPI    C2 2898  15.215   4.486  10.924  0.0290 -0.0084  0.2575
  182loPI    C3 2899  15.466   4.744  11.098  0.0930  0.0338  0.1040
  182loPI   PO4 2900  15.018   4.885  10.677  0.1432  0.1538 -0.0636
  182loPI   GL1 2901  14.912   4.860  10.287  0.0879  0.1154 -0.1187
  182loPI   GL2 2902  15.250   4.715  10.255 -0.0259  0.5495  0.1484
  182loPI   C1A 2903  14.812   4.763   9.847 -0.0063  0.0575 -0.4105
  182loPI   C2A 2904  15.030   4.652   9.439  0.5639  0.0659  0.0192
  182loPI   C3A 2905  15.138   4.575   9.002  0.1335  0.4317  0.1636
  182loPI   C4A 2906  15.195   4.788   8.523  0.0039  0.1539  0.1628
  182loPI   C5A 2907  15.052   4.849   8.142  0.0584 -0.0037  0.1502
  182loPI   C6A 2908  14.919   4.562   7.802  0.3698  0.1121 -0.1952
  182loPI   C1B 2909  15.306   4.546   9.829  0.0171 -0.3067 -0.2559
  182loPI   C2B 2910  15.456   4.318   9.470 -0.1191  0.2697  0.0919
  182loPI   C3B 2911  15.608   4.210   9.085 -0.0402  0.3027 -0.0155
  182loPI   C4B 2912  15.492   4.301   8.722  0.1665  0.2746  0.0207
  183loPI    C1 2913  16.505  17.962  10.345  0.0886  0.1886 -0.1635
  183loPI    C2 2914  16.725  18.294  10.386  0.2653  0.0517  0.0198
  183loPI    C3 2915  16.621  18.082  10.709  0.2543 -0.1363 -0.1056
  183loPI   PO4 2916  16.614  17.829  10.231 -0.0687 -0.0330  0.1091
  183loPI   GL1 2917  16.623  17.723   9.750  0.2587 -0.2386 -0.1750
  183loPI   GL2 2918  16.323  17.723   9.764  0.0287  0.0543 -0.0754
  183loPI   C1A 2919  16.544  17.720   9.290  0.3403 -0.1092 -0.0916
  183loPI   C2A 2920  16.658  17.803   8.877 -0.0341 -0.0054  0.3185
  183loPI   C3A 2921  16.720  17.784   8.463 -0.1190 -0.0022  0.0796
  183loPI   C4A 2922  16.712  18.082   8.185 -0.2545 -0.1631  0.1432
  183loPI   C5A 2923  16.397  18.366   8.144  0.3412 -0.2833 -0.1303
  183loPI   C6A 2924  16.269  18.436   7.736  0.0364  0.0110  0.1038
  183loPI   C1B 2925  16.332  18.096   9.524 -0.1561 -0.1580 -0.0828
  183loPI   C2B 2926  16.423  18.201   9.129  0.0708 -0.0653 -0.2027
  183loPI   C3B 2927  16.599  18.497   8.924  0.3170 -0.0306  0.1834
  183loPI   C4B 2928  16.641  18.656   8.513  0.0610 -0.1827  0.2017
  184loPI    C1 2929  14.142  13.695  11.203  0.2000 -0.0970 -0.0134
  184loPI    C2 2930  13.750  13.619  11.228  0.1580  0.2168  0.3684
  184loPI    C3 2931  14.012  13.378  11.411  0.1562 -0.0558  0.0221
  184loPI   PO4 2932  14.147  13.784  10.931 -0.2811 -0.1337 -0.1524
  184loPI   GL1 2933  14.358  13.610  10.570 -0.3520  0.1602 -0.2937
  184loPI   GL2 2934  14.167  13.413  10.367 -0.1495  0.0890 -0.0157
  184loPI   C1A 2935  14.564  13.624  10.167  0.0098  0.0183  0.2383
  184loPI   C2A 2936  14.354  13.718   9.889 -0.0753  0.1792 -0.0353
  184loPI   C3A 2937  14.294  13.860   9.597  0.2470  0.1815  0.3024
  184loPI   C4A 2938  14.252  14.089   9.283  0.0608  0.2027  0.2026
  184loPI   C5A 2939  14.269  13.922   8.878 -0.1971 -0.0024 -0.0587
  184loPI   C6A 2940  14.406  14.112   8.500 -0.1115 -0.2678  0.1098
  184loPI   C1B 2941  14.326  13.200  10.043 -0.0248  0.1284 -0.1968
  184loPI   C2B 2942  14.304  12.953   9.692  0.1042  0.0663  0.0561
  184loPI   C3B 2943  14.343  13.016   9.264  0.1076  0.0900  0.0684
  184loPI   C4B 2944  14.225  12.772   8.888 -0.1199 -0.1771  0.3062
  185loPI    C1 2945   9.868  12.987  11.245  0.2841 -0.0046 -0.0271
  185loPI    C2 2946   9.634  13.310  11.221  0.1686 -0.0796  0.0772
  185loPI    C3 2947   9.911  13.285  11.509  0.1452 -0.0943  0.0985
  185loPI   PO4 2948   9.985  12.926  10.893 -0.0937 -0.0281  0.0851
  185loPI   GL1 2949   9.941  12.690  10.517  0.0974 -0.0109 -0.1180
  185loPI   GL2 2950  10.104  12.946  10.353 -0.2674 -0.0966  0.0364
  185loPI   C1A 2951   9.895  12.593  10.163  0.0411 -0.1993  0.0596
  185loPI   C2A 2952   9.739  12.738   9.768 -0.3642 -0.0091 -0.1366
  185loPI   C3A 2953   9.712  12.663   9.340 -0.1706 -0.0309  0.0823
  185loPI   C4A 2954   9.664  12.623   9.022 -0.1269  0.0776 -0.2679
  185loPI   C5A 2955   9.524  12.358   8.750 -0.1931 -0.0151  0.1232
  185loPI   C6A 2956   9.326  11.895   8.573 -0.0029  0.1065  0.0810
  185loPI   C1B 2957  10.200  12.947   9.908  0.0244 -0.2095 -0.1247
  185loPI   C2B 2958  10.233  12.936   9.367 -0.0205 -0.1896  0.0481
  185loPI   C3B 2959  10.115  13.263   9.013  0.3088  0.0845 -0.0790
  185loPI   C4B 2960  10.094  13.353   8.557  0.1267 -0.1568 -0.0930
  186loPI    C1 2961   3.832   3.866  10.700 -0.0458  0.1510 -0.0378
  186loPI    C2 2962   3.651   4.222  10.688 -0.0820  0.1393  0.1321
  186loPI    C3 2963   3.975   4.170  10.916 -0.0095  0.0933  0.0198
  186loPI   PO4 2964   3.650   3.754  10.603 -0.1092 -0.1178  0.0866
  186loPI   GL1 2965   3.612   3.605  10.139 -0.0299  0.0250  0.0410
  186loPI   GL2 2966   3.567   3.310   9.849  0.1409  0.0847  0.0954
  186loPI   C1A 2967   3.694   3.897   9.668  0.2224  0.2989 -0.0249
  186loPI   C2A 2968   3.853   3.734   9.257 -0.3247  0.2708  0.1392
  186loPI   C3A 2969   4.055   3.938   8.886 -0.1613 -0.3395 -0.0255
  186loPI   C4A 2970   4.110   4.020   8.592 -0.3629 -0.2161 -0.1586
  186loPI   C5A 2971   4.184   4.202   8.245 -0.1065  0.1020  0.1842
  186loPI   C6A 2972   4.421   4.542   8.241 -0.0429 -0.0129 -0.0245
  186loPI   C1B 2973   3.832   3.318   9.561  0.1657  0.0484  0.1757
  186loPI   C2B 2974   4.189   3.195   9.356  0.0416 -0.0570 -0.0566
  186loPI   C3B 2975   4.437   3.065   9.015 -0.0891 -0.0030 -0.0440
  186loPI   C4B 2976   4.842   3.184   8.795 -0.2095 -0.0756  0.1847
  187loPI    C1 2977   4.256   9.349  10.330 -0.0476 -0.0910  0.1068
  187loPI    C2 2978   4.298   8.964  10.428  0.0198 -0.0991  0.0466
  187loPI    C3 2979   4.597   9.158  10.246  0.0848  0.0517  0.3088
  187loPI   PO4 2980   4.001   9.424  10.309  0.0729  0.3069 -0.0092
  187loPI   GL1 2981   3.702   9.415   9.989  0.2579  0.0062 -0.1412
  187loPI   GL2 2982   3.523   9.276  10.290 -0.3467 -0.3536 -0.1825
  187loPI   C1A 2983   3.719   9.385   9.483  0.2077  0.0397  0.1800
  187loPI   C2A 2984   3.626   9.444   9.014  0.0714  0.0490  0.2645
  187loPI   C3A 2985   3.507   9.340   8.567  0.3942  0.2851  0.1305
  187loPI   C4A 2986   3.092   9.305   8.340  0.0128 -0.0564 -0.2000
  187loPI   C5A 2987   2.689   9.503   8.377 -0.0330 -0.0285 -0.1424
  187loPI   C6A 2988   2.316   9.286   8.154  0.3299 -0.1066  0.2618
  187loPI   C1B 2989   3.183   9.387  10.025 -0.2517  0.2815 -0.4855
  187loPI   C2B 2990   3.175   9.423   9.631 -0.1855  0.5134 -0.3151
  187loPI   C3B 2991   3.123   9.364   9.220 -0.1283  0.3482  0.1713
  187loPI   C4B 2992   3.046   9.487   8.866 -0.1432 -0.1207  0.3086
  188loPI    C1 2993   5.102   9.715  10.182  0.0153 -0.1065  0.2356
  188loPI    C2 2994   5.459   9.538  10.223  0.2202  0.1770 -0.2297
  188loPI    C3 2995   5.369   9.861  10.442 -0.0093 -0.2604  0.3485
  188loPI   PO4 2996   4.959   9.536  10.155 -0.1914 -0.0744 -0.0539
  188loPI   GL1 2997   4.628   9.432   9.798  0.0104 -0.3424  0.1883
  188loPI   GL2 2998   4.389   9.522   9.774 -0.1204 -0.0875 -0.0660
  188loPI   C1A 2999   4.757   9.469   9.364 -0.0533  0.1570  0.2293
  188loPI   C2A 3000   4.869   9.694   9.040  0.1596  0.1144 -0.1092
  188loPI   C3A 3001   5.017   9.698   8.577  0.0214 -0.0871  0.1232
  188loPI   C4A 3002   5.376   9.922   8.367  0.0156 -0.1891  0.1460
  188loPI   C5A 3003   5.634  10.019   8.004 -0.0425 -0.2555 -0.0940
  188loPI   C6A 3004   5.641  10.366   7.703 -0.3503  0.0831 -0.1633
  188loPI   C1B 3005   4.199   9.387   9.424  0.1633  0.0289  0.0826
  188loPI   C2B 3006   4.419   9.480   8.982 -0.1613 -0.2781  0.0992
  188loPI   C3B 3007   4.541   9.559   8.566 -0.3824  0.1817 -0.0665
  188loPI   C4B 3008   4.665   9.623   8.163 -0.2122  0.0414  0.2477
  189loPI    C1 3009  16.941  15.346  10.704 -0.2200 -0.0642  0.0727
  189loPI    C2 3010  16.977  15.147  11.049 -0.1111  0.0888  0.1509
  189loPI    C3 3011  16.775  15.492  11.038 -0.1276  0.0763  0.0582
  189loPI   PO4 3012  17.265  15.244  10.600  0.2170 -0.7553 -0.2053
  189loPI   GL1 3013  17.450  15.187  10.122  0.1927 -0.0149  0.2116
  189loPI   GL2 3014  17.231  14.997  10.128 -0.0413 -0.1065 -0.0431
  189loPI   C1A 3015  17.747  15.255   9.791  0.0821  0.1039 -0.2910
  189loPI   C2A 3016  17.970  15.111   9.350 -0.1755 -0.2170 -0.0202
  189loPI   C3A 3017  18.081  15.040   8.850  0.1229  0.0104 -0.2194
  189loPI   C4A 3018  18.451  15.263   8.445 -0.3277  0.5145  0.1645
  189loPI   C5A 3019  18.905  15.076   8.513  0.1734  0.2814  0.0813
  189loPI   C6A 3020  19.238  14.904   8.858  0.1443 -0.1761  0.2156
  189loPI   C1B 3021  17.207  14.916   9.739 -0.1737 -0.2497  0.1271
  189loPI   C2B 3022  17.120  14.817   9.334 -0.1679 -0.0723  0.0709
  189loPI   C3B 3023  16.989  14.857   8.967 -0.0372  0.1240  0.1692
  189loPI   C4B 3024  16.899  14.807   8.493  0.2825  0.0971  0.1047
  190loPI    C1 3025   3.999   7.629  10.754 -0.1905 -0.0409  0.0659
  190loPI    C2 3026   3.843   7.988  10.839  0.3174  0.2141 -0.0384
  190loPI    C3 3027   4.050   7.789  11.118 -0.1337 -0.0996  0.0840
  190loPI   PO4 3028   3.724   7.602  10.492  0.1809  0.0515 -0.0872
  190loPI   GL1 3029   3.679   7.584  10.120  0.0008 -0.0780  0.0549
  190loPI   GL2 3030   3.895   7.814   9.956 -0.4155  0.1341  0.0183
  190loPI   C1A 3031   3.277   7.779  10.008 -0.1681  0.1258  0.0085
  190loPI   C2A 3032   3.103   7.731   9.766 -0.1953 -0.1916 -0.0986
  190loPI   C3A 3033   3.112   7.647   9.340  0.1193 -0.1483  0.1334
  190loPI   C4A 3034   3.254   7.656   8.892  0.0394  0.1635 -0.1243
  190loPI   C5A 3035   3.313   7.751   8.433 -0.0433 -0.1648  0.3794
  190loPI   C6A 3036   3.112   7.779   8.055  0.3071 -0.1949  0.1316
  190loPI   C1B 3037   3.675   7.790   9.670 -0.0344 -0.1409 -0.2087
  190loPI   C2B 3038   3.673   7.824   9.210 -0.0319 -0.0737  0.2964
  190loPI   C3B 3039   3.697   7.837   8.792 -0.0920 -0.0094  0.2293
  190loPI   C4B 3040   3.717   8.140   8.388  0.1083  0.3280  0.2766
  191loPI    C1 3041  16.516  11.585  10.829 -0.0552 -0.0062 -0.1342
  191loPI    C2 3042  16.404  11.244  11.006  0.1478 -0.1414 -0.2632
  191loPI    C3 3043  16.755  11.411  11.098 -0.0136  0.1121 -0.0941
  191loPI   PO4 3044  16.350  11.562  10.565  0.1874 -0.0408  0.1524
  191loPI   GL1 3045  15.976  11.572  10.469  0.1780 -0.3304  0.0724
  191loPI   GL2 3046  15.822  11.262  10.285  0.1519  0.2127  0.0356
  191loPI   C1A 3047  15.940  11.740  10.034  0.0114 -0.0874  0.0153
  191loPI   C2A 3048  15.924  11.842   9.552  0.1701  0.0468  0.0117
  191loPI   C3A 3049  16.107  11.675   9.169 -0.0482  0.1334 -0.2458
  191loPI   C4A 3050  15.961  11.673   8.792 -0.0221  0.1687 -0.0288
  191loPI   C5A 3051  15.654  11.507   8.464  0.1397 -0.2357  0.0845
  191loPI   C6A 3052  15.356  11.184   8.228 -0.3387 -0.0903 -0.1825
  191loPI   C1B 3053  16.059  11.271   9.979 -0.2869  0.1581  0.1939
  191loPI   C2B 3054  16.124  11.359   9.695 -0.1297 -0.0476  0.0498
  191loPI   C3B 3055  16.117  11.172   9.332 -0.2174  0.0302  0.1725
  191loPI   C4B 3056  16.282  11.234   8.928 -0.0248 -0.1441 -0.2720
  192loPI    C1 3057  16.383  14.752  10.678  0.1351 -0.1191  0.1471
  192loPI    C2 3058  16.519  15.111  10.790  0.0403 -0.0804  0.1386
  192loPI    C3 3059  16.660  14.781  10.966  0.1047 -0.0373  0.1684
  192loPI   PO4 3060  16.476  14.707  10.414  0.1456  0.0707  0.0248
  192loPI   GL1 3061  16.662  14.400  10.143 -0.0865 -0.1507 -0.4116
  192loPI   GL2 3062  16.964  14.532  10.098 -0.1665 -0.2514 -0.1130
  192loPI   C1A 3063  16.816  14.592   9.646  0.0194  0.0230  0.1017
  192loPI   C2A 3064  16.623  14.470   9.245 -0.0524  0.1809 -0.1598
  192loPI   C3A 3065  16.544  14.629   8.832  0.1719 -0.1374 -0.1595
  192loPI   C4A 3066  16.435  14.726   8.356 -0.0791  0.0910 -0.2489
  192loPI   C5A 3067  16.438  15.153   8.240 -0.0024  0.3441 -0.0975
  192loPI   C6A 3068  16.456  15.567   8.089  0.1231 -0.1077 -0.2967
  192loPI   C1B 3069  17.272  14.383   9.739 -0.2633 -0.0075  0.0891
  192loPI   C2B 3070  17.226  14.278   9.290  0.2450 -0.2891 -0.0375
  192loPI   C3B 3071  17.094  14.366   8.957 -0.1821  0.1455  0.4227
  192loPI   C4B 3072  16.966  14.328   8.550  0.0882 -0.0224  0.0887
  193loPI    C1 3073   6.794   6.198  10.656  0.0327 -0.0452 -0.1629
  193loPI    C2 3074   6.556   6.508  10.570  0.1824  0.1492  0.1078
  193loPI    C3 3075   6.623   6.407  10.951  0.2627 -0.1179  0.0251
  193loPI   PO4 3076   6.942   6.263  10.360  0.0267 -0.1370 -0.1724
  193loPI   GL1 3077   6.787   6.377   9.990  0.0516 -0.1250  0.0666
  193loPI   GL2 3078   6.502   6.235  10.093  0.1186 -0.0228 -0.0724
  193loPI   C1A 3079   6.815   6.183   9.603 -0.1892 -0.1459 -0.3413
  193loPI   C2A 3080   6.885   6.106   9.191 -0.3063  0.0063 -0.0076
  193loPI   C3A 3081   6.740   6.046   8.779  0.1267  0.2675  0.2380
  193loPI   C4A 3082   6.740   6.076   8.392  0.2068  0.0413 -0.0866
  193loPI   C5A 3083   6.818   6.346   8.000  0.0640  0.1235  0.0812
  193loPI   C6A 3084   6.578   6.565   7.683 -0.4457  0.3068  0.0545
  193loPI   C1B 3085   6.516   6.546   9.665  0.0439  0.0133  0.1551
  193loPI   C2B 3086   6.541   6.471   9.233 -0.0426 -0.0502 -0.1254
  193loPI   C3B 3087   6.325   6.508   8.818  0.1386  0.2311 -0.1698
  193loPI   C4B 3088   6.245   6.379   8.475  0.0522 -0.1367  0.0200
  194loPI    C1 3089   2.818   3.153  10.596  0.1268 -0.2331  0.1244
  194loPI    C2 3090   2.644   3.210  10.952 -0.1812  0.0851 -0.0709
  194loPI    C3 3091   2.854   3.505  10.782 -0.0546 -0.0579 -0.1655
  194loPI   PO4 3092   2.606   3.013  10.418 -0.1672 -0.2118  0.0136
  194loPI   GL1 3093   2.682   2.862  10.067 -0.1004  0.1042 -0.0474
  194loPI   GL2 3094   2.793   2.731   9.795 -0.0834  0.3735 -0.2026
  194loPI   C1A 3095   2.461   3.015   9.760  0.2963 -0.1622  0.2810
  194loPI   C2A 3096   2.265   2.852   9.340 -0.2694  0.0070 -0.0385
  194loPI   C3A 3097   2.188   2.942   8.957  0.2085  0.0674 -0.1075
  194loPI   C4A 3098   1.977   3.032   8.550 -0.2004 -0.0107  0.0517
  194loPI   C5A 3099   1.640   3.061   8.249 -0.0726 -0.0364  0.0906
  194loPI   C6A 3100   1.746   3.064   7.791 -0.0231  0.3932  0.1330
  194loPI   C1B 3101   2.841   2.815   9.370  0.1390  0.1015 -0.3476
  194loPI   C2B 3102   2.781   2.939   8.995  0.1102 -0.0173  0.2242
  194loPI   C3B 3103   2.972   2.772   8.672  0.4181 -0.2044 -0.0200
  194loPI   C4B 3104   3.187   2.417   8.694  0.0238 -0.1562 -0.0831
  195loPI    C1 3105   0.203   5.143  10.694 -0.0136 -0.0430  0.1544
  195loPI    C2 3106   0.481   4.923  10.879  0.0122 -0.0629  0.0921
  195loPI    C3 3107   0.534   5.317  10.835  0.0912 -0.0869 -0.0340
  195loPI   PO4 3108   0.134   4.992  10.465  0.1343 -0.3244 -0.0276
  195loPI   GL1 3109   0.231   4.964  10.027 -0.0984  0.0892 -0.1516
  195loPI   GL2 3110  -0.100   4.759  10.058  0.0841  0.0520 -0.0032
  195loPI   C1A 3111   0.349   4.868   9.626 -0.1506 -0.1759  0.1186
  195loPI   C2A 3112   0.542   5.056   9.251 -0.2165 -0.0172  0.1707
  195loPI   C3A 3113   0.680   5.144   8.783  0.1136 -0.0064  0.1545
  195loPI   C4A 3114   0.976   5.183   8.398 -0.0071  0.0264  0.0688
  195loPI   C5A 3115   1.389   5.197   8.075 -0.1003 -0.2274  0.0093
  195loPI   C6A 3116   1.671   5.446   7.794 -0.0129 -0.0757 -0.0084
  195loPI   C1B 3117  -0.138   4.744   9.655 -0.1600 -0.0420 -0.1654
  195loPI   C2B 3118   0.037   4.798   9.293  0.0519 -0.2346 -0.0882
  195loPI   C3B 3119   0.124   5.216   8.993  0.2099  0.0615 -0.1288
  195loPI   C4B 3120   0.117   5.491   8.579 -0.2106 -0.0680 -0.0352
  196loPI    C1 3121   3.472   2.844  10.944  0.2365 -0.1829  0.0323
  196loPI    C2 3122   3.272   2.498  10.930 -0.0369 -0.0358  0.2012
  196loPI    C3 3123   3.419   2.630  11.278  0.3935 -0.1597  0.0729
  196loPI   PO4 3124   3.611   2.790  10.594 -0.1507  0.2970 -0.3055
  196loPI   GL1 3125   3.676   2.559  10.230  0.3105  0.1144  0.1332
  196loPI   GL2 3126   3.651   2.860  10.135  0.1029  0.0929  0.3405
  196loPI   C1A 3127   3.577   2.358   9.806  0.0923  0.0454 -0.1964
  196loPI   C2A 3128   3.743   2.451   9.405  0.1238  0.0373  0.0398
  196loPI   C3A 3129   3.742   2.362   8.976 -0.1298 -0.3640 -0.2879
  196loPI   C4A 3130   3.841   2.481   8.620 -0.0508 -0.3436  0.0902
  196loPI   C5A 3131   3.502   2.527   8.325  0.0428 -0.1698 -0.2646
  196loPI   C6A 3132   3.271   2.702   7.966  0.2568 -0.2616 -0.0852
  196loPI   C1B 3133   3.732   2.847   9.718 -0.0394 -0.1662  0.4694
  196loPI   C2B 3134   3.772   2.964   9.189 -0.2169 -0.0250  0.2599
  196loPI   C3B 3135   3.992   2.926   8.748 -0.1653  0.0758  0.1081
  196loPI   C4B 3136   4.092   2.819   8.313 -0.1424  0.0864  0.0338
  197loPI    C1 3137   0.421  17.211  10.489  0.3046 -0.0232  0.0939
  197loPI    C2 3138   0.089  17.310  10.690  0.0086 -0.1740 -0.3083
  197loPI    C3 3139   0.365  17.077  10.862  0.0304  0.1556  0.1201
  197loPI   PO4 3140   0.218  17.115  10.264  0.1913 -0.1288  0.0183
  197loPI   GL1 3141   0.288  17.278   9.871 -0.2565 -0.0116 -0.3146
  197loPI   GL2 3142  -0.027  17.416   9.833 -0.1371  0.0167 -0.1019
  197loPI   C1A 3143   0.153  17.276   9.404  0.2522 -0.1657  0.2888
  197loPI   C2A 3144  -0.047  17.380   9.086  0.0492  0.1852 -0.1133
  197loPI   C3A 3145  -0.141  17.231   8.617 -0.2678 -0.3512  0.1462
  197loPI   C4A 3146  -0.394  17.238   8.188  0.1177  0.0059 -0.3396
  197loPI   C5A 3147  -0.405  17.393   7.850 -0.1288  0.1534 -0.0194
  197loPI   C6A 3148  -0.623  17.550   7.529 -0.0335 -0.0646  0.1972
  197loPI   C1B 3149  -0.156  17.695   9.492 -0.3777  0.1548 -0.1096
  197loPI   C2B 3150  -0.037  17.923   9.174  0.1719 -0.2137  0.2838
  197loPI   C3B 3151  -0.145  17.791   8.772  0.1456 -0.0335  0.1147
  197loPI   C4B 3152  -0.031  17.625   8.333  0.0121 -0.1700 -0.1734
  198loPI    C1 3153  14.571   9.097  10.764  0.1469  0.1517  0.0050
  198loPI    C2 3154  14.407   8.937  10.436  0.1813  0.1174  0.0047
  198loPI    C3 3155  14.311   8.794  10.797  0.3457 -0.0221 -0.0054
  198loPI   PO4 3156  14.800   9.203  10.653 -0.0234 -0.1150 -0.1564
  198loPI   GL1 3157  14.846   9.108  10.229 -0.0336  0.1598  0.0857
  198loPI   GL2 3158  15.203   9.172  10.139 -0.0300 -0.1160  0.1641
  198loPI   C1A 3159  14.595   9.068   9.807  0.3162 -0.0764  0.3239
  198loPI   C2A 3160  14.448   9.192   9.481  0.1000  0.3136 -0.5539
  198loPI   C3A 3161  14.509   9.211   9.059  0.1983  0.0103  0.1338
  198loPI   C4A 3162  14.253   9.283   8.741  0.0492  0.2993 -0.1006
  198loPI   C5A 3163  14.135   9.279   8.344 -0.0263 -0.1793  0.0754
  198loPI   C6A 3164  14.084   9.364   7.892  0.0572  0.1771  0.0192
  198loPI   C1B 3165  15.090   9.096   9.740 -0.3012 -0.1225 -0.1341
  198loPI   C2B 3166  14.995   9.074   9.327  0.1338 -0.1048 -0.0758
  198loPI   C3B 3167  14.924   9.102   8.881  0.0486  0.1334 -0.1763
  198loPI   C4B 3168  15.123   9.027   8.502  0.3778  0.1155  0.1089
  199loPI    C1 3169  10.481   5.567  10.453  0.0967 -0.2583 -0.0158
  199loPI    C2 3170  10.606   5.718  10.801 -0.1257  0.1977 -0.1259
  199loPI    C3 3171  10.311   5.448  10.795  0.0981 -0.0566  0.0562
  199loPI   PO4 3172  10.585   5.731  10.317  0.0022  0.2171  0.1737
  199loPI   GL1 3173  10.841   5.805   9.978 -0.0594 -0.0453 -0.1055
  199loPI   GL2 3174  10.628   6.057   9.970 -0.0964 -0.4552  0.1076
  199loPI   C1A 3175  11.071   5.659   9.584 -0.0050  0.1812  0.0710
  199loPI   C2A 3176  11.388   5.570   9.208 -0.3749  0.2563 -0.0404
  199loPI   C3A 3177  11.685   5.595   8.886  0.0825 -0.1502  0.0011
  199loPI   C4A 3178  12.050   5.719   8.606  0.1195  0.1684 -0.3596
  199loPI   C5A 3179  12.248   6.101   8.533  0.2878  0.2038 -0.0540
  199loPI   C6A 3180  12.544   6.325   8.378  0.0776  0.0325  0.1404
  199loPI   C1B 3181  10.446   5.908   9.604  0.2491 -0.2878  0.0067
  199loPI   C2B 3182  10.591   5.771   9.295 -0.2178 -0.2162 -0.0190
  199loPI   C3B 3183  10.737   5.577   8.877  0.2522 -0.0578  0.2079
  199loPI   C4B 3184  10.932   5.466   8.377 -0.0316 -0.1211  0.2697
  200loPI    C1 3185  17.345  17.514  10.625  0.2048  0.0313  0.0154
  200loPI    C2 3186  17.699  17.448  10.798  0.0440 -0.4859  0.1655
  200loPI    C3 3187  17.366  17.449  11.019 -0.0306  0.3103  0.0771
  200loPI   PO4 3188  17.410  17.450  10.382 -0.3772  0.2722 -0.0014
  200loPI   GL1 3189  17.575  17.164  10.057 -0.1838  0.1046 -0.0524
  200loPI   GL2 3190  17.848  16.924  10.025  0.1821 -0.3533 -0.0200
  200loPI   C1A 3191  17.643  17.209   9.628 -0.0983  0.0772  0.0312
  200loPI   C2A 3192  17.690  17.033   9.236  0.1215  0.2171  0.1018
  200loPI   C3A 3193  17.776  16.821   8.807  0.2779  0.1395 -0.1701
  200loPI   C4A 3194  17.885  16.778   8.396  0.0306  0.0996 -0.1455
  200loPI   C5A 3195  17.940  16.869   7.931 -0.1743  0.0751 -0.0886
  200loPI   C6A 3196  18.068  17.125   7.674 -0.2377 -0.1176  0.1470
  200loPI   C1B 3197  18.054  16.721   9.657 -0.0819  0.1311  0.0104
  200loPI   C2B 3198  17.989  16.678   9.296 -0.2015  0.1091 -0.1694
  200loPI   C3B 3199  17.978  16.417   8.964 -0.0870 -0.2449 -0.0383
  200loPI   C4B 3200  17.843  16.272   8.473  0.0957  0.0306  0.0011
  201loPI    C1 3201   5.895   8.416  10.492 -0.1043  0.1392 -0.0032
  201loPI    C2 3202   6.286   8.365  10.554 -0.0965  0.1219 -0.0655
  201loPI    C3 3203   6.054   8.506  10.847 -0.0380  0.1627 -0.0386
  201loPI   PO4 3204   5.872   8.556  10.280  0.0915 -0.3572  0.1089
  201loPI   GL1 3205   6.043   8.603   9.755  0.0655 -0.0192 -0.1272
  201loPI   GL2 3206   5.681   8.552   9.842 -0.0199 -0.1639  0.0102
  201loPI   C1A 3207   6.306   8.284   9.506 -0.0079 -0.2151  0.0436
  201loPI   C2A 3208   6.163   8.297   9.104  0.1845  0.0571  0.1971
  201loPI   C3A 3209   6.327   8.457   8.675 -0.0520 -0.0699 -0.2261
  201loPI   C4A 3210   6.406   8.200   8.288  0.0750 -0.0744 -0.0750
  201loPI   C5A 3211   6.579   7.874   7.985  0.2147 -0.1491  0.3129
  201loPI   C6A 3212   6.558   7.526   7.666  0.0382  0.1129 -0.0213
  201loPI   C1B 3213   5.750   8.513   9.355  0.0074  0.1919 -0.1214
  201loPI   C2B 3214   5.657   8.442   9.008  0.1250  0.2739 -0.0508
  201loPI   C3B 3215   5.369   8.363   8.618  0.2537 -0.2061 -0.3165
  201loPI   C4B 3216   5.052   8.340   8.320  0.1500  0.3865  0.1813
  202loPI    C1 3217   1.251   1.997  10.919 -0.0340 -0.1482 -0.0820
  202loPI    C2 3218   1.178   2.366  11.057  0.0762  0.0647 -0.5717
  202loPI    C3 3219   0.881   2.100  11.031  0.0311  0.0535 -0.0472
  202loPI   PO4 3220   1.492   2.091  10.654  0.1766 -0.3556  0.1532
  202loPI   GL1 3221   1.287   2.192  10.128 -0.2361 -0.0835 -0.0809
  202loPI   GL2 3222   1.272   2.525  10.182 -0.2130 -0.0855 -0.3535
  202loPI   C1A 3223   1.596   2.151   9.814  0.0263  0.4014 -0.0680
  202loPI   C2A 3224   1.631   2.198   9.354 -0.0478 -0.0446 -0.2207
  202loPI   C3A 3225   1.510   2.231   8.964  0.0384 -0.1277 -0.1452
  202loPI   C4A 3226   1.418   2.197   8.518  0.0886 -0.2330 -0.0538
  202loPI   C5A 3227   1.517   2.184   8.147 -0.2726 -0.2258  0.1524
  202loPI   C6A 3228   1.905   2.019   7.982  0.4316  0.1121 -0.0908
  202loPI   C1B 3229   1.095   2.428   9.689 -0.0437 -0.1953  0.0165
  202loPI   C2B 3230   1.033   2.094   9.305  0.3302  0.1673  0.1042
  202loPI   C3B 3231   1.233   1.746   9.053  0.0187 -0.0113 -0.3159
  202loPI   C4B 3232   1.516   1.747   8.798 -0.2845  0.3165 -0.1166
  203loPI    C1 3233   4.916  12.560  10.329 -0.0068 -0.1949 -0.0665
  203loPI    C2 3234   4.807  12.483  10.706 -0.3949  0.1236 -0.1065
  203loPI    C3 3235   4.737  12.213  10.419 -0.0589 -0.1382  0.0504
  203loPI   PO4 3236   4.917  12.837  10.304  0.3917  0.0866 -0.0942
  203loPI   GL1 3237   5.248  12.821  10.023 -0.0901  0.1774 -0.1475
  203loPI   GL2 3238   5.629  12.885  10.037  0.4363 -0.0278 -0.0201
  203loPI   C1A 3239   5.143  13.112   9.695  0.3868 -0.3093 -0.3046
  203loPI   C2A 3240   5.173  13.193   9.288  0.1187 -0.0700 -0.2097
  203loPI   C3A 3241   5.293  13.389   8.897  0.2553 -0.0544  0.0392
  203loPI   C4A 3242   5.122  13.370   8.468  0.2960 -0.1087 -0.3309
  203loPI   C5A 3243   4.914  13.827   8.217  0.1899  0.0510 -0.0298
  203loPI   C6A 3244   4.621  14.204   8.162 -0.1660 -0.4726  0.1801
  203loPI   C1B 3245   5.595  12.951   9.571  0.1503 -0.3344 -0.2001
  203loPI   C2B 3246   5.643  13.086   9.106  0.0397 -0.2092 -0.1045
  203loPI   C3B 3247   5.544  12.976   8.686  0.3924  0.1175  0.1034
  203loPI   C4B 3248   5.807  13.031   8.328  0.1420 -0.1131 -0.0168
  204loPI    C1 3249   8.729  14.225  10.980 -0.0403 -0.0655 -0.0101
  204loPI    C2 3250   8.991  14.369  10.714  0.0393  0.0278  0.1177
  204loPI    C3 3251   9.082  14.367  11.103 -0.0427 -0.1855  0.1372
  204loPI   PO4 3252   8.627  14.009  10.832  0.0834  0.2497 -0.0805
  204loPI   GL1 3253   8.518  13.911  10.477  0.3269 -0.3210 -0.1987
  204loPI   GL2 3254   8.792  13.956  10.336  0.1433 -0.2336  0.2779
  204loPI   C1A 3255   8.435  14.236  10.184  0.3126  0.1162 -0.0676
  204loPI   C2A 3256   8.556  14.363   9.799  0.1642 -0.1017  0.1984
  204loPI   C3A 3257   8.559  14.417   9.456 -0.0675 -0.0759 -0.1614
  204loPI   C4A 3258   8.457  14.572   9.040  0.0076  0.1696  0.0813
  204loPI   C5A 3259   8.330  14.761   8.669 -0.3016 -0.1764  0.0443
  204loPI   C6A 3260   8.330  14.592   8.260  0.1123  0.1912 -0.1605
  204loPI   C1B 3261   8.937  14.152   9.993 -0.2759  0.2830 -0.1322
  204loPI   C2B 3262   9.398  14.138   9.817 -0.0161 -0.3122  0.5107
  204loPI   C3B 3263   9.450  14.105   9.421  0.0881 -0.0276 -0.1819
  204loPI   C4B 3264   9.221  14.244   9.013  0.0306 -0.0415  0.1143
  205loPI    C1 3265   1.998  11.412  10.592 -0.2947  0.2124 -0.0107
  205loPI    C2 3266   2.327  11.570  10.426 -0.2348  0.0941 -0.0060
  205loPI    C3 3267   2.357  11.347  10.757 -0.2985 -0.0662 -0.1069
  205loPI   PO4 3268   1.854  11.512  10.580 -0.0621  0.0146  0.0679
  205loPI   GL1 3269   1.552  11.386  10.303  0.1247 -0.1476 -0.0226
  205loPI   GL2 3270   1.785  11.266  10.164  0.0637 -0.0167 -0.1620
  205loPI   C1A 3271   1.455  11.609   9.912 -0.0537  0.3143 -0.4625
  205loPI   C2A 3272   1.441  11.555   9.520 -0.1590  0.1313 -0.0371
  205loPI   C3A 3273   1.353  11.612   9.032  0.1383 -0.1632  0.0693
  205loPI   C4A 3274   1.609  11.637   8.684 -0.1506 -0.1803 -0.0023
  205loPI   C5A 3275   1.845  11.399   8.402 -0.2227  0.0230 -0.0457
  205loPI   C6A 3276   2.021  11.323   8.050  0.3978  0.2569  0.3055
  205loPI   C1B 3277   1.557  11.109   9.869  0.1400  0.0852 -0.0431
  205loPI   C2B 3278   1.473  11.025   9.444  0.0219  0.2802 -0.2975
  205loPI   C3B 3279   1.252  10.990   9.086 -0.0304  0.1428  0.0360
  205loPI   C4B 3280   1.059  10.776   8.746  0.1852  0.1641 -0.0490
  206loPI    C1 3281   7.244   7.226  10.503  0.0291 -0.0553 -0.0581
  206loPI    C2 3282   6.898   7.272  10.699 -0.0638  0.1475 -0.2656
  206loPI    C3 3283   7.200   7.526  10.764  0.1246 -0.1535  0.0727
  206loPI   PO4 3284   7.210   7.199  10.293 -0.0121  0.0378  0.0450
  206loPI   GL1 3285   7.392   6.918   9.946  0.1137  0.2445  0.1130
  206loPI   GL2 3286   7.233   6.731   9.904 -0.2357 -0.4823  0.1039
  206loPI   C1A 3287   7.426   6.814   9.404 -0.0163 -0.0399 -0.1870
  206loPI   C2A 3288   7.440   6.813   8.938 -0.1610  0.2066 -0.0303
  206loPI   C3A 3289   7.189   6.784   8.560  0.1723 -0.1143 -0.1251
  206loPI   C4A 3290   7.192   6.673   8.198 -0.0562 -0.2002  0.4497
  206loPI   C5A 3291   7.279   6.558   7.832 -0.0938 -0.1795  0.0179
  206loPI   C6A 3292   7.172   6.205   7.579  0.2039  0.0130 -0.0986
  206loPI   C1B 3293   7.007   6.617   9.485 -0.3268  0.0269 -0.0597
  206loPI   C2B 3294   6.944   6.584   8.949  0.2512 -0.1997 -0.3721
  206loPI   C3B 3295   7.083   6.337   8.578 -0.0080 -0.1749 -0.4071
  206loPI   C4B 3296   7.346   5.931   8.491  0.0606  0.1937 -0.0858
  207loPI    C1 3297   5.692  12.545  10.598  0.2427 -0.2026  0.1131
  207loPI    C2 3298   5.390  12.784  10.491  0.3757 -0.2297 -0.3407
  207loPI    C3 3299   5.322  12.469  10.728  0.0869 -0.1136 -0.2659
  207loPI   PO4 3300   5.859  12.501  10.430 -0.0510  0.2255  0.0803
  207loPI   GL1 3301   5.839  12.375   9.928 -0.1125 -0.0614 -0.0113
  207loPI   GL2 3302   5.958  12.089   9.875 -0.0384  0.1572 -0.2803
  207loPI   C1A 3303   5.492  12.447   9.780  0.4226  0.3898  0.3166
  207loPI   C2A 3304   5.369  12.610   9.341  0.0510 -0.0944 -0.3453
  207loPI   C3A 3305   5.091  12.648   8.932  0.1122  0.2056  0.0264
  207loPI   C4A 3306   5.226  12.338   8.606 -0.5006  0.1413  0.0383
  207loPI   C5A 3307   5.168  12.238   8.134  0.1668  0.2133 -0.0801
  207loPI   C6A 3308   4.792  12.102   7.916  0.0048 -0.1736 -0.5862
  207loPI   C1B 3309   5.918  12.221   9.496  0.1668 -0.1951  0.1071
  207loPI   C2B 3310   5.881  12.592   9.402 -0.4054 -0.1253 -0.0844
  207loPI   C3B 3311   6.091  12.925   9.377  0.0339  0.1152 -0.0586
  207loPI   C4B 3312   6.346  13.116   9.009  0.3419 -0.0479  0.0673
  208loPI    C1 3313   1.726  13.814  10.670 -0.0113  0.1727 -0.0927
  208loPI    C2 3314   2.053  13.922  10.873  0.1718 -0.3924 -0.0680
  208loPI    C3 3315   1.690  13.994  11.025  0.2896 -0.1327  0.0987
  208loPI   PO4 3316   1.718  13.965  10.428  0.1833  0.1219  0.0506
  208loPI   GL1 3317   1.874  14.063  10.063  0.1381 -0.0606  0.0122
  208loPI   GL2 3318   1.595  13.918   9.908 -0.1392 -0.2250  0.0742
  208loPI   C1A 3319   1.995  13.785   9.639  0.0962 -0.1086  0.6854
  208loPI   C2A 3320   1.751  13.490   9.417 -0.1225  0.1142  0.2057
  208loPI   C3A 3321   1.577  13.230   9.035 -0.0369  0.3641 -0.2747
  208loPI   C4A 3322   1.207  13.056   8.858 -0.2734  0.0630  0.0722
  208loPI   C5A 3323   1.005  13.156   8.384  0.1884 -0.1048  0.0629
  208loPI   C6A 3324   0.961  12.886   8.107  0.1863  0.0179 -0.2558
  208loPI   C1B 3325   1.423  13.914   9.471 -0.2194 -0.1956 -0.2447
  208loPI   C2B 3326   1.429  13.726   9.128 -0.1895  0.0259  0.1150
  208loPI   C3B 3327   1.294  13.522   8.707  0.1532 -0.2606  0.1518
  208loPI   C4B 3328   0.979  13.712   8.343 -0.1899 -0.1246 -0.2586
  209loPI    C1 3329  10.156   9.795  10.784  0.0164 -0.0816  0.0393
  209loPI    C2 3330  10.133   9.925  11.161  0.0596 -0.2437  0.0985
  209loPI    C3 3331  10.482   9.937  10.966 -0.0434  0.2026 -0.0697
  209loPI   PO4 3332   9.964   9.516  10.722 -0.0827  0.1564  0.1786
  209loPI   GL1 3333  10.142   9.117  10.547  0.2974 -0.1374 -0.0852
  209loPI   GL2 3334   9.910   9.155  10.272  0.1855  0.1157  0.2537
  209loPI   C1A 3335  10.464   8.855  10.207 -0.1869  0.2124 -0.0915
  209loPI   C2A 3336  10.704   8.882   9.864  0.2183 -0.0059 -0.2401
  209loPI   C3A 3337  10.771   8.849   9.452 -0.1514  0.2470 -0.2462
  209loPI   C4A 3338  10.788   8.844   9.148 -0.0224  0.1132  0.2506
  209loPI   C5A 3339  10.930   8.984   8.845  0.2544  0.0096 -0.6065
  209loPI   C6A 3340  10.848   9.250   8.574 -0.0809 -0.2215 -0.1757
  209loPI   C1B 3341   9.902   8.989   9.946  0.1298  0.1633 -0.0313
  209loPI   C2B 3342  10.025   8.804   9.620  0.0685  0.3451  0.1909
  209loPI   C3B 3343  10.300   8.757   9.292 -0.2079  0.0520  0.1688
  209loPI   C4B 3344  10.401   8.543   8.896 -0.0755  0.4721  0.0174
  210loPI    C1 3345  11.528   7.417  10.737 -0.0246  0.2182 -0.0586
  210loPI    C2 3346  11.913   7.520  10.702 -0.0468  0.3242  0.0059
  210loPI    C3 3347  11.815   7.147  10.805  0.0382  0.2896 -0.0381
  210loPI   PO4 3348  11.449   7.655  10.521  0.2357 -0.2700 -0.0705
  210loPI   GL1 3349  11.228   7.601  10.066  0.0841 -0.2600 -0.1464
  210loPI   GL2 3350  11.521   7.672  10.018  0.1004 -0.1319  0.2417
  210loPI   C1A 3351  10.941   7.645   9.808  0.2622  0.2690  0.2924
  210loPI   C2A 3352  10.935   7.567   9.416 -0.0793  0.0074 -0.0225
  210loPI   C3A 3353  10.833   7.375   8.911  0.0526  0.0325 -0.0185
  210loPI   C4A 3354  10.707   7.374   8.385 -0.2420 -0.2612 -0.3177
  210loPI   C5A 3355  10.436   7.564   8.110  0.0120 -0.0933 -0.0521
  210loPI   C6A 3356  10.161   7.873   7.957 -0.1796  0.0289 -0.3269
  210loPI   C1B 3357  11.439   7.548   9.574  0.1046  0.4414  0.2768
  210loPI   C2B 3358  11.521   7.489   9.114  0.4304 -0.2464  0.1917
  210loPI   C3B 3359  11.388   7.353   8.720 -0.0764  0.1042 -0.1557
  210loPI   C4B 3360  11.304   7.493   8.230 -0.0756  0.1170 -0.1700
  211loPI    C1 3361   2.360   5.423  10.636 -0.0900 -0.2397 -0.0044
  211loPI    C2 3362   2.681   5.229  10.773  0.0640 -0.1594 -0.2445
  211loPI    C3 3363   2.409   5.372  11.029  0.3156 -0.0614 -0.0276
  211loPI   PO4 3364   2.336   5.614  10.368  0.0416 -0.2402 -0.1032
  211loPI   GL1 3365   2.321   5.787   9.921 -0.3520 -0.0169 -0.0960
  211loPI   GL2 3366   2.177   6.045  10.086 -0.2030 -0.1854 -0.0645
  211loPI   C1A 3367   2.141   5.627   9.558  0.1651  0.2438 -0.0608
  211loPI   C2A 3368   2.186   5.606   9.169  0.3997  0.3393  0.0763
  211loPI   C3A 3369   2.391   5.499   8.723  0.0897  0.3317 -0.4252
  211loPI   C4A 3370   2.660   5.565   8.386 -0.0414 -0.0156  0.1215
  211loPI   C5A 3371   2.680   5.914   8.103 -0.2604 -0.0776 -0.1004
  211loPI   C6A 3372   2.625   6.331   7.816  0.2864  0.1919  0.1113
  211loPI   C1B 3373   2.116   6.228   9.683 -0.1297  0.0112 -0.1573
  211loPI   C2B 3374   2.158   6.134   9.290 -0.1806  0.1275  0.4300
  211loPI   C3B 3375   2.146   6.003   8.842 -0.0743 -0.2441  0.3590
  211loPI   C4B 3376   2.387   5.985   8.509  0.4009 -0.2757 -0.1735
  212loPI    C1 3377  15.464  12.418  10.975 -0.1133  0.2568 -0.0570
  212loPI    C2 3378  15.802  12.306  10.793 -0.1612  0.0751 -0.0361
  212loPI    C3 3379  15.680  12.686  10.772 -0.0924  0.0865 -0.2636
  212loPI   PO4 3380  15.310  12.218  10.887  0.3183 -0.3695 -0.0352
  212loPI   GL1 3381  15.463  12.225  10.362  0.2424 -0.2391 -0.1002
  212loPI   GL2 3382  15.398  12.556  10.383  0.0613 -0.3171  0.0532
  212loPI   C1A 3383  15.737  12.327  10.112  0.0038  0.1431  0.0511
  212loPI   C2A 3384  15.845  12.360   9.652 -0.1887 -0.0957  0.1364
  212loPI   C3A 3385  15.812  12.432   9.213  0.3126  0.0572  0.0465
  212loPI   C4A 3386  15.602  12.401   8.878  0.1791  0.1241  0.2217
  212loPI   C5A 3387  15.504  12.682   8.607 -0.2285 -0.2597  0.1135
  212loPI   C6A 3388  15.656  12.881   8.208  0.1321 -0.1360 -0.1318
  212loPI   C1B 3389  15.250  12.480   9.910 -0.2729  0.0010 -0.0425
  212loPI   C2B 3390  15.233  12.580   9.559  0.0027 -0.0086  0.4162
  212loPI   C3B 3391  15.098  12.342   9.152  0.4004  0.4933  0.0709
  212loPI   C4B 3392  15.147  12.308   8.605 -0.1196  0.0494 -0.2206
  213loPI    C1 3393   7.360   6.721  10.568 -0.1739  0.3240  0.3784
  213loPI    C2 3394   7.228   6.424  10.801 -0.1554 -0.2094 -0.2588
  213loPI    C3 3395   7.022   6.766  10.777 -0.2425 -0.2025  0.3946
  213loPI   PO4 3396   7.374   6.553  10.326  0.1461 -0.0100 -0.1782
  213loPI   GL1 3397   7.673   6.443  10.016  0.1798 -0.1276 -0.1623
  213loPI   GL2 3398   7.946   6.290   9.899  0.2431  0.3146  0.0283
  213loPI   C1A 3399   7.770   6.702   9.687 -0.1758 -0.0513 -0.0833
  213loPI   C2A 3400   7.899   6.668   9.235  0.0406  0.1902  0.0584
  213loPI   C3A 3401   8.026   6.637   8.787  0.1394 -0.0703  0.1039
  213loPI   C4A 3402   8.076   6.815   8.353  0.1731  0.1135 -0.1748
  213loPI   C5A 3403   8.094   6.938   7.939  0.3587  0.0518  0.0098
  213loPI   C6A 3404   7.816   6.510   7.780  0.0040  0.2053 -0.0121
  213loPI   C1B 3405   7.955   6.229   9.455 -0.4024  0.1135  0.0064
  213loPI   C2B 3406   8.016   6.209   9.014 -0.0217 -0.1048  0.2509
  213loPI   C3B 3407   8.285   6.241   8.686  0.2690 -0.0045 -0.0146
  213loPI   C4B 3408   8.117   6.355   8.224  0.1031 -0.0816  0.0434
  214loPI    C1 3409  16.679  16.839  10.388  0.0496 -0.1976  0.1475
  214loPI    C2 3410  16.893  16.532  10.246  0.1589 -0.1210  0.1457
  214loPI    C3 3411  16.921  16.634  10.631  0.2718  0.0089  0.1040
  214loPI   PO4 3412  16.676  16.970  10.204  0.2176  0.0412 -0.0466
  214loPI   GL1 3413  16.784  16.899   9.846 -0.3768 -0.0930  0.1233
  214loPI   GL2 3414  16.612  17.158   9.723  0.0503 -0.2582  0.1457
  214loPI   C1A 3415  16.860  16.784   9.371 -0.0919 -0.0039  0.1947
  214loPI   C2A 3416  16.769  16.401   9.110  0.1024 -0.2391 -0.3009
  214loPI   C3A 3417  16.931  16.088   8.746 -0.0835 -0.1104  0.1120
  214loPI   C4A 3418  17.004  15.974   8.398 -0.1458 -0.0799  0.0161
  214loPI   C5A 3419  16.772  15.903   8.001 -0.0113  0.4312  0.0470
  214loPI   C6A 3420  16.745  15.704   7.546  0.2243  0.2245 -0.0257
  214loPI   C1B 3421  16.732  17.274   9.323 -0.1028 -0.0223 -0.0365
  214loPI   C2B 3422  17.030  17.453   9.084  0.1464 -0.0376 -0.0418
  214loPI   C3B 3423  17.107  17.721   8.702  0.1780 -0.3559 -0.2116
  214loPI   C4B 3424  17.248  18.099   8.339 -0.0393  0.0830 -0.0948
  215loPI    C1 3425  13.959   6.144  10.873  0.0644  0.2233 -0.0456
  215loPI    C2 3426  13.730   6.304  11.159 -0.1043 -0.1499  0.0340
  215loPI    C3 3427  14.123   6.263  11.218 -0.0709  0.1558  0.0428
  215loPI   PO4 3428  13.852   5.951  10.776  0.1361 -0.2552 -0.1289
  215loPI   GL1 3429  13.773   5.944  10.390 -0.1411  0.3196 -0.0961
  215loPI   GL2 3430  13.853   5.614  10.317  0.2772  0.1844 -0.2562
  215loPI   C1A 3431  13.898   5.985   9.900 -0.1513  0.2792 -0.1451
  215loPI   C2A 3432  13.895   6.061   9.464  0.2480  0.1365 -0.2026
  215loPI   C3A 3433  14.042   6.006   9.059 -0.2898 -0.2211 -0.1071
  215loPI   C4A 3434  14.013   5.928   8.624 -0.0518  0.1444  0.0932
  215loPI   C5A 3435  14.005   5.564   8.299  0.1982  0.0693  0.1769
  215loPI   C6A 3436  14.200   5.444   7.931  0.0448 -0.0974 -0.3214
  215loPI   C1B 3437  13.496   5.674   9.923 -0.0807 -0.1883 -0.0193
  215loPI   C2B 3438  13.465   5.819   9.579  0.0338  0.2303 -0.1512
  215loPI   C3B 3439  13.557   5.745   9.180 -0.2411  0.0262 -0.0328
  215loPI   C4B 3440  13.485   5.819   8.753 -0.3316 -0.0823 -0.1272
  216loPI    C1 3441  15.978  17.585  10.507 -0.2573  0.0688  0.1669
  216loPI    C2 3442  16.058  17.870  10.238 -0.1476 -0.0286  0.0946
  216loPI    C3 3443  16.073  17.953  10.630 -0.1853  0.0820  0.0730
  216loPI   PO4 3444  15.878  17.310  10.260  0.2115 -0.0276 -0.2103
  216loPI   GL1 3445  16.080  17.117   9.813 -0.1572 -0.1841 -0.3288
  216loPI   GL2 3446  15.824  16.979   9.858 -0.2132  0.2065 -0.0703
  216loPI   C1A 3447  16.226  17.297   9.427 -0.3599  0.0025 -0.0225
  216loPI   C2A 3448  16.298  17.437   8.968 -0.0166 -0.0126 -0.1063
  216loPI   C3A 3449  16.312  17.361   8.538  0.0063 -0.1049  0.2150
  216loPI   C4A 3450  16.521  17.433   8.122  0.0732 -0.0065 -0.2690
  216loPI   C5A 3451  16.689  17.096   7.806  0.0545  0.2743  0.0861
  216loPI   C6A 3452  16.863  16.769   7.705  0.4769 -0.2095 -0.0992
  216loPI   C1B 3453  15.790  16.843   9.413 -0.2270 -0.0475 -0.1276
  216loPI   C2B 3454  15.951  16.995   9.053 -0.2353 -0.1716 -0.2507
  216loPI   C3B 3455  16.127  16.944   8.757  0.0439 -0.0533 -0.0059
  216loPI   C4B 3456  16.055  16.972   8.338  0.1049  0.2724  0.0116
  217loPI    C1 3457   5.628  10.909  10.378 -0.1009 -0.0955  0.1224
  217loPI    C2 3458   5.873  10.923  10.694 -0.1689 -0.1233  0.1765
  217loPI    C3 3459   5.531  10.717  10.715 -0.1501 -0.1661  0.0684
  217loPI   PO4 3460   5.764  10.825  10.129 -0.1681 -0.0970 -0.2077
  217loPI   GL1 3461   5.655  10.849   9.735  0.1408 -0.1525  0.0648
  217loPI   GL2 3462   5.400  10.861   9.612  0.0013 -0.0415 -0.2007
  217loPI   C1A 3463   5.784  10.506   9.487 -0.2341  0.0485 -0.0721
  217loPI   C2A 3464   5.762  10.071   9.493  0.2962  0.0340 -0.1285
  217loPI   C3A 3465   5.640   9.939   9.131 -0.1570  0.0971  0.1225
  217loPI   C4A 3466   5.720   9.891   8.789 -0.1507  0.0733  0.0052
  217loPI   C5A 3467   5.934   9.634   8.546  0.1517  0.0576  0.2358
  217loPI   C6A 3468   6.055   9.667   8.069  0.0662 -0.2525  0.2983
  217loPI   C1B 3469   5.448  10.710   9.205  0.1680 -0.1387  0.0850
  217loPI   C2B 3470   5.210  10.666   8.730  0.0450 -0.1684  0.0893
  217loPI   C3B 3471   4.919  10.709   8.478 -0.0399  0.2943  0.0021
  217loPI   C4B 3472   4.685  11.068   8.268  0.2280  0.0065  0.0930
  218loPI    C1 3473  16.327   1.993  10.801 -0.1735  0.0303  0.1794
  218loPI    C2 3474  16.673   2.097  10.973 -0.0730 -0.1355  0.0804
  218loPI    C3 3475  16.375   1.949  11.196 -0.1201  0.1059  0.1815
  218loPI   PO4 3476  16.283   2.267  10.558 -0.1970 -0.1650 -0.4711
  218loPI   GL1 3477  16.248   2.400  10.160  0.0485  0.0338  0.0669
  218loPI   GL2 3478  16.103   2.562  10.048  0.2730 -0.0795 -0.4328
  218loPI   C1A 3479  16.502   2.394   9.837 -0.0765  0.3132  0.0075
  218loPI   C2A 3480  16.672   2.200   9.474 -0.2054 -0.0265  0.1267
  218loPI   C3A 3481  16.975   2.336   9.140 -0.0334 -0.5619 -0.1401
  218loPI   C4A 3482  16.837   2.206   8.842  0.5600  0.2533  0.2144
  218loPI   C5A 3483  16.849   2.130   8.459 -0.1173 -0.0273 -0.2837
  218loPI   C6A 3484  16.976   1.961   8.086  0.1577  0.0800 -0.0975
  218loPI   C1B 3485  16.063   2.425   9.626 -0.1289  0.0263 -0.2390
  218loPI   C2B 3486  16.262   2.399   9.228  0.0717  0.0008 -0.0234
  218loPI   C3B 3487  16.422   2.517   8.849 -0.0921  0.3708 -0.1374
  218loPI   C4B 3488  16.405   2.458   8.409 -0.1561 -0.0659  0.2445
  219loPI    C1 3489   9.374  17.411  10.978 -0.4908  0.0604  0.1337
  219loPI    C2 3490   9.241  17.460  11.352 -0.2661 -0.1095  0.2382
  219loPI    C3 3491   9.621  17.355  11.287 -0.2598  0.0785 -0.0452
  219loPI   PO4 3492   9.240  17.302  10.879 -0.3312  0.1529  0.1238
  219loPI   GL1 3493   9.238  17.276  10.424  0.2626 -0.1487  0.1752
  219loPI   GL2 3494   9.317  17.582  10.462  0.1588  0.2011 -0.3151
  219loPI   C1A 3495   9.150  17.123  10.020  0.0574  0.0647 -0.0039
  219loPI   C2A 3496   9.076  17.034   9.626 -0.2444 -0.4920  0.0823
  219loPI   C3A 3497   9.143  16.894   9.231  0.3914 -0.0972 -0.0094
  219loPI   C4A 3498   8.959  16.777   8.888 -0.3211 -0.1845  0.2134
  219loPI   C5A 3499   8.803  16.525   8.607  0.2427 -0.0565  0.0161
  219loPI   C6A 3500   8.994  16.272   8.267 -0.1806  0.0684  0.3674
  219loPI   C1B 3501   9.202  17.611   9.976 -0.2659  0.3311 -0.2915
  219loPI   C2B 3502   9.070  17.587   9.584 -0.0059 -0.2083 -0.2191
  219loPI   C3B 3503   8.801  17.838   9.319  0.0330  0.2200  0.1330
  219loPI   C4B 3504   8.812  17.957   8.901  0.2974 -0.1293  0.1208
  220loPI    C1 3505   9.887   7.116  10.531 -0.0371  0.0530 -0.0748
  220loPI    C2 3506   9.859   7.467  10.720 -0.0206  0.0371 -0.0427
  220loPI    C3 3507   9.737   7.132  10.902  0.1457  0.0007  0.0026
  220loPI   PO4 3508   9.833   7.145  10.286  0.0507  0.2048  0.1416
  220loPI   GL1 3509  10.002   7.156  10.020 -0.2433 -0.0094 -0.0851
  220loPI   GL2 3510  10.188   6.938   9.826  0.4098  0.3431 -0.0139
  220loPI   C1A 3511  10.109   7.319   9.590 -0.2514 -0.0632  0.0037
  220loPI   C2A 3512  10.139   7.312   9.107 -0.0848 -0.3606  0.1267
  220loPI   C3A 3513   9.958   7.073   8.853  0.3044  0.0247  0.1875
  220loPI   C4A 3514   9.841   6.845   8.503  0.3261  0.2471 -0.0087
  220loPI   C5A 3515   9.771   6.913   8.056  0.0549 -0.0301 -0.1003
  220loPI   C6A 3516  10.078   6.650   7.800 -0.2215  0.1794  0.1269
  220loPI   C1B 3517  10.399   6.868   9.457 -0.5343  0.1264  0.2639
  220loPI   C2B 3518  10.545   7.019   9.054 -0.0532  0.0021 -0.0408
  220loPI   C3B 3519  10.379   7.089   8.752  0.0461 -0.0664 -0.5326
  220loPI   C4B 3520  10.242   7.593   8.735 -0.0860  0.1855 -0.1254
  221loPI    C1 3521   2.852  16.814  10.900  0.0825 -0.1145 -0.0170
  221loPI    C2 3522   2.666  16.987  11.208  0.1627  0.1929 -0.1371
  221loPI    C3 3523   3.014  16.799  11.265 -0.0516 -0.1614  0.0411
  221loPI   PO4 3524   2.883  16.968  10.754  0.0779 -0.2443  0.0171
  221loPI   GL1 3525   2.702  17.037  10.373  0.1150  0.0744  0.1233
  221loPI   GL2 3526   2.438  17.165  10.411 -0.2015  0.2220  0.1125
  221loPI   C1A 3527   2.625  17.057   9.910  0.0877 -0.2421  0.2920
  221loPI   C2A 3528   2.606  17.148   9.530  0.1891 -0.0000  0.3445
  221loPI   C3A 3529   2.394  17.106   9.111 -0.0228  0.2812  0.2426
  221loPI   C4A 3530   2.238  16.938   8.785 -0.2414 -0.4168  0.3674
  221loPI   C5A 3531   2.515  16.953   8.451  0.3959  0.0229  0.1978
  221loPI   C6A 3532   2.946  17.046   8.399  0.0320 -0.1263 -0.4120
  221loPI   C1B 3533   2.109  17.194  10.087 -0.1944 -0.2628  0.2256
  221loPI   C2B 3534   2.088  17.316   9.688  0.2879 -0.1851  0.1447
  221loPI   C3B 3535   1.856  17.151   9.310  0.0819 -0.0238  0.3114
  221loPI   C4B 3536   1.676  17.408   8.927  0.0785 -0.3692 -0.0058
  222loPI    C1 3537   5.786  15.429  10.685 -0.3132 -0.3048  0.1331
  222loPI    C2 3538   5.521  15.483  10.980 -0.1522  0.1367  0.2048
  222loPI    C3 3539   5.849  15.711  10.961  0.0897 -0.2198 -0.0384
  222loPI   PO4 3540   5.923  15.156  10.634 -0.1153  0.0647 -0.0276
  222loPI   GL1 3541   6.138  14.768  10.333 -0.0836  0.0043  0.0051
  222loPI   GL2 3542   6.369  14.898  10.487  0.0276  0.2181 -0.1844
  222loPI   C1A 3543   6.221  14.748   9.896 -0.1439 -0.0914  0.1775
  222loPI   C2A 3544   6.256  14.749   9.435 -0.3288 -0.0682 -0.0054
  222loPI   C3A 3545   6.167  14.807   8.963  0.2289  0.1594  0.2275
  222loPI   C4A 3546   6.370  14.606   8.695 -0.4611 -0.2756  0.1043
  222loPI   C5A 3547   6.374  14.166   8.403  0.0174 -0.1403 -0.4660
  222loPI   C6A 3548   6.601  13.829   8.151 -0.1315 -0.1036  0.0024
  222loPI   C1B 3549   6.296  15.185  10.141 -0.0678  0.4263 -0.3979
  222loPI   C2B 3550   6.406  15.672  10.009  0.2580  0.2605 -0.1468
  222loPI   C3B 3551   6.373  15.722   9.538  0.0761 -0.3836  0.0564
  222loPI   C4B 3552   6.701  15.448   9.303  0.4567  0.1603 -0.0241
  223loPI    C1 3553   5.015  17.262  10.803  0.1220  0.2364 -0.0247
  223loPI    C2 3554   5.166  17.439  10.477  0.1095  0.1412 -0.0825
  223loPI    C3 3555   5.401  17.214  10.710  0.1381  0.2765  0.0206
  223loPI   PO4 3556   4.797  17.287  10.749  0.1581 -0.1272 -0.0044
  223loPI   GL1 3557   4.665  17.333  10.291 -0.0650  0.2502  0.1014
  223loPI   GL2 3558   4.418  17.553  10.200 -0.1185  0.0096  0.4110
  223loPI   C1A 3559   4.447  17.144   9.911 -0.2738 -0.4521  0.1349
  223loPI   C2A 3560   4.293  16.765   9.749 -0.2048  0.0588  0.0243
  223loPI   C3A 3561   4.347  16.372   9.538  0.5441 -0.3990  0.0294
  223loPI   C4A 3562   4.166  16.298   9.157 -0.1325 -0.1174  0.2486
  223loPI   C5A 3563   4.037  16.496   8.749 -0.2345 -0.2268  0.0049
  223loPI   C6A 3564   3.649  16.853   8.616 -0.2682  0.0888 -0.0226
  223loPI   C1B 3565   4.389  17.912   9.916 -0.1486 -0.0764  0.0805
  223loPI   C2B 3566   4.475  17.951   9.537  0.4356 -0.0768 -0.1276
  223loPI   C3B 3567   4.504  17.861   9.084  0.0740 -0.1772  0.5378
  223loPI   C4B 3568   4.414  18.074   8.658 -0.0236 -0.1793 -0.2641
  224loPI    C1 3569  13.364   2.525  10.534  0.3091 -0.0911  0.1244
  224loPI    C2 3570  13.246   2.305  10.847 -0.3181 -0.0460 -0.0672
  224loPI    C3 3571  13.010   2.595  10.705  0.1665  0.2519 -0.2935
  224loPI   PO4 3572  13.488   2.340  10.371  0.1373  0.1337  0.4065
  224loPI   GL1 3573  13.279   2.194   9.968  0.0697 -0.0883 -0.0302
  224loPI   GL2 3574  13.416   2.513   9.833 -0.2314 -0.0407  0.1376
  224loPI   C1A 3575  13.345   2.023   9.572 -0.0439 -0.0961 -0.0898
  224loPI   C2A 3576  13.360   2.142   9.090 -0.1402  0.0791  0.0634
  224loPI   C3A 3577  13.310   1.974   8.728 -0.1879  0.3053  0.0457
  224loPI   C4A 3578  13.507   1.748   8.388 -0.0776  0.0106 -0.1173
  224loPI   C5A 3579  13.269   1.615   7.978  0.1128  0.2320 -0.1824
  224loPI   C6A 3580  13.175   1.465   7.544 -0.1255 -0.4216  0.0268
  224loPI   C1B 3581  13.668   2.499   9.425 -0.0541 -0.1552 -0.0223
  224loPI   C2B 3582  13.763   2.466   8.975  0.1328 -0.1423 -0.2390
  224loPI   C3B 3583  13.828   2.578   8.597  0.1784  0.3702  0.1939
  224loPI   C4B 3584  14.114   2.609   8.236 -0.3533 -0.0052  0.2568
  225loPI    C1 3585  13.061  17.477  10.619  0.2297  0.2485 -0.2450
  225loPI    C2 3586  12.743  17.420  10.383  0.0815 -0.0145  0.0124
  225loPI    C3 3587  12.764  17.746  10.615 -0.0387 -0.0349  0.0531
  225loPI   PO4 3588  13.322  17.396  10.437  0.0038 -0.0649  0.1637
  225loPI   GL1 3589  13.366  17.070   9.979  0.1342 -0.1637 -0.2224
  225loPI   GL2 3590  13.018  17.294   9.973 -0.1790  0.0389  0.0806
  225loPI   C1A 3591  13.175  16.818   9.754 -0.1245 -0.1688 -0.2785
  225loPI   C2A 3592  12.743  16.667   9.673  0.1553  0.1816  0.4190
  225loPI   C3A 3593  12.317  16.554   9.324 -0.0137 -0.2797 -0.0374
  225loPI   C4A 3594  12.330  16.438   8.888 -0.1373  0.2923 -0.1381
  225loPI   C5A 3595  12.170  16.428   8.569  0.0312 -0.0436  0.3335
  225loPI   C6A 3596  11.922  16.683   8.286 -0.1341  0.2405 -0.0006
  225loPI   C1B 3597  12.944  17.363   9.560  0.2474 -0.1678  0.4209
  225loPI   C2B 3598  12.938  17.303   9.054  0.1239 -0.0711  0.4163
  225loPI   C3B 3599  12.948  17.350   8.602 -0.0790 -0.0370 -0.3178
  225loPI   C4B 3600  13.195  17.213   8.369 -0.0360 -0.2923 -0.0689
  226loPI    C1 3601  12.408   4.776  10.701 -0.1218  0.0274  0.1224
  226loPI    C2 3602  12.515   4.396  10.766  0.2510  0.1260  0.1079
  226loPI    C3 3603  12.706   4.693  10.955 -0.0722  0.3059  0.1589
  226loPI   PO4 3604  12.341   4.794  10.432 -0.1165 -0.1384  0.1087
  226loPI   GL1 3605  12.532   4.538  10.163  0.3928  0.0101 -0.1382
  226loPI   GL2 3606  12.795   4.377  10.114  0.4614  0.1429 -0.2247
  226loPI   C1A 3607  12.440   4.588   9.746  0.1718 -0.0408  0.3296
  226loPI   C2A 3608  12.461   4.494   9.303  0.2477  0.0844  0.1940
  226loPI   C3A 3609  12.532   4.470   8.845  0.0666 -0.0803 -0.1761
  226loPI   C4A 3610  12.705   4.381   8.530 -0.3538  0.0962 -0.0215
  226loPI   C5A 3611  12.603   4.439   8.212 -0.1071  0.0299 -0.0020
  226loPI   C6A 3612  12.264   4.317   8.047  0.0971 -0.0943  0.0366
  226loPI   C1B 3613  12.917   4.357   9.797  0.0003 -0.0170  0.4715
  226loPI   C2B 3614  12.978   4.333   9.287  0.0571  0.2912 -0.1255
  226loPI   C3B 3615  12.865   4.081   8.945  0.0977  0.0146 -0.1424
  226loPI   C4B 3616  12.654   3.708   8.814  0.0325  0.2460 -0.3188
  227loPI    C1 3617  17.917   3.518  10.807  0.1513  0.0842 -0.2037
  227loPI    C2 3618  17.652   3.249  10.939  0.4456 -0.2132 -0.2056
  227loPI    C3 3619  17.843   3.486  11.199  0.0955  0.0866 -0.2140
  227loPI   PO4 3620  17.696   3.630  10.580 -0.1774  0.0664  0.1095
  227loPI   GL1 3621  17.698   3.724  10.213 -0.2400 -0.1395  0.1870
  227loPI   GL2 3622  17.721   3.495  10.072  0.0570 -0.0539 -0.0660
  227loPI   C1A 3623  17.539   3.909   9.825 -0.5069  0.1445 -0.0616
  227loPI   C2A 3624  17.491   3.959   9.404  0.2193 -0.1833  0.2901
  227loPI   C3A 3625  17.474   4.221   9.100 -0.0080 -0.1083  0.2882
  227loPI   C4A 3626  17.413   4.304   8.755 -0.1695  0.0332  0.1100
  227loPI   C5A 3627  17.313   4.440   8.399  0.2352  0.1583  0.1740
  227loPI   C6A 3628  16.980   4.395   8.041  0.0428  0.2316  0.2214
  227loPI   C1B 3629  17.548   3.431   9.681  0.1690  0.1222  0.2513
  227loPI   C2B 3630  17.489   3.407   9.223  0.0381 -0.3050 -0.1818
  227loPI   C3B 3631  17.376   3.726   8.933  0.2638  0.1670 -0.2874
  227loPI   C4B 3632  17.251   3.781   8.521 -0.4070  0.0657 -0.1988
  228loPI    C1 3633   2.303  10.644  10.437  0.0076  0.0816  0.0004
  228loPI    C2 3634   2.144  11.011  10.409 -0.1137  0.0492  0.2344
  228loPI    C3 3635   2.541  10.965  10.428 -0.0878  0.1522 -0.0211
  228loPI   PO4 3636   2.040  10.448  10.632  0.1928 -0.2984  0.1493
  228loPI   GL1 3637   2.039  10.196  10.249 -0.2315 -0.0380 -0.0661
  228loPI   GL2 3638   2.291   9.956  10.302  0.0526  0.2498  0.2746
  228loPI   C1A 3639   2.226  10.291   9.833  0.2664 -0.2861 -0.0536
  228loPI   C2A 3640   2.626  10.331   9.601 -0.1552  0.5005  0.1085
  228loPI   C3A 3641   2.625  10.305   9.180  0.0915  0.2378  0.2635
  228loPI   C4A 3642   2.403  10.352   8.806  0.2665 -0.0258  0.1834
  228loPI   C5A 3643   2.171  10.427   8.412 -0.1788 -0.2833 -0.0778
  228loPI   C6A 3644   1.903  10.079   8.175 -0.0053  0.1278  0.0847
  228loPI   C1B 3645   2.452   9.840   9.902  0.0341  0.1097  0.0265
  228loPI   C2B 3646   2.423   9.854   9.463  0.1968  0.1145  0.1688
  228loPI   C3B 3647   2.359   9.888   9.042 -0.2543 -0.1744 -0.3100
  228loPI   C4B 3648   2.211   9.912   8.569  0.1626  0.2877  0.0514
  229loPI    C1 3649   0.333   6.487  10.918 -0.3293 -0.0871  0.2045
  229loPI    C2 3650   0.277   6.882  10.906  0.1337 -0.0226 -0.1164
  229loPI    C3 3651   0.425   6.711  11.236  0.4612  0.1523 -0.1687
  229loPI   PO4 3652   0.112   6.385  10.746  0.0189 -0.0883 -0.2983
  229loPI   GL1 3653   0.078   6.324  10.280  0.2552 -0.0624  0.0781
  229loPI   GL2 3654   0.205   6.109  10.069 -0.1327 -0.0722 -0.2230
  229loPI   C1A 3655   0.191   6.646   9.976  0.0522  0.0139  0.1045
  229loPI   C2A 3656   0.422   6.762   9.613 -0.1857 -0.4470 -0.1296
  229loPI   C3A 3657   0.762   6.948   9.313 -0.1875 -0.1374 -0.3412
  229loPI   C4A 3658   0.997   6.962   8.873 -0.3232  0.1023 -0.0515
  229loPI   C5A 3659   1.209   7.092   8.463 -0.3451  0.0488  0.2342
  229loPI   C6A 3660   1.636   7.359   8.459  0.2700  0.3917  0.3365
  229loPI   C1B 3661   0.341   6.249   9.691 -0.0162 -0.4760  0.2320
  229loPI   C2B 3662   0.439   6.376   9.267 -0.3189 -0.2126  0.1837
  229loPI   C3B 3663   0.532   6.791   8.890 -0.1761  0.1327 -0.1224
  229loPI   C4B 3664   0.426   7.165   8.644 -0.1214  0.2193 -0.1215
  230loPI    C1 3665   0.131  13.916  11.009 -0.0798  0.0923  0.0100
  230loPI    C2 3666   0.315  14.038  11.343  0.1490  0.0872 -0.1121
  230loPI    C3 3667   0.027  13.761  11.362  0.1820  0.0649  0.0772
  230loPI   PO4 3668   0.070  14.104  10.860 -0.3416  0.3458  0.1697
  230loPI   GL1 3669  -0.103  14.017  10.439  0.0217  0.0013 -0.2420
  230loPI   GL2 3670  -0.320  14.191  10.318 -0.0365 -0.3900  0.0700
  230loPI   C1A 3671  -0.041  13.884   9.989 -0.0941  0.0404 -0.1616
  230loPI   C2A 3672   0.145  13.613   9.667  0.2705  0.1612  0.0907
  230loPI   C3A 3673  -0.104  13.586   9.334  0.1330  0.0239  0.1662
  230loPI   C4A 3674  -0.144  13.211   9.017 -0.3988 -0.0336  0.1848
  230loPI   C5A 3675  -0.287  13.000   8.676 -0.3025  0.1314 -0.2138
  230loPI   C6A 3676  -0.158  12.735   8.263 -0.4399 -0.1663 -0.0659
  230loPI   C1B 3677  -0.395  14.209   9.879 -0.4816 -0.2518 -0.0109
  230loPI   C2B 3678  -0.296  14.196   9.499  0.0394 -0.2717  0.2438
  230loPI   C3B 3679  -0.138  14.044   9.056  0.1263  0.2357  0.0825
  230loPI   C4B 3680  -0.186  13.678   8.771  0.1983  0.2168 -0.1113
  231loPI    C1 3681   2.120  16.283  10.825 -0.0377 -0.3353 -0.1208
  231loPI    C2 3682   1.972  16.124  11.161 -0.3915  0.3370  0.0588
  231loPI    C3 3683   2.281  16.378  11.178 -0.1606  0.0781 -0.1708
  231loPI   PO4 3684   1.874  16.366  10.696  0.0726  0.0135 -0.2159
  231loPI   GL1 3685   1.858  16.604  10.398  0.0452 -0.0148  0.3753
  231loPI   GL2 3686   1.711  16.611  10.070  0.3391  0.3885 -0.4684
  231loPI   C1A 3687   2.238  16.690   9.983  0.4241  0.2781 -0.1694
  231loPI   C2A 3688   2.299  16.761   9.575 -0.2087  0.1472 -0.0355
  231loPI   C3A 3689   2.451  16.621   9.230  0.3213  0.1206  0.1296
  231loPI   C4A 3690   2.622  16.646   8.818  0.0745  0.0334 -0.2084
  231loPI   C5A 3691   2.728  16.459   8.498  0.0576 -0.4799  0.1182
  231loPI   C6A 3692   2.572  16.064   8.325  0.0668  0.2426  0.1325
  231loPI   C1B 3693   1.821  16.815   9.700 -0.0328 -0.1852 -0.0477
  231loPI   C2B 3694   1.834  16.634   9.242  0.1263  0.0978  0.0459
  231loPI   C3B 3695   2.004  16.468   8.863  0.0369  0.3195 -0.0341
  231loPI   C4B 3696   2.207  16.456   8.520  0.0277 -0.0438 -0.1693
  232loPI    C1 3697   7.048  13.968  11.165 -0.0558 -0.3300  0.2235
  232loPI    C2 3698   6.739  13.759  11.309 -0.0441 -0.3298  0.2490
  232loPI    C3 3699   6.741  14.158  11.338 -0.1766 -0.3086 -0.0102
  232loPI   PO4 3700   7.146  13.863  10.935  0.1144 -0.4472 -0.0990
  232loPI   GL1 3701   7.271  14.072  10.559  0.0670  0.0891 -0.2462
  232loPI   GL2 3702   6.931  13.915  10.428 -0.1905  0.2729  0.1298
  232loPI   C1A 3703   7.497  14.244  10.163 -0.1324  0.0598 -0.2227
  232loPI   C2A 3704   7.514  14.273   9.748  0.0502  0.1143  0.2282
  232loPI   C3A 3705   7.536  14.305   9.365 -0.4709 -0.0352  0.0835
  232loPI   C4A 3706   7.549  14.145   9.025  0.0894 -0.2259 -0.2597
  232loPI   C5A 3707   7.195  14.143   8.614 -0.2625 -0.0252 -0.1240
  232loPI   C6A 3708   7.052  13.932   8.282  0.3184  0.1788  0.0502
  232loPI   C1B 3709   6.749  14.154  10.060  0.0326  0.1658  0.0528
  232loPI   C2B 3710   6.637  14.459   9.905  0.2007  0.3681 -0.3567
  232loPI   C3B 3711   6.680  14.523   9.517 -0.0098 -0.0552 -0.0225
  232loPI   C4B 3712   6.503  14.327   9.093 -0.0581  0.1874 -0.3177
  233loPI    C1 3713  11.776  10.638  10.815 -0.2362  0.0472  0.2150
  233loPI    C2 3714  11.779  10.370  11.113 -0.2619 -0.0059  0.1675
  233loPI    C3 3715  11.439  10.449  10.918 -0.1740 -0.2388 -0.0880
  233loPI   PO4 3716  11.930  10.604  10.671 -0.1802  0.0302  0.1605
  233loPI   GL1 3717  12.228  10.541  10.436  0.0856  0.0120  0.1298
  233loPI   GL2 3718  12.205  10.310  10.213 -0.1198 -0.0695  0.4737
  233loPI   C1A 3719  12.322  10.830  10.031 -0.1182 -0.0918 -0.0173
  233loPI   C2A 3720  12.219  10.841   9.567 -0.1771 -0.1012 -0.4565
  233loPI   C3A 3721  12.137  10.788   9.153  0.1533  0.4251 -0.0555
  233loPI   C4A 3722  12.115  10.390   8.876  0.0873 -0.1176 -0.0320
  233loPI   C5A 3723  11.944  10.191   8.536  0.0415 -0.1408 -0.0486
  233loPI   C6A 3724  11.869  10.172   8.084 -0.2059 -0.0881  0.1299
  233loPI   C1B 3725  12.383  10.373   9.778  0.1412 -0.0261  0.1592
  233loPI   C2B 3726  12.422  10.425   9.328 -0.0214  0.0052 -0.4378
  233loPI   C3B 3727  12.547  10.194   9.087  0.0831  0.0667  0.0895
  233loPI   C4B 3728  12.460  10.090   8.630 -0.2514  0.0643 -0.0781
  234loPI    C1 3729   9.653  10.213  10.930  0.0490  0.1023  0.0030
  234loPI    C2 3730   9.305  10.373  10.815  0.1200 -0.0136 -0.3861
  234loPI    C3 3731   9.619  10.609  10.887  0.0009  0.0806 -0.1655
  234loPI   PO4 3732   9.683  10.011  10.701  0.0876 -0.2975  0.1473
  234loPI   GL1 3733   9.831   9.733  10.292 -0.0066 -0.0463  0.0141
  234loPI   GL2 3734  10.083  10.049  10.244 -0.1713  0.3421 -0.0318
  234loPI   C1A 3735   9.926   9.518   9.915 -0.2062 -0.1185 -0.1653
  234loPI   C2A 3736   9.856   9.361   9.560 -0.3497  0.0511  0.0891
  234loPI   C3A 3737   9.867   9.068   9.191  0.2889  0.0086 -0.0138
  234loPI   C4A 3738   9.994   8.854   8.826  0.0254  0.0674  0.0933
  234loPI   C5A 3739  10.311   8.905   8.490 -0.1100 -0.1268  0.1308
  234loPI   C6A 3740  10.571   9.163   8.119  0.2591 -0.3622  0.1954
  234loPI   C1B 3741  10.183   9.913   9.766  0.0534 -0.0319 -0.0750
  234loPI   C2B 3742  10.098   9.719   9.388  0.0422  0.0437  0.1839
  234loPI   C3B 3743  10.148   9.632   8.891 -0.2534  0.2100 -0.1332
  234loPI   C4B 3744  10.354   9.419   8.553 -0.2151  0.0743 -0.1009
  235loPI    C1 3745   8.227   2.838  10.608 -0.1073 -0.1767  0.0302
  235loPI    C2 3746   7.971   2.738  10.898 -0.1616 -0.0047  0.0423
  235loPI    C3 3747   7.949   3.099  10.728  0.1066  0.0312  0.0803
  235loPI   PO4 3748   8.209   2.606  10.419 -0.1077 -0.1354  0.3767
  235loPI   GL1 3749   8.407   2.281  10.208 -0.0455 -0.1177  0.1502
  235loPI   GL2 3750   8.072   2.060  10.124 -0.1741  0.0313  0.1088
  235loPI   C1A 3751   8.334   2.372   9.723  0.1675  0.1698 -0.1062
  235loPI   C2A 3752   8.572   2.449   9.394  0.0490 -0.0811 -0.0781
  235loPI   C3A 3753   8.729   2.523   8.983 -0.2858  0.3280  0.2255
  235loPI   C4A 3754   8.893   2.729   8.576 -0.3147  0.2065  0.1128
  235loPI   C5A 3755   9.174   2.812   8.251 -0.2338  0.2071  0.3420
  235loPI   C6A 3756   9.566   2.752   7.948 -0.0201 -0.0216 -0.0521
  235loPI   C1B 3757   7.828   2.164   9.604 -0.1235 -0.2665  0.0521
  235loPI   C2B 3758   8.034   2.560   9.366  0.0326  0.0061 -0.2568
  235loPI   C3B 3759   8.110   2.686   8.979  0.1128  0.2723  0.2179
  235loPI   C4B 3760   8.268   2.619   8.591  0.2243  0.0151 -0.0255
  236loPI    C1 3761   0.993   0.279  10.799 -0.1433 -0.4506 -0.1427
  236loPI    C2 3762   0.714   0.471  10.586  0.0898  0.0424 -0.0175
  236loPI    C3 3763   0.699   0.475  10.985  0.2052 -0.0382 -0.0116
  236loPI   PO4 3764   0.970   0.042  10.679 -0.1253  0.0730 -0.1475
  236loPI   GL1 3765   0.828  -0.191  10.284 -0.1274  0.0496 -0.2951
  236loPI   GL2 3766   0.829   0.178  10.204  0.0483  0.1586 -0.2346
  236loPI   C1A 3767   0.881  -0.053   9.810 -0.1604 -0.0088  0.0688
  236loPI   C2A 3768   0.992   0.114   9.358  0.3135 -0.4342  0.1793
  236loPI   C3A 3769   1.115   0.004   8.940  0.1448 -0.0120  0.2045
  236loPI   C4A 3770   1.161  -0.206   8.571 -0.1454  0.0709  0.3313
  236loPI   C5A 3771   0.885  -0.451   8.356 -0.2531 -0.0328 -0.1843
  236loPI   C6A 3772   0.447  -0.574   8.317 -0.0712  0.1295 -0.2758
  236loPI   C1B 3773   1.195   0.455  10.073  0.0421  0.0510  0.1214
  236loPI   C2B 3774   1.596   0.263  10.020 -0.2981  0.0510  0.1579
  236loPI   C3B 3775   1.965   0.156   9.724 -0.1728  0.2159 -0.2309
  236loPI   C4B 3776   2.116   0.119   9.253  0.2476 -0.1216 -0.0571
  237loPI    C1 3777  15.822   6.841  11.007  0.0327 -0.1879 -0.0786
  237loPI    C2 3778  16.147   7.025  10.864 -0.0132 -0.2236 -0.2309
  237loPI    C3 3779  16.182   6.754  11.156  0.0460  0.0870  0.0564
  237loPI   PO4 3780  15.659   6.947  10.782  0.2979 -0.0593  0.2582
  237loPI   GL1 3781  15.412   6.933  10.495 -0.0440  0.1232  0.3854
  237loPI   GL2 3782  15.602   6.585  10.297  0.0518  0.0998  0.1980
  237loPI   C1A 3783  15.166   7.184  10.016  0.1465  0.3111 -0.1166
  237loPI   C2A 3784  15.093   7.203   9.583  0.0920  0.2984  0.1643
  237loPI   C3A 3785  14.882   7.205   9.166  0.1129  0.0548 -0.0123
  237loPI   C4A 3786  14.900   7.075   8.758 -0.1490  0.0552 -0.0905
  237loPI   C5A 3787  14.550   6.981   8.467  0.2162  0.0987  0.1956
  237loPI   C6A 3788  14.470   6.812   8.084 -0.1799  0.0635  0.2781
  237loPI   C1B 3789  15.647   6.979  10.008  0.2712 -0.1203  0.0330
  237loPI   C2B 3790  15.539   7.267   9.730  0.1246 -0.0703  0.1169
  237loPI   C3B 3791  15.624   7.271   9.315  0.1271  0.0378  0.0221
  237loPI   C4B 3792  15.828   7.099   8.972  0.0984  0.1025  0.1206
  238loPI    C1 3793  14.555   7.016  11.052 -0.0294 -0.2519  0.2486
  238loPI    C2 3794  14.824   7.311  11.077  0.0104 -0.2619 -0.0298
  238loPI    C3 3795  14.500   7.316  11.311  0.0055  0.0080 -0.0382
  238loPI   PO4 3796  14.578   6.976  10.752  0.3589  0.1336  0.0772
  238loPI   GL1 3797  14.871   6.924  10.447 -0.1092 -0.0223 -0.0688
  238loPI   GL2 3798  14.613   6.608  10.434  0.0998  0.2949 -0.0882
  238loPI   C1A 3799  15.048   6.713  10.130  0.1150 -0.0331  0.0364
  238loPI   C2A 3800  15.247   6.761   9.723  0.3454 -0.0828  0.0193
  238loPI   C3A 3801  15.098   6.772   9.360  0.1694  0.1784  0.1494
  238loPI   C4A 3802  15.274   6.947   8.987 -0.1034 -0.0122 -0.1873
  238loPI   C5A 3803  15.378   6.847   8.609 -0.0265  0.2858 -0.0479
  238loPI   C6A 3804  15.458   6.569   8.359 -0.0606  0.0035  0.1156
  238loPI   C1B 3805  14.263   6.683  10.181  0.1789 -0.0808 -0.1877
  238loPI   C2B 3806  14.095   6.458   9.853 -0.0402 -0.2109  0.0136
  238loPI   C3B 3807  14.231   6.446   9.382  0.0463 -0.0026  0.2298
  238loPI   C4B 3808  14.548   6.362   9.056  0.2010 -0.2260 -0.2330
  239loPI    C1 3809   8.931  15.191  11.043 -0.0169 -0.1447  0.1730
  239loPI    C2 3810   8.633  15.341  10.823  0.2808  0.2536  0.0297
  239loPI    C3 3811   8.582  15.282  11.215 -0.0805  0.0344 -0.0464
  239loPI   PO4 3812   8.964  14.891  10.873 -0.0980  0.0454 -0.1161
  239loPI   GL1 3813   8.776  14.796  10.547 -0.1937  0.1196 -0.1485
  239loPI   GL2 3814   8.618  15.040  10.407 -0.0961 -0.2320 -0.1513
  239loPI   C1A 3815   8.795  14.700  10.103  0.0509  0.1185 -0.1717
  239loPI   C2A 3816   9.073  14.613   9.773 -0.1463  0.2303  0.0599
  239loPI   C3A 3817   9.095  14.639   9.328  0.0697  0.1462  0.0250
  239loPI   C4A 3818   8.961  14.858   8.970  0.1100  0.0333  0.3625
  239loPI   C5A 3819   8.846  14.612   8.627  0.2154  0.0381 -0.0313
  239loPI   C6A 3820   9.027  14.185   8.480  0.0033  0.0250 -0.1902
  239loPI   C1B 3821   8.906  15.174  10.008  0.0606 -0.0517  0.2860
  239loPI   C2B 3822   8.986  15.092   9.516  0.0361 -0.0011 -0.0999
  239loPI   C3B 3823   8.950  15.379   9.213 -0.0863 -0.1318  0.1206
  239loPI   C4B 3824   9.163  15.393   8.889 -0.0961 -0.0523 -0.1584
  240loPI    C1 3825   9.924  11.865  10.674 -0.0024 -0.0145  0.0247
  240loPI    C2 3826   9.888  11.587  10.959  0.1141  0.0909  0.1434
  240loPI    C3 3827   9.994  11.961  11.056 -0.0732  0.1857 -0.0112
  240loPI   PO4 3828  10.042  11.789  10.509  0.2641 -0.3573 -0.0591
  240loPI   GL1 3829  10.249  12.117  10.267  0.1360  0.3723  0.0292
  240loPI   GL2 3830   9.987  12.143  10.118  0.2437 -0.2243 -0.0314
  240loPI   C1A 3831  10.261  11.916   9.741  0.1128 -0.1640 -0.1886
  240loPI   C2A 3832  10.405  11.840   9.341  0.1899  0.1681 -0.0611
  240loPI   C3A 3833  10.342  11.951   8.914  0.0164 -0.0614  0.0107
  240loPI   C4A 3834  10.126  12.167   8.485  0.0234  0.2614 -0.6040
  240loPI   C5A 3835   9.744  12.023   8.208 -0.1028  0.2076 -0.1161
  240loPI   C6A 3836   9.290  11.828   8.024 -0.1863 -0.0384 -0.1752
  240loPI   C1B 3837   9.729  12.281   9.662  0.1524  0.0364  0.3846
  240loPI   C2B 3838   9.407  12.335   9.395 -0.0049  0.1338 -0.2902
  240loPI   C3B 3839   9.200  12.153   9.056 -0.2228  0.2838  0.0847
  240loPI   C4B 3840   8.988  12.256   8.714  0.1342  0.0743  0.0367
  241loPI    C1 3841   7.324   5.334  10.461 -0.0418 -0.3070 -0.1141
  241loPI    C2 3842   7.085   5.179  10.742 -0.1310 -0.0366 -0.0374
  241loPI    C3 3843   7.479   5.204  10.806 -0.1336 -0.1029  0.0057
  241loPI   PO4 3844   7.210   5.518  10.264 -0.4128 -0.2883  0.0518
  241loPI   GL1 3845   7.070   5.547   9.854 -0.0388  0.1816 -0.0508
  241loPI   GL2 3846   7.090   5.192   9.644  0.2560 -0.1173 -0.0041
  241loPI   C1A 3847   7.094   5.721   9.438  0.0326 -0.1868 -0.2181
  241loPI   C2A 3848   7.290   5.763   9.026  0.0129 -0.2913  0.1648
  241loPI   C3A 3849   7.440   5.409   8.803 -0.7506  0.2332 -0.3407
  241loPI   C4A 3850   7.662   5.494   8.416  0.1749  0.0739 -0.0828
  241loPI   C5A 3851   7.527   5.577   8.014  0.0782 -0.0859 -0.2680
  241loPI   C6A 3852   7.203   5.587   7.676 -0.0080  0.4989 -0.1357
  241loPI   C1B 3853   7.017   5.174   9.180  0.0246 -0.0751 -0.1443
  241loPI   C2B 3854   6.814   5.076   8.802 -0.1161  0.3144  0.1961
  241loPI   C3B 3855   7.010   5.034   8.390 -0.0119 -0.1098 -0.0616
  241loPI   C4B 3856   7.388   5.054   8.095 -0.1199 -0.1910  0.0195
  242loPI    C1 3857  13.002  15.445  10.744 -0.2430 -0.0883  0.4348
  242loPI    C2 3858  12.874  15.822  10.789  0.0984  0.0882 -0.0055
  242loPI    C3 3859  13.221  15.708  10.952 -0.0013 -0.0354  0.1214
  242loPI   PO4 3860  12.966  15.446  10.430 -0.0204 -0.0204 -0.0717
  242loPI   GL1 3861  13.007  15.643  10.113  0.0595 -0.0342  0.1052
  242loPI   GL2 3862  12.707  15.740   9.994  0.1981  0.0100 -0.2677
  242loPI   C1A 3863  12.929  15.295   9.832 -0.0698 -0.0108 -0.2287
  242loPI   C2A 3864  12.683  15.255   9.436  0.5010 -0.1798  0.3409
  242loPI   C3A 3865  12.582  15.111   8.990  0.0651 -0.3041  0.3120
  242loPI   C4A 3866  12.514  14.815   8.630  0.1913  0.1029  0.0443
  242loPI   C5A 3867  12.133  14.972   8.363 -0.1964 -0.1391 -0.1394
  242loPI   C6A 3868  11.864  14.862   8.061 -0.2731  0.1059  0.3688
  242loPI   C1B 3869  12.913  15.751   9.581  0.2011 -0.0143 -0.3367
  242loPI   C2B 3870  12.901  15.875   9.141 -0.2698 -0.0823  0.1176
  242loPI   C3B 3871  12.866  16.361   8.961  0.1588 -0.1912 -0.0290
  242loPI   C4B 3872  12.804  16.686   9.202 -0.0626  0.0453  0.2960
  243loPI    C1 3873  10.977   8.985  10.852  0.0596  0.1306  0.0188
  243loPI    C2 3874  10.627   8.926  10.667 -0.0673  0.2410  0.2198
  243loPI    C3 3875  10.636   8.996  11.061  0.1880  0.1631  0.2300
  243loPI   PO4 3876  11.195   9.222  10.750 -0.0217  0.0105 -0.2669
  243loPI   GL1 3877  11.368   9.204  10.352 -0.0180 -0.2054 -0.1537
  243loPI   GL2 3878  11.527   9.356  10.119  0.0055  0.0169  0.2391
  243loPI   C1A 3879  11.107   9.142   9.999  0.0543 -0.3277  0.0313
  243loPI   C2A 3880  10.930   9.445   9.756  0.0309  0.0920  0.0630
  243loPI   C3A 3881  11.054   9.783   9.413  0.1783  0.0117  0.2737
  243loPI   C4A 3882  10.884  10.264   9.288 -0.3384 -0.2762  0.1767
  243loPI   C5A 3883  10.622  10.353   8.999 -0.1119 -0.1751  0.3613
  243loPI   C6A 3884  10.696  10.328   8.504  0.0700  0.2992  0.3182
  243loPI   C1B 3885  11.848   9.585   9.830 -0.0119 -0.0340 -0.0794
  243loPI   C2B 3886  11.738   9.586   9.481  0.2086 -0.0497 -0.1658
  243loPI   C3B 3887  11.492   9.647   9.156 -0.2468 -0.2166 -0.0319
  243loPI   C4B 3888  11.166   9.534   8.917 -0.0761  0.1507 -0.2046
  244loPI    C1 3889   8.010  12.087  10.580  0.1179  0.0602  0.2850
  244loPI    C2 3890   8.288  11.808  10.511 -0.1662 -0.1480 -0.0569
  244loPI    C3 3891   7.937  11.705  10.674 -0.0850  0.0981  0.2866
  244loPI   PO4 3892   7.980  12.275  10.436  0.1908 -0.0122 -0.2206
  244loPI   GL1 3893   8.081  12.400  10.074 -0.2286  0.1975 -0.1086
  244loPI   GL2 3894   7.932  12.127   9.786 -0.0504 -0.0551 -0.0876
  244loPI   C1A 3895   8.265  12.459   9.657 -0.1171  0.0140 -0.1421
  244loPI   C2A 3896   8.393  12.235   9.281  0.0151  0.0860 -0.0841
  244loPI   C3A 3897   8.443  12.254   8.832  0.1837 -0.0578  0.1055
  244loPI   C4A 3898   8.269  12.006   8.525 -0.0098 -0.0987  0.1632
  244loPI   C5A 3899   7.984  11.835   8.263  0.1593  0.3735 -0.0188
  244loPI   C6A 3900   7.529  11.832   8.129  0.1204 -0.0141  0.2130
  244loPI   C1B 3901   7.858  12.392   9.446  0.2776  0.0150  0.3159
  244loPI   C2B 3902   7.955  12.351   9.031 -0.0092 -0.1353  0.1419
  244loPI   C3B 3903   7.855  12.297   8.624  0.2043 -0.0177 -0.1473
  244loPI   C4B 3904   7.641  12.269   8.239  0.0774  0.0122  0.1346
  245loPI    C1 3905   0.332  15.142  10.676  0.1001 -0.2287 -0.1059
  245loPI    C2 3906   0.494  14.875  10.927  0.2833 -0.0792 -0.0631
  245loPI    C3 3907   0.383  15.235  11.062 -0.0887 -0.1791 -0.0920
  245loPI   PO4 3908   0.128  15.034  10.548  0.0836 -0.3653  0.0382
  245loPI   GL1 3909   0.008  15.170  10.144 -0.0409 -0.0888 -0.1189
  245loPI   GL2 3910   0.371  15.371  10.138  0.1147 -0.0382 -0.1266
  245loPI   C1A 3911   0.016  14.842   9.833  0.1362 -0.0208 -0.0832
  245loPI   C2A 3912  -0.067  14.608   9.516  0.0634  0.0375 -0.1071
  245loPI   C3A 3913   0.140  14.569   9.032 -0.0198 -0.1103 -0.2774
  245loPI   C4A 3914   0.316  14.725   8.719 -0.2003  0.0519  0.0064
  245loPI   C5A 3915   0.638  14.589   8.419 -0.3041 -0.1036  0.1642
  245loPI   C6A 3916   1.012  14.301   8.387 -0.0444  0.1151 -0.5213
  245loPI   C1B 3917   0.463  15.175   9.718  0.1517 -0.3124 -0.0979
  245loPI   C2B 3918   0.735  15.361   9.379  0.1268 -0.1650  0.1232
  245loPI   C3B 3919   0.989  15.462   8.985  0.0685 -0.2448 -0.0598
  245loPI   C4B 3920   1.273  15.330   8.661 -0.2490 -0.2272 -0.1721
  246loPI    C1 3921  15.796   5.894  10.720 -0.1369  0.2621 -0.0626
  246loPI    C2 3922  15.842   6.056  11.082 -0.0061  0.1444 -0.0257
  246loPI    C3 3923  15.552   5.789  11.019  0.1437 -0.0425  0.0657
  246loPI   PO4 3924  15.837   6.081  10.530 -0.1986 -0.0410 -0.2834
  246loPI   GL1 3925  16.062   6.321  10.137  0.1286 -0.0583 -0.1507
  246loPI   GL2 3926  16.379   6.089  10.055  0.1441 -0.0290 -0.1041
  246loPI   C1A 3927  16.122   6.410   9.765  0.2081  0.0592 -0.4829
  246loPI   C2A 3928  16.177   6.435   9.432  0.0449  0.0148 -0.0412
  246loPI   C3A 3929  15.990   6.608   9.006 -0.1721  0.2766  0.0153
  246loPI   C4A 3930  15.908   6.791   8.539 -0.2818  0.0144 -0.0143
  246loPI   C5A 3931  16.039   6.900   8.177  0.0469  0.0263  0.2903
  246loPI   C6A 3932  15.753   6.947   7.875 -0.0377  0.0817 -0.2811
  246loPI   C1B 3933  16.526   6.135   9.665 -0.3067  0.2670 -0.1105
  246loPI   C2B 3934  16.501   6.070   9.289  0.2342  0.1228  0.0145
  246loPI   C3B 3935  16.465   5.913   8.750 -0.0939  0.2262  0.0431
  246loPI   C4B 3936  16.800   6.132   8.477 -0.2888  0.0806 -0.0584
  247loPI    C1 3937  15.217   5.461  10.770 -0.0495  0.0322 -0.0837
  247loPI    C2 3938  15.386   5.298  11.095 -0.3223 -0.0713  0.0092
  247loPI    C3 3939  15.116   5.591  11.135 -0.1090  0.1493 -0.1416
  247loPI   PO4 3940  15.341   5.615  10.646  0.1775  0.1531 -0.1560
  247loPI   GL1 3941  15.570   5.679  10.310  0.0946  0.0781 -0.1344
  247loPI   GL2 3942  15.830   5.391  10.332 -0.1148  0.1397 -0.1864
  247loPI   C1A 3943  15.351   5.722   9.929 -0.3869  0.2849 -0.3072
  247loPI   C2A 3944  15.513   5.725   9.507  0.0571 -0.0952 -0.1553
  247loPI   C3A 3945  15.665   5.570   9.244  0.0996 -0.5518 -0.5971
  247loPI   C4A 3946  15.711   5.485   8.897  0.1811 -0.2541 -0.2273
  247loPI   C5A 3947  15.971   5.711   8.618 -0.1264 -0.0917  0.0876
  247loPI   C6A 3948  16.063   5.998   8.242 -0.2818 -0.0164 -0.3924
  247loPI   C1B 3949  15.859   5.537   9.859 -0.1088  0.0690  0.0772
  247loPI   C2B 3950  15.817   6.038   9.834  0.2449  0.3328  0.1521
  247loPI   C3B 3951  15.675   6.499   9.715 -0.0593 -0.2329  0.1770
  247loPI   C4B 3952  15.649   6.786   9.379 -0.2132  0.1636  0.0725
  248loPI    C1 3953   9.712   2.750  10.631 -0.2483  0.1024 -0.0526
  248loPI    C2 3954   9.550   2.868  10.977 -0.0408 -0.0401  0.0956
  248loPI    C3 3955   9.892   2.660  10.977  0.1553  0.2714 -0.2113
  248loPI   PO4 3956   9.402   2.651  10.476  0.2481 -0.2268  0.0629
  248loPI   GL1 3957   9.184   2.786  10.158  0.0097 -0.3153 -0.1753
  248loPI   GL2 3958   9.607   2.847   9.992  0.0566 -0.3735 -0.0399
  248loPI   C1A 3959   9.133   2.776   9.799  0.1067  0.0854  0.0244
  248loPI   C2A 3960   8.906   2.797   9.487  0.1858 -0.0440 -0.0446
  248loPI   C3A 3961   9.096   2.877   9.031 -0.3354 -0.0016  0.0484
  248loPI   C4A 3962   9.348   3.129   8.660  0.2626  0.0273 -0.0429
  248loPI   C5A 3963   9.399   3.433   8.281  0.1271 -0.0478 -0.1653
  248loPI   C6A 3964   9.391   3.908   8.204  0.0686 -0.3184 -0.0728
  248loPI   C1B 3965   9.620   2.674   9.550  0.1901 -0.1723 -0.0771
  248loPI   C2B 3966   9.640   2.679   9.091 -0.1204  0.0297 -0.2264
  248loPI   C3B 3967   9.913   2.598   8.736 -0.0231 -0.1190  0.0863
  248loPI   C4B 3968  10.236   2.740   8.455  0.0241 -0.5011  0.0596
  249loPI    C1 3969  11.778   0.968  10.329 -0.1020  0.1444  0.0365
  249loPI    C2 3970  12.108   0.823  10.156 -0.0044  0.4287 -0.0214
  249loPI    C3 3971  12.043   0.764  10.546 -0.0726  0.0504 -0.0864
  249loPI   PO4 3972  11.611   0.863  10.345  0.2956 -0.4846  0.1179
  249loPI   GL1 3973  11.342   0.784   9.997 -0.1707 -0.2663 -0.5821
  249loPI   GL2 3974  11.638   0.858   9.866 -0.2233  0.0204  0.0309
  249loPI   C1A 3975  11.339   0.742   9.542 -0.0745 -0.2565 -0.1502
  249loPI   C2A 3976  11.410   0.640   9.139 -0.0009 -0.0888  0.1584
  249loPI   C3A 3977  11.084   0.503   8.728 -0.2817 -0.3196  0.1738
  249loPI   C4A 3978  10.748   0.527   8.507  0.2455 -0.2478 -0.2158
  249loPI   C5A 3979  10.392   0.193   8.435  0.0584  0.0373  0.1176
  249loPI   C6A 3980  10.406  -0.203   8.427 -0.1554  0.0348  0.3724
  249loPI   C1B 3981  11.828   0.789   9.445  0.0832 -0.2491 -0.1801
  249loPI   C2B 3982  11.996   0.640   9.108  0.1723 -0.0660  0.1852
  249loPI   C3B 3983  12.043   0.693   8.665 -0.2434 -0.0284 -0.2154
  249loPI   C4B 3984  12.006   0.775   8.215 -0.0589  0.1473 -0.2690
  250loPI    C1 3985   3.400   5.594  10.995 -0.2659  0.1756 -0.0715
  250loPI    C2 3986   3.620   5.428  11.285 -0.1002  0.1126 -0.2312
  250loPI    C3 3987   3.419   5.766  11.355 -0.1616  0.0313 -0.0068
  250loPI   PO4 3988   3.607   5.620  10.803  0.0872  0.1333 -0.1615
  250loPI   GL1 3989   3.701   5.389  10.327 -0.2533 -0.0040  0.0790
  250loPI   GL2 3990   3.779   5.615  10.371  0.1188 -0.1511 -0.0572
  250loPI   C1A 3991   3.987   5.453   9.953  0.0245 -0.1680  0.0205
  250loPI   C2A 3992   4.159   5.316   9.533 -0.3411  0.0604  0.1266
  250loPI   C3A 3993   4.186   5.267   9.116  0.1991 -0.1696 -0.1287
  250loPI   C4A 3994   4.037   5.196   8.600  0.3825  0.3183 -0.0609
  250loPI   C5A 3995   4.142   4.972   8.232 -0.3557  0.1595  0.0310
  250loPI   C6A 3996   4.477   4.918   7.867  0.1755  0.1225  0.1412
  250loPI   C1B 3997   3.808   5.913  10.012  0.0470  0.1678  0.0747
  250loPI   C2B 3998   3.676   6.013   9.616  0.2189 -0.1493  0.2116
  250loPI   C3B 3999   3.756   6.162   9.228  0.0128  0.0979  0.1483
  250loPI   C4B 4000   3.834   6.020   8.913  0.1791  0.2266 -0.0972
  251loPI    C1 4001  15.236   8.891  10.790  0.0130 -0.0445  0.0022
  251loPI    C2 4002  15.126   8.612  11.055 -0.2439  0.0629  0.0115
  251loPI    C3 4003  15.450   8.836  11.123 -0.0294 -0.2382 -0.0015
  251loPI   PO4 4004  15.199   8.793  10.580  0.0903  0.0770 -0.1634
  251loPI   GL1 4005  15.175   8.633  10.138  0.0689 -0.1660 -0.2115
  251loPI   GL2 4006  14.757   8.638   9.999  0.0132 -0.0171  0.1399
  251loPI   C1A 4007  15.170   8.597   9.730  0.0004  0.1750 -0.1779
  251loPI   C2A 4008  15.163   8.597   9.302  0.0914 -0.0438 -0.2356
  251loPI   C3A 4009  15.070   8.597   8.845  0.1030 -0.0387 -0.0794
  251loPI   C4A 4010  15.272   8.434   8.517 -0.2749  0.2839 -0.3893
  251loPI   C5A 4011  15.702   8.375   8.317 -0.2127  0.3928  0.3312
  251loPI   C6A 4012  16.159   8.401   8.522  0.3427  0.0306 -0.0937
  251loPI   C1B 4013  14.687   8.615   9.508 -0.0306 -0.0807 -0.1186
  251loPI   C2B 4014  14.652   8.651   9.074 -0.0122  0.0836 -0.1899
  251loPI   C3B 4015  14.594   8.825   8.636 -0.1942  0.1053  0.0363
  251loPI   C4B 4016  14.841   8.624   8.344 -0.0372  0.0612  0.1544
  252loPI    C1 4017  17.932   9.257  11.390 -0.1193 -0.2272 -0.1592
  252loPI    C2 4018  17.811   9.398  11.744  0.3449 -0.0958 -0.0447
  252loPI    C3 4019  17.894   9.009  11.701  0.0399 -0.1596 -0.0846
  252loPI   PO4 4020  18.001   9.507  11.302 -0.2176 -0.2516  0.0826
  252loPI   GL1 4021  17.847   9.542  10.911 -0.3402  0.0377 -0.2266
  252loPI   GL2 4022  17.541   9.490  10.656  0.4319  0.0366 -0.1570
  252loPI   C1A 4023  18.034   9.379  10.481  0.0236 -0.0037 -0.2404
  252loPI   C2A 4024  18.108   9.171  10.015 -0.3159  0.2284  0.1615
  252loPI   C3A 4025  18.217   9.139   9.645  0.2289  0.1780  0.1974
  252loPI   C4A 4026  18.326   9.204   9.163 -0.0286  0.3556  0.0589
  252loPI   C5A 4027  18.574   9.091   8.736  0.5301  0.2895 -0.1127
  252loPI   C6A 4028  18.797   9.271   8.339 -0.0220  0.1231 -0.1987
  252loPI   C1B 4029  17.595   9.392  10.201  0.2058  0.0792  0.3816
  252loPI   C2B 4030  17.641   9.226   9.850  0.2902 -0.1039 -0.1348
  252loPI   C3B 4031  17.540   9.389   9.394 -0.0811  0.0636  0.2331
  252loPI   C4B 4032  17.499   9.385   8.856 -0.1293 -0.2085  0.0189
  253loPI    C1 4033  10.854   0.281  10.795 -0.0891 -0.0834  0.2125
  253loPI    C2 4034  11.196   0.360  10.987  0.1145 -0.1076 -0.1317
  253loPI    C3 4035  10.849   0.365  11.186  0.3026  0.0127  0.2012
  253loPI   PO4 4036  10.925   0.145  10.611  0.1359 -0.2408  0.1534
  253loPI   GL1 4037  11.161   0.222  10.258  0.2710  0.1275  0.1932
  253loPI   GL2 4038  11.214  -0.085  10.156  0.2531  0.2505  0.1145
  253loPI   C1A 4039  10.891   0.451  10.028 -0.0041 -0.2960  0.2539
  253loPI   C2A 4040  10.895   0.541   9.698 -0.0245  0.0104 -0.1111
  253loPI   C3A 4041  10.992   0.466   9.247 -0.1459 -0.0139 -0.0931
  253loPI   C4A 4042  10.662   0.301   8.958  0.2175  0.1679 -0.0999
  253loPI   C5A 4043  10.285   0.095   8.953  0.0681 -0.2157 -0.0287
  253loPI   C6A 4044   9.964   0.013   8.576  0.2021  0.1268 -0.2677
  253loPI   C1B 4045  11.452  -0.269   9.773  0.0775 -0.3648 -0.0324
  253loPI   C2B 4046  11.490  -0.411   9.424  0.2749 -0.0005  0.2535
  253loPI   C3B 4047  11.594  -0.357   9.080  0.1093  0.0811  0.2198
  253loPI   C4B 4048  11.595  -0.141   8.663 -0.1973 -0.3610 -0.3484
  254loPI    C1 4049   8.719   7.797  10.277 -0.2245  0.2274 -0.1916
  254loPI    C2 4050   8.787   8.184  10.351 -0.0705  0.1891 -0.1279
  254loPI    C3 4051   8.512   7.985  10.563 -0.0383  0.2243 -0.0527
  254loPI   PO4 4052   8.959   7.709  10.264  0.1373 -0.6708  0.0476
  254loPI   GL1 4053   9.112   7.682   9.855  0.0439 -0.0135  0.4285
  254loPI   GL2 4054   9.068   7.316   9.896 -0.2603  0.1607 -0.3081
  254loPI   C1A 4055   9.071   7.881   9.451  0.3714 -0.0505 -0.0843
  254loPI   C2A 4056   8.996   7.948   9.032  0.0605  0.0903 -0.1829
  254loPI   C3A 4057   8.934   8.076   8.574 -0.3989  0.1271 -0.0873
  254loPI   C4A 4058   8.809   7.985   8.205  0.0641  0.0399  0.0492
  254loPI   C5A 4059   8.423   7.829   7.979  0.2837  0.2972 -0.1283
  254loPI   C6A 4060   8.281   7.669   7.574  0.0958  0.2974  0.0728
  254loPI   C1B 4061   9.118   7.343   9.504 -0.2447  0.1167 -0.2205
  254loPI   C2B 4062   9.178   7.479   9.120  0.0387  0.3018 -0.3146
  254loPI   C3B 4063   9.155   7.576   8.714  0.2883 -0.3190  0.0449
  254loPI   C4B 4064   9.322   7.788   8.430  0.0891  0.0138  0.1905
  255loPI    C1 4065  13.986   3.292  10.621 -0.0057 -0.0850  0.2243
  255loPI    C2 4066  14.204   2.972  10.722  0.1102 -0.0244  0.1675
  255loPI    C3 4067  14.327   3.339  10.824  0.3010  0.0500 -0.3023
  255loPI   PO4 4068  13.963   3.249  10.367  0.0136 -0.4460 -0.0981
  255loPI   GL1 4069  14.082   3.393   9.980  0.1669  0.2491  0.2814
  255loPI   GL2 4070  14.398   3.304   9.944  0.1329  0.1242 -0.2765
  255loPI   C1A 4071  13.980   3.489   9.602 -0.1638  0.0190  0.4124
  255loPI   C2A 4072  14.136   3.421   9.171 -0.0794 -0.1622  0.3355
  255loPI   C3A 4073  14.268   3.531   8.946 -0.2587  0.1980 -0.1794
  255loPI   C4A 4074  14.176   3.374   8.567 -0.1261  0.1200 -0.0704
  255loPI   C5A 4075  14.349   3.285   8.199 -0.6281 -0.0678 -0.1864
  255loPI   C6A 4076  14.572   2.957   8.021  0.0562 -0.0941  0.0814
  255loPI   C1B 4077  14.308   3.093   9.530 -0.1939  0.0380 -0.2120
  255loPI   C2B 4078  14.443   3.029   9.061  0.3551 -0.2784  0.2023
  255loPI   C3B 4079  14.669   2.661   8.873 -0.2321 -0.0953 -0.3208
  255loPI   C4B 4080  14.715   2.670   8.438  0.1138  0.2702  0.1320
  256loPI    C1 4081  17.314   2.898  10.823  0.0601 -0.0613  0.1143
  256loPI    C2 4082  17.308   2.604  11.094  0.2779 -0.1291  0.0476
  256loPI    C3 4083  17.377   2.981  11.209 -0.0314 -0.0971  0.1371
  256loPI   PO4 4084  17.396   2.742  10.568  0.0471  0.0668  0.0033
  256loPI   GL1 4085  17.210   2.517  10.195 -0.5158  0.3023 -0.0876
  256loPI   GL2 4086  17.461   2.396   9.976  0.0567  0.2147  0.1260
  256loPI   C1A 4087  17.087   2.452   9.695 -0.0202 -0.1412  0.0397
  256loPI   C2A 4088  17.411   2.396   9.336 -0.5354 -0.0559  0.2071
  256loPI   C3A 4089  17.418   2.481   8.847  0.2337  0.0499  0.1857
  256loPI   C4A 4090  17.708   2.328   8.514 -0.1596 -0.1313  0.2136
  256loPI   C5A 4091  17.748   2.092   8.194  0.3176  0.0318  0.1675
  256loPI   C6A 4092  17.899   1.745   7.874 -0.0548  0.1874 -0.2273
  256loPI   C1B 4093  17.813   2.682   9.655 -0.0109 -0.1369 -0.1150
  256loPI   C2B 4094  17.818   2.731   9.188 -0.0703  0.2109 -0.0669
  256loPI   C3B 4095  17.759   2.846   8.751 -0.0810 -0.0877  0.3008
  256loPI   C4B 4096  17.971   2.978   8.449  0.0450  0.1254 -0.3161
  257loPI    C1 4097  15.017   9.973  10.726 -0.0753 -0.3048 -0.0973
  257loPI    C2 4098  15.049   9.780  11.075 -0.2165  0.2304  0.2235
  257loPI    C3 4099  14.707   9.766  10.869 -0.0996 -0.1709  0.0477
  257loPI   PO4 4100  15.298   9.864  10.589 -0.0585 -0.2294 -0.1727
  257loPI   GL1 4101  15.436   9.599  10.242  0.0110 -0.0036  0.0303
  257loPI   GL2 4102  15.671   9.866  10.143  0.1781 -0.3353  0.1436
  257loPI   C1A 4103  15.503   9.439   9.879  0.0751  0.0520 -0.3634
  257loPI   C2A 4104  15.557   9.353   9.478  0.0426  0.1877 -0.2033
  257loPI   C3A 4105  15.390   9.389   9.166 -0.0228 -0.2922 -0.2219
  257loPI   C4A 4106  15.180   9.494   8.775 -0.1642  0.0764 -0.5750
  257loPI   C5A 4107  14.950   9.722   8.346 -0.3631  0.0460  0.0482
  257loPI   C6A 4108  14.867   9.674   7.915  0.0691 -0.1250  0.2637
  257loPI   C1B 4109  15.729   9.896   9.684  0.0727 -0.0254 -0.0081
  257loPI   C2B 4110  15.800   9.771   9.319 -0.0656 -0.1771  0.1660
  257loPI   C3B 4111  15.690   9.677   8.837  0.1928 -0.0430  0.1727
  257loPI   C4B 4112  15.566   9.380   8.479 -0.3768 -0.1677 -0.3496
  258loPI    C1 4113   3.842  17.860  10.761 -0.0027 -0.2566  0.0827
  258loPI    C2 4114   4.047  18.124  10.980 -0.1926 -0.0458  0.0097
  258loPI    C3 4115   3.844  17.830  11.160  0.1693 -0.2576  0.0825
  258loPI   PO4 4116   3.625  17.948  10.613  0.3562 -0.0240 -0.0339
  258loPI   GL1 4117   3.290  18.160  10.527 -0.1097  0.2276  0.0317
  258loPI   GL2 4118   3.031  17.977  10.489  0.0015  0.0811  0.1829
  258loPI   C1A 4119   3.297  17.940  10.034 -0.0947 -0.2901 -0.1482
  258loPI   C2A 4120   2.992  17.895   9.709  0.6007 -0.0842 -0.0908
  258loPI   C3A 4121   2.945  17.878   9.271 -0.1844  0.1190 -0.0974
  258loPI   C4A 4122   2.932  17.945   8.840  0.1294  0.0951 -0.1543
  258loPI   C5A 4123   2.971  18.101   8.388  0.1883 -0.0607  0.1795
  258loPI   C6A 4124   3.154  18.230   7.956  0.0987 -0.1031 -0.1418
  258loPI   C1B 4125   2.845  18.183  10.164 -0.1833  0.3449 -0.0172
  258loPI   C2B 4126   2.870  18.397   9.778  0.0417  0.1923  0.1644
  258loPI   C3B 4127   2.948  18.532   9.299 -0.0315  0.2487  0.0148
  258loPI   C4B 4128   2.996  18.456   8.866 -0.0245  0.0165  0.0829
  259loPI    C1 4129   4.146   0.963  10.665  0.2593  0.0227  0.0642
  259loPI    C2 4130   4.232   0.810  11.024  0.0966 -0.1670  0.0241
  259loPI    C3 4131   4.327   1.189  10.940  0.0049 -0.0765  0.3175
  259loPI   PO4 4132   4.117   0.757  10.487 -0.2053 -0.1058  0.0813
  259loPI   GL1 4133   3.885   0.649  10.137 -0.4087 -0.3449  0.1041
  259loPI   GL2 4134   4.115   0.861  10.039 -0.0066 -0.1932  0.1934
  259loPI   C1A 4135   3.788   0.561   9.709 -0.0194 -0.1338  0.6130
  259loPI   C2A 4136   3.813   0.431   9.352  0.2142 -0.0449  0.4347
  259loPI   C3A 4137   3.689   0.466   8.942  0.3845 -0.0090 -0.2337
  259loPI   C4A 4138   3.456   0.445   8.704 -0.1934  0.0289 -0.0310
  259loPI   C5A 4139   3.185   0.451   8.329 -0.0874  0.0951 -0.1900
  259loPI   C6A 4140   2.766   0.561   8.376 -0.2997 -0.0618  0.0780
  259loPI   C1B 4141   4.185   0.878   9.656 -0.0245 -0.0828  0.0039
  259loPI   C2B 4142   4.175   0.769   9.224 -0.1334  0.1000 -0.0733
  259loPI   C3B 4143   4.145   0.660   8.797 -0.0408  0.1080  0.2243
  259loPI   C4B 4144   3.864   0.503   8.442 -0.0910  0.2312  0.0805
  260loPI    C1 4145   2.353   8.413  10.930  0.0337  0.1945  0.1899
  260loPI    C2 4146   2.233   8.031  10.938  0.0561  0.1824 -0.0128
  260loPI    C3 4147   2.338   8.214  11.278  0.1644 -0.0294  0.0698
  260loPI   PO4 4148   2.136   8.526  10.741  0.2936  0.0428 -0.1141
  260loPI   GL1 4149   1.963   8.594  10.278  0.5383 -0.1649 -0.0083
  260loPI   GL2 4150   2.002   8.830  10.354 -0.1470  0.0900  0.1341
  260loPI   C1A 4151   1.883   8.541   9.874  0.1179 -0.2437  0.1204
  260loPI   C2A 4152   1.804   8.684   9.358 -0.0887  0.1364  0.0351
  260loPI   C3A 4153   1.686   8.454   9.005  0.0281  0.2216 -0.1572
  260loPI   C4A 4154   1.349   8.329   8.688 -0.1841 -0.1102  0.3422
  260loPI   C5A 4155   0.852   8.146   8.606 -0.0844 -0.2562 -0.2864
  260loPI   C6A 4156   0.466   8.175   8.445  0.1765 -0.1504  0.1931
  260loPI   C1B 4157   1.852   9.144  10.052 -0.1257  0.0954  0.1793
  260loPI   C2B 4158   1.792   9.097   9.595 -0.3290 -0.1902  0.0180
  260loPI   C3B 4159   1.617   9.112   9.266 -0.4354  0.3026 -0.0639
  260loPI   C4B 4160   1.551   9.179   8.838  0.1435 -0.0883 -0.2769
  261loPI    C1 4161   0.793  15.206  10.326  0.0715  0.1701  0.0302
  261loPI    C2 4162   0.897  15.205  10.712  0.0510 -0.1086  0.0368
  261loPI    C3 4163   0.851  14.860  10.516 -0.3273  0.0205 -0.1113
  261loPI   PO4 4164   0.985  15.473  10.294  0.1795  0.2760  0.3568
  261loPI   GL1 4165   1.337  15.486  10.056 -0.0011 -0.0819 -0.2149
  261loPI   GL2 4166   1.444  15.758  10.045 -0.2078 -0.1222 -0.2814
  261loPI   C1A 4167   1.258  15.327   9.722  0.3788  0.1308  0.4676
  261loPI   C2A 4168   1.435  15.057   9.315 -0.0479  0.0339 -0.0419
  261loPI   C3A 4169   1.812  14.754   9.332  0.0359 -0.1299 -0.2251
  261loPI   C4A 4170   1.825  14.529   8.974  0.0867  0.1044  0.3190
  261loPI   C5A 4171   1.820  14.154   8.765 -0.3014  0.0302  0.3040
  261loPI   C6A 4172   1.804  13.659   8.777  0.0306 -0.2073 -0.2580
  261loPI   C1B 4173   1.636  15.798   9.640  0.0732 -0.0120  0.1487
  261loPI   C2B 4174   1.782  15.747   9.226  0.0317  0.3393 -0.2075
  261loPI   C3B 4175   1.904  15.996   8.857  0.0421  0.3011 -0.2993
  261loPI   C4B 4176   1.861  16.078   8.468 -0.2005  0.0271 -0.1010
  262loPI    C1 4177   8.501  16.113  10.937 -0.1209 -0.0059 -0.2080
  262loPI    C2 4178   8.596  15.770  11.119  0.2272  0.0313 -0.3128
  262loPI    C3 4179   8.570  16.108  11.331 -0.0367 -0.0428 -0.2231
  262loPI   PO4 4180   8.194  16.095  10.806  0.0448 -0.1705  0.0171
  262loPI   GL1 4181   8.044  15.825  10.531 -0.1793 -0.2380 -0.2673
  262loPI   GL2 4182   8.410  15.720  10.520  0.2856 -0.3013 -0.2659
  262loPI   C1A 4183   8.123  15.947  10.153  0.0377  0.0005 -0.1918
  262loPI   C2A 4184   8.283  15.945   9.862 -0.0256  0.0399 -0.1670
  262loPI   C3A 4185   8.338  16.031   9.447 -0.0896 -0.2258  0.2020
  262loPI   C4A 4186   8.288  16.066   9.051 -0.0452  0.1257 -0.0654
  262loPI   C5A 4187   8.042  15.931   8.669 -0.0556  0.0522  0.1983
  262loPI   C6A 4188   8.137  15.709   8.294 -0.1271 -0.0491  0.1214
  262loPI   C1B 4189   8.751  15.701  10.185 -0.2111  0.1401  0.0119
  262loPI   C2B 4190   8.826  15.854   9.698 -0.1139 -0.3979  0.2516
  262loPI   C3B 4191   8.946  15.940   9.278  0.0796 -0.3844  0.0770
  262loPI   C4B 4192   8.768  16.286   9.010 -0.2432  0.1938 -0.1345
  263loPI    C1 4193   6.068   0.722  10.940 -0.3968 -0.3674  0.0196
  263loPI    C2 4194   6.228   0.560  11.269  0.0454  0.1266  0.0602
  263loPI    C3 4195   6.037   0.911  11.292 -0.0197  0.1096 -0.1918
  263loPI   PO4 4196   6.194   0.510  10.720 -0.0762  0.0063 -0.3376
  263loPI   GL1 4197   6.042   0.435  10.210 -0.1217 -0.1505 -0.2123
  263loPI   GL2 4198   6.312   0.561  10.194 -0.0185  0.1021 -0.2591
  263loPI   C1A 4199   6.327   0.133   9.868  0.1614  0.0346 -0.1114
  263loPI   C2A 4200   6.550   0.034   9.444 -0.1476 -0.1362  0.1017
  263loPI   C3A 4201   6.486   0.045   9.051 -0.0437 -0.3209 -0.0430
  263loPI   C4A 4202   6.490   0.144   8.597  0.1845  0.3520  0.0824
  263loPI   C5A 4203   6.630   0.135   8.256  0.0609 -0.0359 -0.4773
  263loPI   C6A 4204   7.017   0.416   8.146  0.3954  0.1014 -0.3000
  263loPI   C1B 4205   6.193   0.564   9.790 -0.1409 -0.0064  0.3730
  263loPI   C2B 4206   6.191   0.459   9.358 -0.1566  0.2923 -0.2174
  263loPI   C3B 4207   6.224   0.523   8.979  0.1553  0.0286  0.0205
  263loPI   C4B 4208   6.184   0.634   8.462  0.3655  0.0898 -0.0821
  264loPI    C1 4209  14.824   1.612  10.364  0.2030  0.0876  0.0134
  264loPI    C2 4210  14.794   1.633  10.762 -0.1166  0.0234 -0.0048
  264loPI    C3 4211  14.512   1.799  10.531  0.0328  0.0033 -0.2043
  264loPI   PO4 4212  14.998   1.656  10.251 -0.2082 -0.2132  0.1528
  264loPI   GL1 4213  14.851   1.726   9.841 -0.1041 -0.2061  0.0811
  264loPI   GL2 4214  14.583   1.599   9.654 -0.0839  0.1900 -0.1128
  264loPI   C1A 4215  15.002   1.699   9.440 -0.1374 -0.0239 -0.0903
  264loPI   C2A 4216  14.983   1.770   9.035 -0.1460 -0.0543 -0.0230
  264loPI   C3A 4217  15.083   1.512   8.661  0.4129 -0.1069 -0.1147
  264loPI   C4A 4218  15.184   1.680   8.333  0.1001  0.0645  0.1825
  264loPI   C5A 4219  15.517   1.710   8.040 -0.0338  0.1106  0.2141
  264loPI   C6A 4220  15.658   1.996   7.866  0.2902  0.1844  0.2580
  264loPI   C1B 4221  14.601   1.472   9.199  0.1083 -0.1818  0.3039
  264loPI   C2B 4222  14.646   1.293   8.878 -0.1292  0.2231  0.0171
  264loPI   C3B 4223  14.654   1.451   8.402  0.0337 -0.2657  0.0022
  264loPI   C4B 4224  14.646   1.088   8.050 -0.2598 -0.1056  0.0197
  265loPI    C1 4225  10.765   2.002  10.682 -0.1303  0.0237 -0.0808
  265loPI    C2 4226  10.535   2.151  10.973  0.1013  0.3688 -0.0679
  265loPI    C3 4227  10.554   1.755  10.915 -0.0241  0.3022  0.3199
  265loPI   PO4 4228  10.719   2.095  10.449  0.2908 -0.0043  0.0359
  265loPI   GL1 4229  10.493   1.903  10.087 -0.1746  0.0029  0.1482
  265loPI   GL2 4230  10.845   1.982   9.937  0.0843 -0.0792  0.2398
  265loPI   C1A 4231  10.159   1.917   9.757 -0.2496  0.2839 -0.1217
  265loPI   C2A 4232  10.115   1.893   9.323 -0.1865 -0.0366 -0.0057
  265loPI   C3A 4233  10.186   1.802   8.913 -0.1777 -0.3957  0.0736
  265loPI   C4A 4234  10.184   1.490   8.673 -0.0878  0.0577 -0.4417
  265loPI   C5A 4235  10.371   1.269   8.334  0.1232  0.2088  0.0362
  265loPI   C6A 4236  10.683   1.240   8.164  0.1106 -0.1155  0.1167
  265loPI   C1B 4237  10.669   1.913   9.462 -0.2150  0.2358  0.2597
  265loPI   C2B 4238  10.692   1.901   8.938  0.1143 -0.1495  0.1910
  265loPI   C3B 4239  10.502   1.836   8.506  0.1163  0.0294  0.0503
  265loPI   C4B 4240  10.156   1.739   8.253 -0.0999  0.0265  0.0575
  266loPI    C1 4241  16.044  13.901  10.957 -0.1367  0.1204  0.1231
  266loPI    C2 4242  16.209  13.852  11.317 -0.1671  0.3218  0.1661
  266loPI    C3 4243  15.866  14.054  11.281 -0.1257  0.3663  0.0157
  266loPI   PO4 4244  16.227  13.831  10.722 -0.0711 -0.0110  0.2503
  266loPI   GL1 4245  16.177  13.753  10.264 -0.1385  0.1432  0.0462
  266loPI   GL2 4246  16.313  13.473  10.361 -0.4938 -0.3133 -0.0143
  266loPI   C1A 4247  16.190  13.788   9.752  0.0564  0.1335 -0.0639
  266loPI   C2A 4248  16.135  13.632   9.424 -0.1221  0.2286  0.3866
  266loPI   C3A 4249  15.826  13.783   9.287 -0.2431  0.0644  0.0820
  266loPI   C4A 4250  15.652  13.687   8.905  0.2000 -0.2557  0.1681
  266loPI   C5A 4251  15.355  13.535   8.607  0.2607  0.2137  0.0336
  266loPI   C6A 4252  15.248  13.124   8.407 -0.0902 -0.1763  0.0709
  266loPI   C1B 4253  16.233  13.254  10.057  0.0208  0.1378  0.0037
  266loPI   C2B 4254  16.097  13.132   9.638 -0.0138 -0.3475  0.1513
  266loPI   C3B 4255  16.082  13.246   9.191 -0.4072 -0.3766  0.2339
  266loPI   C4B 4256  16.064  13.351   8.742 -0.3026 -0.3418 -0.0518
  267loPI    C1 4257  10.746   2.608  10.372  0.2710  0.2737 -0.1049
  267loPI    C2 4258  10.932   2.499  10.709  0.1762  0.0676 -0.1174
  267loPI    C3 4259  10.722   2.840  10.697  0.0726  0.0120  0.0710
  267loPI   PO4 4260  10.897   2.441  10.139  0.0536 -0.1035  0.2845
  267loPI   GL1 4261  11.113   2.631   9.832 -0.1351  0.1581  0.3843
  267loPI   GL2 4262  11.322   2.429   9.887  0.0457 -0.1416 -0.1657
  267loPI   C1A 4263  11.266   2.701   9.426  0.0031  0.0740  0.0287
  267loPI   C2A 4264  11.321   2.681   8.989  0.1118  0.0535 -0.0505
  267loPI   C3A 4265  11.344   2.424   8.550  0.2081  0.4831  0.0496
  267loPI   C4A 4266  11.564   2.221   8.216 -0.2536 -0.0529  0.2349
  267loPI   C5A 4267  11.944   1.986   8.119  0.1869  0.0896 -0.0604
  267loPI   C6A 4268  12.388   2.049   8.108 -0.0438 -0.1567 -0.1277
  267loPI   C1B 4269  11.233   2.212   9.576 -0.2979 -0.1404  0.0841
  267loPI   C2B 4270  11.218   2.168   9.026 -0.0774 -0.0509 -0.0068
  267loPI   C3B 4271  11.465   1.973   8.725 -0.1507 -0.0268 -0.2283
  267loPI   C4B 4272  11.901   1.909   8.675 -0.2562 -0.0915  0.1485
  268loPI    C1 4273  15.835  14.968  10.824  0.1995  0.0254 -0.0681
  268loPI    C2 4274  16.111  14.823  11.074  0.1306  0.0502  0.0227
  268loPI    C3 4275  15.950  15.183  11.140  0.1721  0.0925 -0.1035
  268loPI   PO4 4276  15.701  14.833  10.768 -0.3031 -0.0877 -0.1360
  268loPI   GL1 4277  15.741  14.497  10.318  0.1162  0.0984 -0.4352
  268loPI   GL2 4278  15.515  14.678  10.281  0.1436 -0.0869  0.1586
  268loPI   C1A 4279  15.994  14.520   9.866 -0.1421 -0.1264 -0.0408
  268loPI   C2A 4280  16.349  14.287   9.720 -0.3438 -0.2464  0.0770
  268loPI   C3A 4281  16.397  14.053   9.358  0.3903 -0.1131  0.0485
  268loPI   C4A 4282  16.137  13.938   8.897  0.1652 -0.1061  0.0078
  268loPI   C5A 4283  16.286  13.750   8.514  0.2272  0.0386 -0.0137
  268loPI   C6A 4284  16.160  13.851   8.124  0.1228  0.1648 -0.0668
  268loPI   C1B 4285  15.472  14.561   9.901 -0.0413 -0.0748  0.2315
  268loPI   C2B 4286  15.446  14.502   9.503 -0.0313 -0.0122 -0.1777
  268loPI   C3B 4287  15.473  14.193   9.204  0.1285 -0.0806 -0.0595
  268loPI   C4B 4288  15.309  14.053   8.765  0.0273  0.0904  0.1764
  269loPI    C1 4289  15.777   0.958  10.374  0.1727 -0.1089 -0.0778
  269loPI    C2 4290  15.896   0.987  10.755  0.0139  0.1106 -0.0425
  269loPI    C3 4291  15.761   0.638  10.613 -0.1835  0.0937  0.1803
  269loPI   PO4 4292  15.944   1.069  10.224 -0.1552 -0.0074  0.1688
  269loPI   GL1 4293  16.076   1.001   9.865  0.0683  0.3847  0.1975
  269loPI   GL2 4294  15.613   1.024   9.797  0.1805  0.1178 -0.0391
  269loPI   C1A 4295  16.049   0.891   9.501  0.1945 -0.2957 -0.0660
  269loPI   C2A 4296  16.030   1.002   9.042  0.2378  0.0365  0.0492
  269loPI   C3A 4297  15.992   1.171   8.676 -0.1842 -0.2926 -0.0598
  269loPI   C4A 4298  15.961   1.210   8.270 -0.0446  0.0219  0.1315
  269loPI   C5A 4299  16.091   1.094   8.018 -0.0879  0.1067  0.1106
  269loPI   C6A 4300  15.946   1.103   7.627 -0.3367  0.0746 -0.5148
  269loPI   C1B 4301  15.524   0.992   9.378  0.1057 -0.2488 -0.0475
  269loPI   C2B 4302  15.551   1.086   8.851  0.2947  0.1259 -0.1645
  269loPI   C3B 4303  15.192   1.060   8.530  0.1948 -0.1106  0.0006
  269loPI   C4B 4304  15.122   1.220   8.151  0.1341  0.1525  0.2401
  270loPI    C1 4305   4.641  15.705  10.808  0.0268 -0.0795 -0.1305
  270loPI    C2 4306   4.660  15.596  11.192  0.0460  0.0781 -0.0858
  270loPI    C3 4307   4.994  15.692  10.995  0.0454 -0.0800 -0.1656
  270loPI   PO4 4308   4.430  15.528  10.694 -0.2763  0.2806 -0.2019
  270loPI   GL1 4309   4.524  15.619  10.293 -0.3733  0.2911  0.0863
  270loPI   GL2 4310   4.512  15.933  10.328  0.1791  0.0716  0.0253
  270loPI   C1A 4311   4.790  15.509   9.979  0.0108 -0.4550  0.1746
  270loPI   C2A 4312   4.825  15.519   9.564  0.2339 -0.3121  0.0567
  270loPI   C3A 4313   4.900  15.512   9.226  0.0211  0.2244  0.0438
  270loPI   C4A 4314   4.884  15.607   8.821 -0.1087 -0.1142 -0.1526
  270loPI   C5A 4315   4.851  16.011   8.624  0.3999 -0.2377 -0.0123
  270loPI   C6A 4316   5.001  16.398   8.557 -0.0609 -0.1524  0.0056
  270loPI   C1B 4317   4.415  15.961   9.905 -0.2555 -0.4062  0.1036
  270loPI   C2B 4318   4.552  15.939   9.447  0.1905 -0.1323  0.0749
  270loPI   C3B 4319   4.458  15.920   8.998  0.0749 -0.1038  0.2030
  270loPI   C4B 4320   4.395  15.499   8.743  0.0018 -0.1860 -0.3387
  271loPI    C1 4321   5.696   1.129  10.902 -0.0597  0.0044 -0.2793
  271loPI    C2 4322   5.554   1.502  10.918  0.3912  0.1708  0.0744
  271loPI    C3 4323   5.552   1.274  11.246 -0.0300 -0.2048 -0.1770
  271loPI   PO4 4324   5.630   1.046  10.679  0.1859  0.0396 -0.2127
  271loPI   GL1 4325   5.515   1.047  10.237  0.0412  0.1421 -0.0598
  271loPI   GL2 4326   5.658   0.827  10.126 -0.3255  0.0613  0.2081
  271loPI   C1A 4327   5.674   1.407   9.899  0.1606  0.2533  0.2235
  271loPI   C2A 4328   5.910   1.600   9.584  0.0280  0.0841 -0.0445
  271loPI   C3A 4329   5.904   1.696   9.170 -0.1014  0.0007 -0.3020
  271loPI   C4A 4330   5.838   1.592   8.761 -0.2090 -0.1462  0.2060
  271loPI   C5A 4331   5.835   1.479   8.344 -0.1536  0.1978  0.3888
  271loPI   C6A 4332   5.752   1.749   7.965  0.1837 -0.0486 -0.2344
  271loPI   C1B 4333   5.410   0.968   9.778  0.2641 -0.4598  0.4607
  271loPI   C2B 4334   5.359   0.945   9.371  0.0977 -0.2241 -0.2152
  271loPI   C3B 4335   5.454   1.020   8.906 -0.2296  0.2918  0.0948
  271loPI   C4B 4336   5.486   1.016   8.451 -0.0483 -0.0081  0.1534
  272loPI    C1 4337   8.046   4.909  10.340 -0.0707  0.1069  0.0800
  272loPI    C2 4338   8.181   5.130  10.645  0.1229 -0.1713  0.2002
  272loPI    C3 4339   7.886   4.865  10.704 -0.1602  0.1011  0.0403
  272loPI   PO4 4340   7.962   5.076  10.041  0.0034  0.1750 -0.0703
  272loPI   GL1 4341   8.131   5.325   9.775 -0.1882  0.2677  0.2073
  272loPI   GL2 4342   8.334   5.347   9.697  0.0126 -0.0796 -0.2664
  272loPI   C1A 4343   7.965   5.277   9.358 -0.0522  0.3604  0.1497
  272loPI   C2A 4344   7.955   5.359   8.905  0.1385  0.1796  0.0053
  272loPI   C3A 4345   8.142   5.360   8.517  0.1211 -0.1718  0.0208
  272loPI   C4A 4346   8.413   5.433   8.146  0.0741  0.0492 -0.1941
  272loPI   C5A 4347   8.746   5.275   7.899  0.1845  0.1728 -0.0074
  272loPI   C6A 4348   8.813   4.894   7.722  0.0856  0.2468 -0.1532
  272loPI   C1B 4349   8.464   5.334   9.181  0.1985 -0.0184  0.4377
  272loPI   C2B 4350   8.583   5.333   8.800 -0.0107  0.2442 -0.0023
  272loPI   C3B 4351   8.810   5.142   8.468  0.2680 -0.0541  0.1226
  272loPI   C4B 4352   9.056   4.973   8.181  0.2465  0.3338  0.0139
  273loPI    C1 4353  16.596   3.556  10.889 -0.0016 -0.1994  0.0658
  273loPI    C2 4354  16.716   3.670  11.253 -0.0916  0.0881  0.0080
  273loPI    C3 4355  16.466   3.360  11.213 -0.0105 -0.0019  0.1830
  273loPI   PO4 4356  16.685   3.787  10.757 -0.0710 -0.1509 -0.1131
  273loPI   GL1 4357  16.673   3.807  10.303  0.1834  0.0069 -0.1795
  273loPI   GL2 4358  16.926   3.537  10.297 -0.1398  0.3349  0.1217
  273loPI   C1A 4359  16.656   3.745   9.914 -0.2123 -0.0869 -0.1295
  273loPI   C2A 4360  16.609   3.662   9.522  0.2157  0.0802 -0.2152
  273loPI   C3A 4361  16.510   3.668   9.138 -0.1085 -0.0759  0.2652
  273loPI   C4A 4362  16.496   3.642   8.707  0.2854 -0.3485  0.1356
  273loPI   C5A 4363  16.624   3.415   8.262  0.2004 -0.3095  0.1498
  273loPI   C6A 4364  17.141   3.449   8.091  0.0653  0.3314  0.2101
  273loPI   C1B 4365  17.116   3.484   9.895 -0.2994 -0.0762  0.0581
  273loPI   C2B 4366  17.093   3.578   9.414  0.0701 -0.2996  0.0877
  273loPI   C3B 4367  16.930   3.434   9.013  0.2468 -0.2111  0.0588
  273loPI   C4B 4368  16.980   3.331   8.551 -0.0772 -0.1847  0.2786
  274loPI    C1 4369   8.619   3.512  10.524  0.0403  0.1692 -0.0443
  274loPI    C2 4370   8.600   3.692  10.881 -0.0108  0.1552 -0.0398
  274loPI    C3 4371   8.933   3.498  10.771 -0.0872 -0.0635  0.1081
  274loPI   PO4 4372   8.334   3.377  10.539 -0.0218 -0.0509  0.0223
  274loPI   GL1 4373   8.026   3.056  10.165  0.0955  0.0450  0.0548
  274loPI   GL2 4374   8.349   3.028  10.074  0.1322 -0.1434 -0.2022
  274loPI   C1A 4375   7.875   2.990   9.769  0.1115  0.0166  0.1483
  274loPI   C2A 4376   7.868   3.036   9.387  0.0844 -0.1570 -0.0679
  274loPI   C3A 4377   7.952   3.164   8.975  0.1770  0.0837  0.1715
  274loPI   C4A 4378   7.673   3.561   8.792 -0.0790 -0.1915 -0.0932
  274loPI   C5A 4379   7.710   3.727   8.255 -0.0671 -0.0219 -0.1722
  274loPI   C6A 4380   8.100   3.723   8.015 -0.1236  0.0611  0.1580
  274loPI   C1B 4381   8.384   2.894   9.682 -0.0470  0.0834 -0.0749
  274loPI   C2B 4382   8.422   2.889   9.435  0.0536 -0.1868 -0.1084
  274loPI   C3B 4383   8.557   2.988   8.945  0.0126  0.1857  0.2344
  274loPI   C4B 4384   8.367   3.038   8.491  0.2253 -0.1046 -0.1852
  275loPI    C1 4385  17.508  16.669  10.479  0.0123 -0.1391 -0.1040
  275loPI    C2 4386  17.620  17.048  10.545  0.1904 -0.1975 -0.0662
  275loPI    C3 4387  17.623  16.783  10.845  0.0686 -0.2301 -0.0931
  275loPI   PO4 4388  17.539  16.602  10.288  0.3324  0.0127  0.2252
  275loPI   GL1 4389  17.850  16.380   9.991  0.0386 -0.1537  0.2444
  275loPI   GL2 4390  17.739  16.100  10.146 -0.1190  0.0236  0.0632
  275loPI   C1A 4391  17.995  16.193   9.521  0.0487 -0.1593  0.0056
  275loPI   C2A 4392  18.205  16.043   9.143 -0.0438  0.0629  0.0250
  275loPI   C3A 4393  17.927  15.938   8.830  0.2215  0.0871 -0.0573
  275loPI   C4A 4394  17.486  15.895   8.603  0.0600  0.1382 -0.3486
  275loPI   C5A 4395  17.523  15.952   8.161  0.2871 -0.0195  0.1928
  275loPI   C6A 4396  17.250  15.863   7.812  0.3669 -0.0349  0.1825
  275loPI   C1B 4397  17.867  15.714   9.888  0.0853  0.0364  0.2413
  275loPI   C2B 4398  18.210  15.497   9.729 -0.1727  0.0626 -0.3240
  275loPI   C3B 4399  18.189  15.538   9.295 -0.1530  0.0816  0.0908
  275loPI   C4B 4400  18.157  15.550   8.862  0.0445 -0.4363  0.1224
  276loPI    C1 4401   3.772  15.527  10.802  0.1654 -0.5746  0.1336
  276loPI    C2 4402   3.670  15.545  11.188  0.2680  0.0524  0.1429
  276loPI    C3 4403   3.386  15.522  10.907  0.1759  0.0198  0.2380
  276loPI   PO4 4404   3.913  15.334  10.715  0.1843 -0.4062 -0.2123
  276loPI   GL1 4405   4.054  15.470  10.364  0.0795  0.2040  0.2644
  276loPI   GL2 4406   4.263  15.169  10.384  0.0206 -0.0174  0.0363
  276loPI   C1A 4407   4.104  15.580  10.035  0.1760 -0.3491  0.3768
  276loPI   C2A 4408   4.332  15.497   9.713 -0.0889 -0.0617  0.0722
  276loPI   C3A 4409   4.331  15.382   9.323 -0.1631  0.1020  0.1522
  276loPI   C4A 4410   4.027  15.237   9.002 -0.2589 -0.0730  0.0013
  276loPI   C5A 4411   3.656  15.306   8.804  0.0163 -0.0915 -0.1284
  276loPI   C6A 4412   3.327  15.165   8.458 -0.1578  0.2480  0.2796
  276loPI   C1B 4413   4.601  15.057  10.060  0.0239  0.3073 -0.1657
  276loPI   C2B 4414   4.610  15.079   9.629  0.3410  0.0883 -0.1972
  276loPI   C3B 4415   4.713  15.016   9.147 -0.0471  0.0255 -0.1458
  276loPI   C4B 4416   4.718  15.090   8.693 -0.0909 -0.0982 -0.0799
  277loPI    C1 4417  13.413   0.643  10.417  0.0733 -0.0254  0.0320
  277loPI    C2 4418  13.736   0.878  10.415  0.1327 -0.1062  0.1090
  277loPI    C3 4419  13.437   0.953  10.669  0.2713 -0.2747  0.3256
  277loPI   PO4 4420  13.425   0.553  10.152  0.3929  0.1045  0.0622
  277loPI   GL1 4421  13.213   0.342   9.890  0.0662  0.2141 -0.0405
  277loPI   GL2 4422  12.959   0.113   9.914  0.1611  0.2543  0.2504
  277loPI   C1A 4423  13.430   0.248   9.536 -0.0105  0.3375 -0.2653
  277loPI   C2A 4424  13.435   0.124   9.231  0.2656 -0.1266 -0.0003
  277loPI   C3A 4425  13.568   0.045   8.794  0.0354  0.0933  0.3655
  277loPI   C4A 4426  13.791  -0.113   8.344  0.1563  0.2462 -0.0185
  277loPI   C5A 4427  14.112  -0.318   8.184  0.1368  0.0924  0.1583
  277loPI   C6A 4428  14.273  -0.574   7.910  0.1944  0.0726  0.1348
  277loPI   C1B 4429  12.940   0.136   9.488  0.3114  0.0065  0.2172
  277loPI   C2B 4430  12.975   0.225   9.029 -0.3789 -0.3781  0.1766
  277loPI   C3B 4431  13.007   0.209   8.546 -0.2523  0.1178  0.2321
  277loPI   C4B 4432  13.055   0.049   8.109 -0.0804  0.1762 -0.1185
  278loPI    C1 4433  12.354   9.308  10.801  0.1607  0.1942  0.1559
  278loPI    C2 4434  12.040   9.246  11.041  0.0185 -0.0565 -0.0896
  278loPI    C3 4435  12.350   8.993  11.047  0.0596 -0.0065 -0.0980
  278loPI   PO4 4436  12.261   9.338  10.511 -0.0119 -0.1074  0.0061
  278loPI   GL1 4437  12.221   9.313  10.072  0.0674  0.4373  0.0621
  278loPI   GL2 4438  12.300   9.005   9.987  0.0272  0.2279  0.2758
  278loPI   C1A 4439  12.294   9.463   9.672  0.0867 -0.1139 -0.2910
  278loPI   C2A 4440  12.178   9.494   9.327 -0.0756  0.0260  0.2996
  278loPI   C3A 4441  12.348   9.333   9.021 -0.0294  0.2331  0.0489
  278loPI   C4A 4442  12.453   9.058   8.736  0.0163 -0.1224 -0.0589
  278loPI   C5A 4443  12.655   9.100   8.321 -0.0083 -0.1065 -0.2408
  278loPI   C6A 4444  12.823   8.726   8.023  0.0106 -0.2734  0.1682
  278loPI   C1B 4445  12.335   8.987   9.513 -0.0132 -0.0929  0.1552
  278loPI   C2B 4446  12.335   8.738   9.176 -0.4028  0.3085 -0.3372
  278loPI   C3B 4447  12.248   8.619   8.872 -0.1524 -0.2538  0.0326
  278loPI   C4B 4448  12.041   8.211   8.722 -0.3392 -0.1176  0.2430
  279loPI    C1 4449   4.372  11.234  10.471 -0.0926 -0.2101  0.0767
  279loPI    C2 4450   4.648  10.989  10.626  0.4515  0.2408 -0.1487
  279loPI    C3 4451   4.620  11.367  10.755 -0.0356  0.2149 -0.1632
  279loPI   PO4 4452   4.176  11.245  10.468 -0.4116  0.2179  0.3374
  279loPI   GL1 4453   4.000  11.193  10.102 -0.1326  0.1060 -0.1777
  279loPI   GL2 4454   4.338  11.511  10.064  0.4207  0.2457  0.2220
  279loPI   C1A 4455   3.716  11.491   9.989 -0.0157 -0.0137 -0.0365
  279loPI   C2A 4456   3.535  11.527   9.612 -0.3592 -0.2015  0.0684
  279loPI   C3A 4457   3.473  11.800   9.160  0.0583 -0.1962  0.2396
  279loPI   C4A 4458   3.512  11.900   8.718  0.0487  0.0286 -0.4811
  279loPI   C5A 4459   3.272  11.632   8.451 -0.0927  0.2919  0.1782
  279loPI   C6A 4460   3.028  11.264   8.203 -0.1843 -0.1567 -0.3075
  279loPI   C1B 4461   4.221  11.399   9.639 -0.1543 -0.1980  0.2478
  279loPI   C2B 4462   3.951  11.464   9.353  0.3747 -0.0460 -0.0875
  279loPI   C3B 4463   3.784  11.356   8.994  0.1477 -0.1423 -0.1026
  279loPI   C4B 4464   3.536  11.294   8.687  0.0369  0.2153  0.1168
  280loPI    C1 4465  12.048  11.663  10.701  0.2036 -0.0462 -0.0740
  280loPI    C2 4466  11.899  11.761  11.059  0.1110 -0.1599 -0.0808
  280loPI    C3 4467  12.160  12.004  10.877 -0.3303  0.2194 -0.2275
  280loPI   PO4 4468  12.164  11.438  10.649 -0.0857  0.1734  0.4121
  280loPI   GL1 4469  12.213  11.242  10.296  0.0097  0.0871 -0.0086
  280loPI   GL2 4470  12.368  11.610  10.240 -0.0520 -0.1456  0.2786
  280loPI   C1A 4471  11.999  11.182   9.905 -0.0546  0.0519 -0.1165
  280loPI   C2A 4472  11.916  11.252   9.426  0.0270  0.0619 -0.3209
  280loPI   C3A 4473  11.756  11.364   9.095  0.1768  0.0993  0.1209
  280loPI   C4A 4474  11.944  11.517   8.770  0.1189 -0.0774  0.0303
  280loPI   C5A 4475  11.894  11.758   8.568  0.0127 -0.0802  0.3432
  280loPI   C6A 4476  11.829  12.265   8.524  0.0491 -0.0789  0.0243
  280loPI   C1B 4477  12.429  11.802   9.829  0.2907 -0.1032 -0.1269
  280loPI   C2B 4478  12.365  11.827   9.434 -0.1767 -0.1218  0.0257
  280loPI   C3B 4479  12.231  11.819   9.052  0.0221  0.1275 -0.1375
  280loPI   C4B 4480  12.272  12.053   8.686  0.0704 -0.0734 -0.0274
  281loPI    C1 4481  14.166  16.435  10.712  0.1175 -0.1129  0.0743
  281loPI    C2 4482  13.857  16.341  10.949  0.0789 -0.2959 -0.0467
  281loPI    C3 4483  14.157  16.081  10.898  0.0601 -0.2810 -0.2414
  281loPI   PO4 4484  13.954  16.618  10.439  0.0606 -0.0555 -0.0474
  281loPI   GL1 4485  13.929  16.560  10.078  0.0563  0.4117 -0.1767
  281loPI   GL2 4486  13.676  16.277  10.079 -0.1374 -0.4421  0.2649
  281loPI   C1A 4487  13.938  16.506   9.653 -0.0396  0.0410 -0.0762
  281loPI   C2A 4488  13.662  16.646   9.360 -0.1765  0.0672 -0.0861
  281loPI   C3A 4489  13.694  16.575   8.896 -0.3428 -0.1193  0.3315
  281loPI   C4A 4490  13.264  16.607   8.417 -0.1981 -0.1793  0.0799
  281loPI   C5A 4491  12.913  16.872   8.208 -0.0675  0.1919  0.0422
  281loPI   C6A 4492  12.730  16.883   7.777 -0.2115  0.2505  0.0529
  281loPI   C1B 4493  13.872  16.036   9.839  0.2494  0.2872 -0.2057
  281loPI   C2B 4494  13.886  16.051   9.444  0.1017  0.2716  0.1869
  281loPI   C3B 4495  13.787  15.955   8.972 -0.1849  0.3026  0.2176
  281loPI   C4B 4496  13.901  15.847   8.499 -0.3331 -0.0233  0.2205
  282loPI    C1 4497  13.067  13.619  10.789 -0.1672 -0.1391  0.2741
  282loPI    C2 4498  13.250  13.653  11.143  0.1861  0.0714  0.0767
  282loPI    C3 4499  12.855  13.710  11.116  0.1548  0.0467  0.4356
  282loPI   PO4 4500  13.281  13.402  10.654 -0.0399 -0.3379 -0.0518
  282loPI   GL1 4501  13.441  13.414  10.272 -0.0089 -0.1527  0.5219
  282loPI   GL2 4502  13.544  13.736  10.196 -0.0623 -0.2670  0.2969
  282loPI   C1A 4503  13.123  13.170  10.040 -0.1841  0.0164  0.1315
  282loPI   C2A 4504  12.853  13.131   9.624 -0.1077  0.1020  0.0636
  282loPI   C3A 4505  12.875  13.012   9.166  0.3323  0.2331 -0.0386
  282loPI   C4A 4506  12.566  12.981   8.810  0.1240 -0.5421  0.3284
  282loPI   C5A 4507  12.252  13.110   8.458 -0.1246  0.0751  0.2131
  282loPI   C6A 4508  11.816  12.970   8.390 -0.3246 -0.1741 -0.1409
  282loPI   C1B 4509  13.892  13.511   9.937  0.0941 -0.3803 -0.2115
  282loPI   C2B 4510  14.081  13.357   9.534 -0.2519 -0.0195  0.0127
  282loPI   C3B 4511  14.235  13.500   9.135  0.0620 -0.0150 -0.2869
  282loPI   C4B 4512  14.426  13.270   8.800 -0.2269 -0.0840  0.1382
  283loPI    C1 4513  12.179  14.128  10.641  0.1234 -0.0908 -0.1086
  283loPI    C2 4514  12.127  14.265  11.013 -0.0610  0.0774 -0.1947
  283loPI    C3 4515  11.995  14.478  10.701  0.1672 -0.0221 -0.3620
  283loPI   PO4 4516  12.422  13.955  10.736 -0.0592 -0.0831 -0.2267
  283loPI   GL1 4517  12.697  13.833  10.352  0.1090  0.1321 -0.0902
  283loPI   GL2 4518  12.989  13.645  10.267 -0.1281 -0.0454 -0.0279
  283loPI   C1A 4519  12.867  14.014  10.015  0.4528 -0.0844  0.0895
  283loPI   C2A 4520  12.805  13.965   9.514  0.0534 -0.1624  0.0614
  283loPI   C3A 4521  12.662  13.977   9.153 -0.1766  0.1838  0.0755
  283loPI   C4A 4522  12.758  13.930   8.684  0.1900  0.1086 -0.0677
  283loPI   C5A 4523  13.025  14.018   8.420 -0.0594 -0.2940  0.2259
  283loPI   C6A 4524  12.984  13.798   7.984  0.1250 -0.1911 -0.2498
  283loPI   C1B 4525  13.150  13.624   9.843 -0.1063  0.0214 -0.3204
  283loPI   C2B 4526  13.560  13.687   9.640 -0.0089 -0.0156 -0.0663
  283loPI   C3B 4527  13.733  13.690   9.322  0.1033 -0.0862  0.1230
  283loPI   C4B 4528  13.857  13.648   8.795 -0.1354  0.3782 -0.0657
  284loPI    C1 4529   9.832   5.636  10.501  0.3505  0.1927  0.0431
  284loPI    C2 4530   9.519   5.806  10.683  0.0708 -0.1411 -0.1135
  284loPI    C3 4531   9.793   5.610  10.899  0.2104  0.2035  0.0305
  284loPI   PO4 4532   9.776   5.504  10.279 -0.1080  0.4503 -0.0225
  284loPI   GL1 4533   9.927   5.210   9.916 -0.3234  0.1736  0.1927
  284loPI   GL2 4534  10.236   5.463   9.937  0.0797 -0.0562 -0.0228
  284loPI   C1A 4535   9.755   4.825   9.735  0.1573  0.3978 -0.1200
  284loPI   C2A 4536   9.773   4.672   9.373  0.0355  0.1022  0.0534
  284loPI   C3A 4537  10.112   4.770   9.134  0.1684 -0.2176  0.0889
  284loPI   C4A 4538  10.302   4.810   8.705  0.1031  0.3530 -0.4077
  284loPI   C5A 4539  10.211   4.786   8.260  0.0791  0.2391  0.3204
  284loPI   C6A 4540  10.145   4.467   8.000  0.2103 -0.2513 -0.0073
  284loPI   C1B 4541  10.005   5.588   9.551  0.1050  0.0767 -0.0321
  284loPI   C2B 4542  10.097   5.699   9.139 -0.2042 -0.3127  0.3822
  284loPI   C3B 4543  10.263   5.887   8.751 -0.2094  0.1594  0.0758
  284loPI   C4B 4544  10.338   6.205   8.431 -0.0325 -0.0815  0.1832
  285loPI    C1 4545   7.358   3.151  10.522  0.1791  0.0315  0.0420
  285loPI    C2 4546   7.503   3.358  10.831  0.0536  0.1180  0.0438
  285loPI    C3 4547   7.422   2.969  10.872  0.0106  0.1356  0.1281
  285loPI   PO4 4548   7.539   3.203  10.337  0.0423  0.2901 -0.2332
  285loPI   GL1 4549   7.596   3.392  10.001 -0.1145 -0.2671  0.0627
  285loPI   GL2 4550   7.217   3.387  10.011  0.1426 -0.1413  0.4518
  285loPI   C1A 4551   7.556   3.394   9.649  0.1486  0.0280 -0.0619
  285loPI   C2A 4552   7.462   3.393   9.306 -0.1841 -0.3588 -0.1154
  285loPI   C3A 4553   7.408   3.164   8.908 -0.1971  0.0763 -0.1144
  285loPI   C4A 4554   7.401   3.352   8.424  0.0392 -0.0265  0.3298
  285loPI   C5A 4555   7.402   3.456   8.011 -0.3342  0.1197  0.3404
  285loPI   C6A 4556   7.597   3.326   7.634  0.2061 -0.1513  0.1245
  285loPI   C1B 4557   6.989   3.207   9.762 -0.1773  0.0630  0.3969
  285loPI   C2B 4558   6.825   2.778   9.530  0.0892 -0.3298 -0.0399
  285loPI   C3B 4559   6.951   2.532   9.208 -0.0579 -0.0708 -0.0278
  285loPI   C4B 4560   7.137   2.743   8.982  0.1575 -0.3985  0.0653
  286loPI    C1 4561  12.913   4.061  10.558  0.1074 -0.0881 -0.0960
  286loPI    C2 4562  12.903   3.984  10.951 -0.2121 -0.0294 -0.0901
  286loPI    C3 4563  13.091   4.310  10.816  0.0168 -0.1221  0.0003
  286loPI   PO4 4564  12.964   3.751  10.487  0.0453 -0.1572  0.1962
  286loPI   GL1 4565  13.277   3.775  10.098 -0.1416  0.1306  0.1455
  286loPI   GL2 4566  13.079   3.973  10.024  0.1149  0.0735  0.2210
  286loPI   C1A 4567  13.395   3.658   9.584  0.0784 -0.1408  0.0716
  286loPI   C2A 4568  13.613   3.606   9.189 -0.1585  0.1600  0.1785
  286loPI   C3A 4569  13.630   3.434   8.803  0.3944  0.1694  0.0713
  286loPI   C4A 4570  13.483   3.595   8.521  0.2521 -0.1446 -0.0317
  286loPI   C5A 4571  13.495   4.033   8.303  0.0411 -0.1491  0.1153
  286loPI   C6A 4572  13.795   4.336   8.385 -0.1781  0.1623 -0.2354
  286loPI   C1B 4573  12.991   3.913   9.572 -0.0810  0.3034  0.0214
  286loPI   C2B 4574  13.133   3.659   9.147 -0.0966 -0.2248  0.1640
  286loPI   C3B 4575  13.024   3.412   8.696 -0.0490 -0.1021  0.2085
  286loPI   C4B 4576  13.071   3.438   8.263 -0.1414 -0.0726 -0.3280
  287loPI    C1 4577  17.000   9.472  10.786 -0.2305 -0.0070  0.0253
  287loPI    C2 4578  16.777   9.500  11.117 -0.0706 -0.1312  0.1454
  287loPI    C3 4579  16.649   9.664  10.775 -0.1895  0.0873  0.2926
  287loPI   PO4 4580  17.115   9.195  10.786 -0.0698 -0.0708 -0.2038
  287loPI   GL1 4581  17.006   8.855  10.503  0.4503  0.0104  0.2495
  287loPI   GL2 4582  16.635   8.726  10.364  0.3553  0.1278 -0.1957
  287loPI   C1A 4583  17.270   8.758  10.158 -0.0499 -0.0562  0.0153
  287loPI   C2A 4584  17.263   8.739   9.681 -0.0057 -0.1064  0.3435
  287loPI   C3A 4585  17.730   8.839   9.472 -0.0635  0.0570 -0.2964
  287loPI   C4A 4586  17.832   9.050   9.077  0.1418 -0.0345  0.5210
  287loPI   C5A 4587  18.041   8.920   8.691  0.6296  0.0194 -0.0266
  287loPI   C6A 4588  18.075   8.968   8.358  0.1961  0.1172  0.1787
  287loPI   C1B 4589  16.748   8.714   9.957 -0.0475  0.2559  0.1317
  287loPI   C2B 4590  16.788   8.841   9.457 -0.0383  0.1818 -0.2989
  287loPI   C3B 4591  16.778   8.813   9.046 -0.0197  0.2478  0.1087
  287loPI   C4B 4592  17.011   9.045   8.643  0.1189 -0.0643 -0.2001
  288loPI    C1 4593   6.860  15.746  10.868 -0.0360  0.1051  0.0025
  288loPI    C2 4594   6.468  15.812  10.913 -0.0281  0.1575 -0.0040
  288loPI    C3 4595   6.728  16.112  10.961 -0.0064  0.1758 -0.2288
  288loPI   PO4 4596   6.855  15.558  10.702  0.0481  0.2139 -0.0125
  288loPI   GL1 4597   6.896  15.497  10.261 -0.1011  0.3677 -0.1689
  288loPI   GL2 4598   6.917  15.828  10.044  0.2107  0.3034 -0.0238
  288loPI   C1A 4599   6.793  15.404   9.816  0.0489 -0.2260  0.0960
  288loPI   C2A 4600   6.346  15.205   9.602 -0.0011 -0.1674 -0.0218
  288loPI   C3A 4601   6.244  15.240   9.212  0.1208  0.0228 -0.1261
  288loPI   C4A 4602   6.557  15.129   8.916 -0.1504  0.1820 -0.3226
  288loPI   C5A 4603   6.792  15.388   8.735  0.1318 -0.1332  0.0673
  288loPI   C6A 4604   7.204  15.464   8.495  0.1821  0.1257 -0.1263
  288loPI   C1B 4605   7.007  15.782   9.568  0.1598 -0.0293  0.1003
  288loPI   C2B 4606   6.995  15.765   9.068 -0.0093 -0.0243 -0.2469
  288loPI   C3B 4607   6.804  15.934   8.766 -0.1135 -0.2572 -0.1519
  288loPI   C4B 4608   6.857  16.367   8.611  0.4439 -0.0917  0.0774
  289loPI    C1 4609   7.208   2.666  10.450  0.1043 -0.1293 -0.0200
  289loPI    C2 4610   6.991   2.687  10.786  0.0608  0.4567 -0.0747
  289loPI    C3 4611   7.301   2.436  10.763 -0.3843 -0.1346  0.1308
  289loPI   PO4 4612   7.083   2.572  10.293  0.1835  0.0625 -0.1191
  289loPI   GL1 4613   7.037   2.192  10.010 -0.1975 -0.0976  0.1294
  289loPI   GL2 4614   6.856   1.888   9.982  0.0134 -0.4393  0.2284
  289loPI   C1A 4615   7.035   2.179   9.548 -0.1813  0.2299  0.2085
  289loPI   C2A 4616   7.381   2.071   9.211  0.5132  0.4703 -0.2031
  289loPI   C3A 4617   7.586   1.943   8.691  0.0311  0.1541  0.3032
  289loPI   C4A 4618   7.318   2.100   8.339 -0.2312 -0.3089 -0.1770
  289loPI   C5A 4619   7.315   2.438   8.277 -0.3446 -0.1248  0.4033
  289loPI   C6A 4620   7.382   2.805   8.504  0.2385  0.0555  0.2333
  289loPI   C1B 4621   6.797   1.779   9.538 -0.1971 -0.0366  0.1295
  289loPI   C2B 4622   6.829   1.950   9.108  0.1544  0.2736 -0.1476
  289loPI   C3B 4623   7.119   1.969   8.794  0.0429  0.0599  0.0202
  289loPI   C4B 4624   7.146   2.348   8.736  0.2591 -0.0111  0.0709
  290loPI    C1 4625  14.854  15.262  10.639  0.4284  0.0063  0.1055
  290loPI    C2 4626  14.593  15.252  10.943  0.0908 -0.0757 -0.1804
  290loPI    C3 4627  14.770  14.915  10.820 -0.0408 -0.1030 -0.2985
  290loPI   PO4 4628  14.756  15.517  10.499  0.1664 -0.0122  0.1473
  290loPI   GL1 4629  14.706  15.530  10.227 -0.0027 -0.3448 -0.0277
  290loPI   GL2 4630  14.362  15.688  10.099 -0.0209 -0.2355 -0.0216
  290loPI   C1A 4631  14.843  15.443   9.797 -0.6707 -0.0152 -0.0280
  290loPI   C2A 4632  14.863  15.485   9.362 -0.0525 -0.1815  0.1503
  290loPI   C3A 4633  14.770  15.331   8.956 -0.0065 -0.2164 -0.2888
  290loPI   C4A 4634  15.096  15.144   8.694 -0.2738 -0.3131  0.3263
  290loPI   C5A 4635  15.360  15.275   8.319  0.3634  0.0261  0.0724
  290loPI   C6A 4636  15.243  15.138   7.786 -0.0436 -0.2280 -0.0275
  290loPI   C1B 4637  14.211  15.681   9.675  0.2651 -0.1257 -0.3216
  290loPI   C2B 4638  14.278  15.764   9.203  0.1787 -0.3010  0.1605
  290loPI   C3B 4639  14.443  15.666   8.827  0.0092 -0.0758 -0.1002
  290loPI   C4B 4640  14.581  15.677   8.377 -0.0221  0.0939 -0.1468
  291loPI    C1 4641  12.400  12.867  10.647  0.0931  0.1018  0.0044
  291loPI    C2 4642  12.449  12.932  11.039  0.1793  0.1954 -0.0213
  291loPI    C3 4643  12.716  12.712  10.838  0.0760  0.0542 -0.0059
  291loPI   PO4 4644  12.253  13.142  10.554  0.1617 -0.0422  0.1070
  291loPI   GL1 4645  12.404  13.388  10.302  0.2179  0.3498 -0.0574
  291loPI   GL2 4646  12.660  13.329  10.142 -0.3214 -0.0139 -0.3809
  291loPI   C1A 4647  12.050  13.465   9.985 -0.3216  0.1848 -0.0981
  291loPI   C2A 4648  11.904  13.533   9.641 -0.2602  0.0028 -0.3541
  291loPI   C3A 4649  11.863  13.465   9.206  0.1455 -0.0223 -0.1086
  291loPI   C4A 4650  12.152  13.380   8.936  0.3677 -0.0749 -0.1925
  291loPI   C5A 4651  12.467  13.540   8.794  0.1114 -0.1745  0.0860
  291loPI   C6A 4652  12.855  13.422   8.859 -0.0120  0.3506  0.0343
  291loPI   C1B 4653  12.569  13.636   9.857  0.3109  0.4212 -0.2078
  291loPI   C2B 4654  12.345  13.786   9.519 -0.1472 -0.0549  0.2226
  291loPI   C3B 4655  11.937  14.036   9.300 -0.3474 -0.2189 -0.0537
  291loPI   C4B 4656  11.848  13.813   8.858 -0.0811 -0.2472 -0.0735
  292loPI    C1 4657  17.653  17.974  10.557 -0.2037 -0.1267  0.0136
  292loPI    C2 4658  17.454  18.271  10.737 -0.2374 -0.2122  0.1182
  292loPI    C3 4659  17.552  17.942  10.942 -0.0620 -0.2072  0.0449
  292loPI   PO4 4660  17.545  17.960  10.283 -0.2544  0.2130  0.0663
  292loPI   GL1 4661  17.461  18.178   9.894  0.1664 -0.2011  0.1017
  292loPI   GL2 4662  17.690  18.408   9.953 -0.1948  0.1138  0.3754
  292loPI   C1A 4663  17.658  18.153   9.413  0.3987 -0.1936 -0.2290
  292loPI   C2A 4664  17.598  18.078   8.964 -0.2158  0.0905  0.0023
  292loPI   C3A 4665  17.723  18.159   8.471  0.0100 -0.0705  0.2437
  292loPI   C4A 4666  17.868  17.991   8.075 -0.1642 -0.0336  0.2684
  292loPI   C5A 4667  17.871  17.951   7.673 -0.2413  0.0030  0.1432
  292loPI   C6A 4668  18.005  17.635   7.422  0.1338  0.0503 -0.0655
  292loPI   C1B 4669  17.841  18.654   9.690 -0.0527  0.3561  0.0843
  292loPI   C2B 4670  17.838  18.894   9.244 -0.2312 -0.1873  0.0003
  292loPI   C3B 4671  17.916  19.047   8.847  0.2601  0.4328 -0.0213
  292loPI   C4B 4672  17.903  19.330   8.583  0.0354 -0.1355  0.2549
  293loPI    C1 4673   9.013   3.868  10.399  0.0832  0.1922 -0.2252
  293loPI    C2 4674   9.222   4.159  10.222  0.3105  0.0552 -0.1850
  293loPI    C3 4675   9.354   3.996  10.562 -0.0060  0.1580 -0.0090
  293loPI   PO4 4676   8.784   3.966  10.365 -0.2648  0.1451 -0.1660
  293loPI   GL1 4677   8.696   4.016  10.020 -0.3394  0.1494 -0.7351
  293loPI   GL2 4678   8.776   4.219   9.918  0.1351 -0.0652  0.3248
  293loPI   C1A 4679   8.471   3.781   9.634 -0.3628 -0.2926 -0.2137
  293loPI   C2A 4680   8.535   3.868   9.256 -0.0497  0.1302  0.0161
  293loPI   C3A 4681   8.538   3.875   8.860  0.1520  0.1883 -0.3295
  293loPI   C4A 4682   8.461   3.730   8.381 -0.4380  0.2172 -0.2143
  293loPI   C5A 4683   8.481   3.377   8.116  0.2115 -0.2622 -0.0424
  293loPI   C6A 4684   8.637   3.430   7.726  0.2581  0.4621  0.1662
  293loPI   C1B 4685   8.855   4.477   9.658  0.0801  0.0493  0.0676
  293loPI   C2B 4686   8.908   4.395   9.181 -0.1170 -0.1899 -0.1287
  293loPI   C3B 4687   8.912   4.384   8.820  0.0148 -0.0226  0.0269
  293loPI   C4B 4688   8.989   3.891   8.523  0.0724 -0.2183 -0.1695
  294loPI    C1 4689  16.797   0.872  10.600 -0.3264 -0.0882  0.0005
  294loPI    C2 4690  17.064   0.997  10.330 -0.2633  0.1830  0.1837
  294loPI    C3 4691  16.855   0.662  10.265 -0.0613  0.1042 -0.0775
  294loPI   PO4 4692  16.684   1.153  10.631 -0.0557 -0.0931  0.0838
  294loPI   GL1 4693  16.665   1.398  10.379 -0.1877  0.1908  0.1773
  294loPI   GL2 4694  16.947   1.497  10.266  0.0815  0.1207 -0.0169
  294loPI   C1A 4695  16.895   1.154   9.922  0.0380  0.0300 -0.1944
  294loPI   C2A 4696  16.904   0.970   9.486 -0.0092  0.1025  0.0638
  294loPI   C3A 4697  16.860   1.055   9.061 -0.2093 -0.0676  0.1942
  294loPI   C4A 4698  16.876   1.056   8.592 -0.1579 -0.0757  0.1547
  294loPI   C5A 4699  17.093   0.916   8.237  0.1863 -0.1288  0.0592
  294loPI   C6A 4700  17.143   1.083   7.863 -0.1660 -0.1589 -0.1175
  294loPI   C1B 4701  17.156   1.518   9.784 -0.1250 -0.0722 -0.0750
  294loPI   C2B 4702  17.077   1.441   9.415 -0.1275  0.0259  0.1529
  294loPI   C3B 4703  17.215   1.427   9.018 -0.0925  0.0893  0.1477
  294loPI   C4B 4704  17.309   1.469   8.597  0.0326  0.3936 -0.0665
  295loPI    C1 4705  14.944  14.086  10.997 -0.0970 -0.0525 -0.0765
  295loPI    C2 4706  15.181  13.773  10.921 -0.0027 -0.0453  0.1758
  295loPI    C3 4707  14.818  13.716  11.080  0.0003 -0.0291  0.1884
  295loPI   PO4 4708  14.972  14.211  10.803  0.3141  0.0270  0.1949
  295loPI   GL1 4709  14.775  14.339  10.452  0.1068 -0.0034  0.1408
  295loPI   GL2 4710  14.718  14.590  10.454  0.1782  0.1972  0.0885
  295loPI   C1A 4711  14.919  14.027  10.093  0.0712 -0.2579 -0.0124
  295loPI   C2A 4712  14.802  13.846   9.701 -0.2456 -0.1107 -0.3070
  295loPI   C3A 4713  14.667  13.741   9.239  0.1779 -0.4467 -0.0563
  295loPI   C4A 4714  14.689  13.634   8.840 -0.1127  0.0098 -0.2048
  295loPI   C5A 4715  14.868  13.840   8.558 -0.1396 -0.0332  0.2359
  295loPI   C6A 4716  15.083  13.830   8.243  0.0045  0.2369  0.0279
  295loPI   C1B 4717  15.018  14.569  10.108  0.0107 -0.0209 -0.4449
  295loPI   C2B 4718  14.994  14.471   9.631 -0.0804 -0.1036  0.0462
  295loPI   C3B 4719  15.103  14.562   9.111 -0.0863  0.3131  0.0463
  295loPI   C4B 4720  15.169  14.580   8.747  0.0182 -0.0721 -0.0317
  296loPI    C1 4721  16.759  17.316  10.558  0.1642  0.0507 -0.0309
  296loPI    C2 4722  16.912  17.535  10.856 -0.0139  0.1050  0.0221
  296loPI    C3 4723  16.537  17.599  10.733 -0.0486 -0.1317 -0.0008
  296loPI   PO4 4724  16.901  17.438  10.361  0.0657  0.0688  0.0533
  296loPI   GL1 4725  16.997  17.423   9.922  0.2224  0.0952 -0.2699
  296loPI   GL2 4726  17.165  17.685  10.003  0.0057 -0.4282 -0.0656
  296loPI   C1A 4727  17.104  17.248   9.667 -0.0886 -0.3789  0.0767
  296loPI   C2A 4728  17.227  17.076   9.299  0.0118 -0.2585  0.0108
  296loPI   C3A 4729  17.134  16.916   8.985 -0.0992 -0.1120 -0.0627
  296loPI   C4A 4730  16.894  16.633   8.700  0.1709  0.1919 -0.4024
  296loPI   C5A 4731  16.722  16.388   8.370 -0.0407  0.1459  0.1346
  296loPI   C6A 4732  16.844  16.379   8.021  0.0288  0.0761  0.0522
  296loPI   C1B 4733  17.228  17.698   9.518 -0.0139  0.0408  0.0828
  296loPI   C2B 4734  17.560  17.480   9.193  0.0723 -0.0305  0.2383
  296loPI   C3B 4735  17.480  17.258   8.775  0.1232 -0.0574  0.1229
  296loPI   C4B 4736  17.414  16.913   8.496  0.0817  0.2714  0.3768
  297loPI    C1 4737   7.705  14.609  11.291  0.0047 -0.0055 -0.3655
  297loPI    C2 4738   7.428  14.320  11.302 -0.0890  0.0930 -0.0486
  297loPI    C3 4739   7.321  14.702  11.353  0.0695  0.1595 -0.2041
  297loPI   PO4 4740   7.839  14.589  11.120  0.0766  0.0721  0.0847
  297loPI   GL1 4741   7.803  14.721  10.759 -0.2933 -0.0900 -0.0671
  297loPI   GL2 4742   7.514  14.549  10.547  0.3205 -0.2095  0.0542
  297loPI   C1A 4743   8.059  14.793  10.309  0.1426 -0.0166 -0.3631
  297loPI   C2A 4744   8.279  14.867  10.052  0.4108  0.0535  0.0203
  297loPI   C3A 4745   8.518  14.862   9.718  0.1301 -0.3560 -0.1168
  297loPI   C4A 4746   8.573  15.010   9.286  0.5280 -0.2855  0.0383
  297loPI   C5A 4747   8.560  15.158   8.845 -0.2083 -0.1187  0.1640
  297loPI   C6A 4748   8.734  15.442   8.526 -0.1608 -0.1647 -0.3308
  297loPI   C1B 4749   7.571  14.763  10.123  0.4996  0.1302  0.0639
  297loPI   C2B 4750   7.741  14.726   9.771  0.0320  0.2137 -0.1779
  297loPI   C3B 4751   8.034  15.013   9.604  0.0094  0.3003 -0.3870
  297loPI   C4B 4752   8.144  15.022   9.160  0.1422 -0.2674  0.2712
  298loPI    C1 4753   5.990  16.248  10.895 -0.0423  0.1550 -0.1171
  298loPI    C2 4754   6.358  16.401  10.854  0.0953 -0.1623 -0.0993
  298loPI    C3 4755   6.249  16.233  11.200 -0.1493  0.1348 -0.0267
  298loPI   PO4 4756   6.054  16.088  10.682  0.1631 -0.1769  0.1153
  298loPI   GL1 4757   6.120  15.948  10.345  0.1435 -0.1360  0.2168
  298loPI   GL2 4758   5.918  15.676  10.263 -0.1587 -0.0627 -0.1447
  298loPI   C1A 4759   6.043  16.184   9.923 -0.0968 -0.2634  0.0947
  298loPI   C2A 4760   6.148  16.165   9.520 -0.0254  0.1210  0.1283
  298loPI   C3A 4761   6.265  16.108   9.056  0.0841  0.0889  0.1636
  298loPI   C4A 4762   6.346  16.127   8.635  0.3184 -0.0572 -0.1790
  298loPI   C5A 4763   6.571  15.990   8.310 -0.1424  0.4328  0.2449
  298loPI   C6A 4764   6.922  15.786   8.258 -0.1403  0.0085  0.2442
  298loPI   C1B 4765   5.937  15.602   9.823 -0.0345 -0.0665  0.0914
  298loPI   C2B 4766   5.883  15.520   9.403  0.2351 -0.1541  0.0121
  298loPI   C3B 4767   5.816  15.260   8.991  0.0008  0.3140 -0.0542
  298loPI   C4B 4768   5.788  15.198   8.578  0.0846  0.1926  0.0667
  299loPI    C1 4769  13.970  11.627  10.899  0.0101 -0.1458 -0.0302
  299loPI    C2 4770  13.698  11.429  11.115  0.1258 -0.1015  0.1574
  299loPI    C3 4771  14.037  11.556  11.286  0.1355  0.0971 -0.0051
  299loPI   PO4 4772  13.767  11.530  10.582 -0.0987 -0.2664  0.2187
  299loPI   GL1 4773  13.814  11.387  10.197 -0.1426 -0.2022  0.0292
  299loPI   GL2 4774  13.511  11.615  10.101 -0.0721 -0.0385 -0.0112
  299loPI   C1A 4775  13.924  11.431   9.839  0.4101  0.1127 -0.1035
  299loPI   C2A 4776  13.829  11.536   9.364  0.1456  0.0594  0.1155
  299loPI   C3A 4777  13.679  11.704   8.989 -0.1029  0.4631 -0.1162
  299loPI   C4A 4778  13.599  11.652   8.462  0.1041  0.3361 -0.0811
  299loPI   C5A 4779  13.842  11.297   8.123  0.0867 -0.2424 -0.0832
  299loPI   C6A 4780  14.011  10.943   7.812  0.0954 -0.0779 -0.0523
  299loPI   C1B 4781  13.380  11.483   9.769  0.0992 -0.0932  0.2684
  299loPI   C2B 4782  13.298  11.520   9.299 -0.2643  0.3070  0.0872
  299loPI   C3B 4783  13.217  11.600   8.926 -0.0944 -0.1620  0.1406
  299loPI   C4B 4784  13.176  11.931   8.535 -0.1580 -0.2933  0.1047
  300loPI    C1 4785   1.832   5.729  10.379 -0.0222 -0.3063 -0.1233
  300loPI    C2 4786   1.490   5.625  10.558  0.0455 -0.2028  0.0690
  300loPI    C3 4787   1.837   5.474  10.687  0.1048 -0.0500  0.0910
  300loPI   PO4 4788   1.809   5.693  10.110 -0.1332  0.2274 -0.3192
  300loPI   GL1 4789   1.477   5.635   9.774  0.1799  0.0204  0.0602
  300loPI   GL2 4790   1.389   5.361   9.739 -0.0098  0.1706  0.0098
  300loPI   C1A 4791   1.693   5.795   9.441  0.3779  0.0499 -0.0992
  300loPI   C2A 4792   1.723   5.672   8.986  0.0953  0.1168  0.3368
  300loPI   C3A 4793   1.866   5.512   8.629 -0.0410 -0.0358  0.0568
  300loPI   C4A 4794   2.093   5.671   8.262 -0.1834 -0.1916 -0.0697
  300loPI   C5A 4795   2.266   5.659   7.853  0.0114 -0.1726 -0.0969
  300loPI   C6A 4796   2.054   5.505   7.518  0.0815  0.0960  0.1270
  300loPI   C1B 4797   1.387   5.387   9.327 -0.1447 -0.2009 -0.0599
  300loPI   C2B 4798   1.495   5.244   8.891  0.0697 -0.0059  0.0331
  300loPI   C3B 4799   1.600   5.056   8.506  0.3248 -0.1242 -0.0402
  300loPI   C4B 4800   1.936   5.231   8.232 -0.0011 -0.0471 -0.0229
  301loPI    C1 4801   3.013  17.747  11.010  0.0645 -0.2560  0.1074
  301loPI    C2 4802   3.311  18.012  11.039  0.0241 -0.2035  0.0438
  301loPI    C3 4803   3.367  17.635  11.160  0.1437 -0.2150 -0.0467
  301loPI   PO4 4804   2.733  17.933  10.951  0.0444 -0.2701 -0.0131
  301loPI   GL1 4805   2.541  18.020  10.610 -0.2250 -0.0129 -0.0432
  301loPI   GL2 4806   2.397  18.252  10.422  0.1909 -0.2820 -0.4173
  301loPI   C1A 4807   2.585  17.762  10.211 -0.5199 -0.1207 -0.1297
  301loPI   C2A 4808   2.531  17.573   9.831  0.0749 -0.0357 -0.2098
  301loPI   C3A 4809   2.539  17.622   9.392 -0.0526 -0.3867 -0.4088
  301loPI   C4A 4810   2.478  17.776   9.067 -0.1045 -0.3269  0.1698
  301loPI   C5A 4811   2.459  17.926   8.654 -0.0486  0.1196 -0.2594
  301loPI   C6A 4812   2.459  18.244   8.276 -0.1355  0.2393  0.3836
  301loPI   C1B 4813   2.394  18.178   9.991 -0.0626 -0.1871 -0.1263
  301loPI   C2B 4814   2.543  18.101   9.533 -0.0961  0.3198 -0.1513
  301loPI   C3B 4815   2.603  18.270   9.093 -0.4309  0.2714  0.0903
  301loPI   C4B 4816   2.497  18.394   8.725 -0.2083  0.1277  0.1662
  302loPI    C1 4817   0.065   5.898  10.663 -0.2471  0.1114  0.0198
  302loPI    C2 4818   0.146   5.599  10.916  0.4018  0.0738 -0.2122
  302loPI    C3 4819   0.153   5.977  11.045 -0.1017  0.0169  0.0068
  302loPI   PO4 4820  -0.156   5.848  10.546 -0.0866 -0.1840  0.0612
  302loPI   GL1 4821  -0.324   5.711  10.178  0.0765 -0.0412 -0.0429
  302loPI   GL2 4822  -0.348   6.038  10.130  0.2203  0.0617 -0.0510
  302loPI   C1A 4823  -0.465   5.605   9.749  0.2314 -0.0643 -0.0987
  302loPI   C2A 4824  -0.321   5.766   9.467  0.2592 -0.1124  0.0923
  302loPI   C3A 4825  -0.243   5.747   8.988  0.0057 -0.1262 -0.0644
  302loPI   C4A 4826  -0.167   5.884   8.577 -0.0098  0.2789  0.0689
  302loPI   C5A 4827  -0.546   5.891   8.163 -0.2803 -0.2328  0.1433
  302loPI   C6A 4828  -1.048   5.882   8.155  0.1137  0.0132  0.2838
  302loPI   C1B 4829  -0.657   6.181   9.670 -0.1223 -0.2689 -0.1089
  302loPI   C2B 4830  -0.733   5.993   9.235  0.2429 -0.1309 -0.3778
  302loPI   C3B 4831  -0.747   5.726   8.879  0.0729 -0.2321 -0.1251
  302loPI   C4B 4832  -0.741   5.508   8.464  0.2022  0.0966  0.0606
  303loPI    C1 4833   1.418   3.237  10.741  0.0376  0.2966  0.0846
  303loPI    C2 4834   1.316   3.604  10.863 -0.0064  0.2386  0.2248
  303loPI    C3 4835   1.298   3.297  11.118 -0.1051  0.1140  0.0694
  303loPI   PO4 4836   1.664   3.303  10.578 -0.2901 -0.2329  0.0858
  303loPI   GL1 4837   1.726   3.225  10.190 -0.2875  0.1429 -0.2503
  303loPI   GL2 4838   1.715   3.496  10.031  0.0293 -0.2532 -0.0575
  303loPI   C1A 4839   1.893   3.040   9.860  0.1454 -0.3988  0.2962
  303loPI   C2A 4840   1.845   3.086   9.473 -0.1405  0.4019 -0.2739
  303loPI   C3A 4841   1.750   2.947   9.093 -0.0879 -0.1043  0.1679
  303loPI   C4A 4842   1.564   2.703   8.735  0.0686 -0.2346 -0.1790
  303loPI   C5A 4843   1.342   2.749   8.443 -0.1715  0.3719 -0.2507
  303loPI   C6A 4844   1.094   3.029   8.326 -0.2005 -0.1611  0.0158
  303loPI   C1B 4845   2.009   3.457   9.715 -0.1626  0.1515  0.2871
  303loPI   C2B 4846   2.029   3.449   9.254  0.2695  0.4253  0.0475
  303loPI   C3B 4847   1.835   3.396   8.927  0.0774 -0.1826  0.1813
  303loPI   C4B 4848   1.540   3.193   8.713  0.1734  0.1023  0.1441
  304loPI    C1 4849  16.136   8.733  10.825 -0.2105  0.2224 -0.1037
  304loPI    C2 4850  16.332   8.681  11.169 -0.1316 -0.2112 -0.2088
  304loPI    C3 4851  15.940   8.605  11.149 -0.2436  0.3019 -0.0922
  304loPI   PO4 4852  16.248   8.653  10.674  0.1620  0.1471 -0.0742
  304loPI   GL1 4853  16.268   8.381  10.381  0.0725 -0.0895  0.5539
  304loPI   GL2 4854  16.130   8.669  10.171  0.0206 -0.0553  0.0803
  304loPI   C1A 4855  16.488   8.177   9.960 -0.4311  0.0904 -0.2963
  304loPI   C2A 4856  16.475   8.292   9.409  0.1056 -0.3881 -0.2034
  304loPI   C3A 4857  16.535   8.314   8.959 -0.0371 -0.2158  0.0670
  304loPI   C4A 4858  16.796   8.457   8.633 -0.0129 -0.0267 -0.1999
  304loPI   C5A 4859  16.970   8.186   8.270 -0.1623 -0.0407  0.0297
  304loPI   C6A 4860  17.435   8.225   8.122 -0.0524  0.3572  0.3705
  304loPI   C1B 4861  16.224   8.724   9.729  0.0040  0.2618  0.1038
  304loPI   C2B 4862  16.199   8.854   9.319  0.2479  0.0484  0.1833
  304loPI   C3B 4863  16.224   8.794   8.907 -0.1298 -0.0934  0.0581
  304loPI   C4B 4864  16.461   8.919   8.574  0.2933  0.1976 -0.0930
  305loPI    C1 4865   7.501   7.618  10.309 -0.1992  0.0354  0.3035
  305loPI    C2 4866   7.724   7.498  10.619  0.1214  0.1113  0.1075
  305loPI    C3 4867   7.711   7.886  10.521  0.2016  0.0600 -0.1098
  305loPI   PO4 4868   7.614   7.483  10.101 -0.1932  0.0576  0.0302
  305loPI   GL1 4869   7.621   7.296   9.699 -0.0508 -0.1701 -0.1645
  305loPI   GL2 4870   7.503   7.721   9.604  0.2258  0.3090 -0.1441
  305loPI   C1A 4871   7.680   7.267   9.282  0.2937 -0.0458 -0.6168
  305loPI   C2A 4872   7.742   7.233   8.896 -0.1224  0.0240 -0.0555
  305loPI   C3A 4873   7.540   7.150   8.505  0.1206 -0.2108  0.0907
  305loPI   C4A 4874   7.646   6.767   8.270  0.0020 -0.0276 -0.1008
  305loPI   C5A 4875   7.626   6.241   8.142 -0.1751 -0.1001 -0.3600
  305loPI   C6A 4876   7.227   6.022   8.079 -0.3320  0.0980  0.2440
  305loPI   C1B 4877   7.509   7.738   9.145 -0.0375 -0.2390 -0.1235
  305loPI   C2B 4878   7.497   7.703   8.684 -0.1122  0.2884 -0.2364
  305loPI   C3B 4879   7.203   7.645   8.391  0.1925  0.0419  0.3163
  305loPI   C4B 4880   7.061   7.633   7.891  0.1838  0.0973  0.0512
  306loPI    C1 4881   4.444   6.619  10.615 -0.1972  0.2041  0.1721
  306loPI    C2 4882   4.250   6.278  10.537 -0.1024  0.1925 -0.0180
  306loPI    C3 4883   4.077   6.559  10.763 -0.1900  0.0286  0.1213
  306loPI   PO4 4884   4.708   6.686  10.361  0.5024 -0.0030 -0.2013
  306loPI   GL1 4885   4.916   6.595   9.928 -0.1582 -0.0513  0.0066
  306loPI   GL2 4886   5.124   6.818  10.023  0.2689  0.0068  0.0542
  306loPI   C1A 4887   4.873   6.529   9.548 -0.2106 -0.0448 -0.1209
  306loPI   C2A 4888   4.980   6.143   9.304 -0.0128 -0.2008 -0.3363
  306loPI   C3A 4889   4.903   5.870   8.937 -0.0030 -0.0965 -0.1027
  306loPI   C4A 4890   4.880   5.965   8.518 -0.0303 -0.0713  0.0624
  306loPI   C5A 4891   4.883   6.191   8.182 -0.0366  0.1209 -0.0416
  306loPI   C6A 4892   4.779   6.493   7.996  0.2449 -0.0029  0.1029
  306loPI   C1B 4893   5.406   6.640   9.771 -0.1355  0.2530  0.2768
  306loPI   C2B 4894   5.368   6.554   9.329 -0.0419  0.1687  0.1510
  306loPI   C3B 4895   5.288   6.472   8.948 -0.0018  0.0260  0.0510
  306loPI   C4B 4896   5.112   6.423   8.547 -0.4214 -0.0089 -0.2780
  307loPI    C1 4897   6.890   0.298  10.832 -0.0422  0.0985  0.2343
  307loPI    C2 4898   6.612   0.523  11.013 -0.0577  0.1825  0.1081
  307loPI    C3 4899   6.977   0.486  11.174 -0.0276  0.3692  0.0849
  307loPI   PO4 4900   6.791   0.353  10.503 -0.0745 -0.1267 -0.1575
  307loPI   GL1 4901   6.825   0.285  10.151 -0.0461  0.1429  0.2980
  307loPI   GL2 4902   7.078   0.030  10.059  0.4069  0.2311  0.0619
  307loPI   C1A 4903   6.699   0.393   9.792 -0.2121  0.1581 -0.2582
  307loPI   C2A 4904   6.696   0.470   9.291  0.2789  0.0261 -0.1585
  307loPI   C3A 4905   6.799   0.613   8.869 -0.3094 -0.3132  0.0429
  307loPI   C4A 4906   6.721   0.680   8.496 -0.1532 -0.1812  0.3599
  307loPI   C5A 4907   6.601   1.036   8.139  0.2700 -0.4155 -0.2147
  307loPI   C6A 4908   6.360   1.284   7.824 -0.1268 -0.0092 -0.0109
  307loPI   C1B 4909   6.889  -0.213   9.677 -0.0711 -0.0929 -0.1254
  307loPI   C2B 4910   6.880  -0.278   9.259 -0.0775 -0.1823 -0.1654
  307loPI   C3B 4911   6.776  -0.332   8.866  0.0104 -0.0498  0.0235
  307loPI   C4B 4912   6.976  -0.232   8.426  0.2143 -0.1085  0.0010
  308loPI    C1 4913   2.559  16.077  10.800 -0.1199 -0.0333 -0.0259
  308loPI    C2 4914   2.641  15.969  10.423 -0.1511 -0.1273 -0.0061
  308loPI    C3 4915   2.278  15.900  10.577 -0.1233 -0.1336  0.0572
  308loPI   PO4 4916   2.661  16.361  10.739 -0.2147 -0.1074 -0.1888
  308loPI   GL1 4917   2.667  16.507  10.340  0.2682  0.0434 -0.0224
  308loPI   GL2 4918   2.323  16.363  10.397 -0.2471  0.1739  0.0295
  308loPI   C1A 4919   2.807  16.587   9.903 -0.1157  0.2223  0.0425
  308loPI   C2A 4920   2.803  16.701   9.580 -0.0056  0.1298  0.0861
  308loPI   C3A 4921   2.939  16.940   9.273 -0.0297 -0.0293 -0.2558
  308loPI   C4A 4922   3.129  17.088   8.855  0.0070 -0.2227  0.0444
  308loPI   C5A 4923   3.077  17.506   8.582 -0.1728  0.1867 -0.1264
  308loPI   C6A 4924   3.082  17.658   8.181  0.0872  0.1192  0.1039
  308loPI   C1B 4925   2.356  16.099  10.039 -0.4792  0.2429  0.1573
  308loPI   C2B 4926   2.533  15.981   9.678 -0.1795 -0.1045 -0.3727
  308loPI   C3B 4927   2.671  15.767   9.375  0.0347 -0.0974 -0.0629
  308loPI   C4B 4928   2.831  15.850   8.998 -0.0141  0.0785  0.0353
  309loPI    C1 4929   7.762  10.457  10.553 -0.1345 -0.3471 -0.0916
  309loPI    C2 4930   8.064  10.386  10.805  0.0880 -0.0549 -0.2694
  309loPI    C3 4931   7.880  10.741  10.808 -0.1726 -0.1884 -0.2485
  309loPI   PO4 4932   7.923  10.427  10.232 -0.0686 -0.0697 -0.1585
  309loPI   GL1 4933   7.735  10.239   9.833 -0.0189 -0.3340 -0.0652
  309loPI   GL2 4934   7.617   9.920   9.726 -0.1704  0.0218  0.0072
  309loPI   C1A 4935   7.579  10.507   9.478  0.0710 -0.3639  0.2900
  309loPI   C2A 4936   7.764  10.562   9.010 -0.0782  0.0860  0.0961
  309loPI   C3A 4937   7.744  10.708   8.564 -0.0249 -0.1754 -0.2082
  309loPI   C4A 4938   7.857  11.115   8.582 -0.2720 -0.0582  0.2379
  309loPI   C5A 4939   8.166  11.473   8.476 -0.2067 -0.1116  0.2132
  309loPI   C6A 4940   8.429  11.712   8.204  0.0032 -0.1863  0.0438
  309loPI   C1B 4941   7.684  10.105   9.270  0.0669  0.2967  0.1563
  309loPI   C2B 4942   7.768  10.152   8.790 -0.2135 -0.3133 -0.0651
  309loPI   C3B 4943   7.609  10.186   8.374  0.3012  0.1209  0.2193
  309loPI   C4B 4944   7.430  10.132   7.899 -0.2940  0.1619 -0.2057
  310loPI    C1 4945   4.883   0.351  10.660  0.0612  0.0069  0.0482
  310loPI    C2 4946   5.027   0.147  10.973  0.0178  0.0616  0.1039
  310loPI    C3 4947   5.277   0.300  10.702  0.0451 -0.1700 -0.0037
  310loPI   PO4 4948   4.735   0.156  10.528 -0.0811 -0.2463  0.3307
  310loPI   GL1 4949   4.556   0.132  10.165 -0.1188 -0.1832 -0.0378
  310loPI   GL2 4950   4.246   0.276  10.229 -0.0166 -0.3255  0.0861
  310loPI   C1A 4951   4.800   0.135   9.809  0.0648  0.0960 -0.1493
  310loPI   C2A 4952   4.871   0.076   9.381 -0.0467  0.0543 -0.0732
  310loPI   C3A 4953   4.888   0.140   9.008  0.2158 -0.1390 -0.1185
  310loPI   C4A 4954   4.924   0.075   8.615 -0.0504  0.0218  0.1343
  310loPI   C5A 4955   4.700   0.148   8.218 -0.1077 -0.2583 -0.1669
  310loPI   C6A 4956   4.361   0.443   8.294  0.0235  0.0353 -0.1613
  310loPI   C1B 4957   4.247   0.373   9.781  0.0156 -0.3757  0.0114
  310loPI   C2B 4958   4.336   0.284   9.342 -0.0611  0.1754 -0.0471
  310loPI   C3B 4959   4.092   0.208   9.030  0.0296  0.1414 -0.0155
  310loPI   C4B 4960   3.903  -0.014   8.832 -0.0695  0.1192  0.1575
  311loPI    C1 4961   9.795   6.263  10.317 -0.1313 -0.0481 -0.1733
  311loPI    C2 4962   9.563   6.316  10.639 -0.1919 -0.0065 -0.2237
  311loPI    C3 4963   9.781   6.620  10.497 -0.0565 -0.0630 -0.1376
  311loPI   PO4 4964   9.602   6.064  10.138 -0.4187  0.2774  0.0157
  311loPI   GL1 4965   9.662   5.801   9.865 -0.1392 -0.3026  0.1276
  311loPI   GL2 4966   9.380   5.432   9.681 -0.2418 -0.2914 -0.1067
  311loPI   C1A 4967   9.587   5.722   9.325 -0.3414  0.1177 -0.2097
  311loPI   C2A 4968   9.537   5.687   8.927  0.0132 -0.0097 -0.1168
  311loPI   C3A 4969   9.844   5.632   8.630 -0.3206 -0.1399 -0.0490
  311loPI   C4A 4970   9.850   5.838   8.274  0.4645  0.3904 -0.2553
  311loPI   C5A 4971  10.094   6.113   7.991 -0.0638  0.0208 -0.1631
  311loPI   C6A 4972  10.183   6.230   7.600  0.1359  0.0858  0.1861
  311loPI   C1B 4973   9.238   5.326   9.331  0.3764  0.0173 -0.1422
  311loPI   C2B 4974   9.214   5.245   8.911  0.1032  0.0491 -0.0993
  311loPI   C3B 4975   9.377   5.321   8.578 -0.0163 -0.1704  0.1505
  311loPI   C4B 4976   9.545   5.323   8.249 -0.1115  0.2166  0.1256
  312loPI    C1 4977   4.489   7.875  10.577 -0.0750 -0.1735 -0.1314
  312loPI    C2 4978   4.490   7.516  10.754 -0.0841 -0.1474 -0.0782
  312loPI    C3 4979   4.574   7.844  10.967  0.0176 -0.1281 -0.1479
  312loPI   PO4 4980   4.604   7.899  10.328 -0.1424  0.0015 -0.0600
  312loPI   GL1 4981   4.358   8.057   9.963  0.2189  0.1977 -0.1238
  312loPI   GL2 4982   4.614   7.922   9.774  0.1386  0.1991 -0.3475
  312loPI   C1A 4983   4.148   8.026   9.507 -0.1289  0.2348  0.2174
  312loPI   C2A 4984   4.118   8.010   9.062  0.1456  0.2829 -0.1786
  312loPI   C3A 4985   4.179   7.972   8.588  0.1929 -0.3313 -0.1520
  312loPI   C4A 4986   4.080   7.767   8.200 -0.1700 -0.0682  0.2150
  312loPI   C5A 4987   3.658   7.549   8.187  0.0940 -0.2653  0.0513
  312loPI   C6A 4988   3.469   7.150   8.154 -0.0472  0.2295 -0.1278
  312loPI   C1B 4989   4.590   7.889   9.303 -0.0067 -0.1049  0.0369
  312loPI   C2B 4990   4.444   7.610   8.949  0.1598 -0.0128 -0.1551
  312loPI   C3B 4991   4.477   7.486   8.489  0.2910  0.2096 -0.2666
  312loPI   C4B 4992   4.220   7.272   8.280 -0.0851 -0.1138  0.0367
  313loPI    C1 4993  11.388  13.804  10.558 -0.1707  0.1966 -0.0670
  313loPI    C2 4994  11.683  13.981  10.763 -0.0481 -0.0518 -0.0254
  313loPI    C3 4995  11.714  13.934  10.367 -0.1512  0.1580 -0.0600
  313loPI   PO4 4996  11.157  14.001  10.611 -0.0084 -0.0160 -0.1470
  313loPI   GL1 4997  10.891  14.015  10.161  0.0136  0.1809 -0.2455
  313loPI   GL2 4998  11.255  14.152  10.145 -0.1621  0.1036  0.0745
  313loPI   C1A 4999  10.623  13.869   9.895 -0.2780  0.1128 -0.1328
  313loPI   C2A 5000  10.617  13.786   9.456  0.2178 -0.1634 -0.3360
  313loPI   C3A 5001  10.586  13.680   9.085  0.0095  0.1823  0.1190
  313loPI   C4A 5002  10.601  13.391   8.755 -0.0579  0.1740 -0.1084
  313loPI   C5A 5003  10.468  13.023   8.578 -0.0115 -0.1427  0.2649
  313loPI   C6A 5004  10.484  12.623   8.390 -0.1041  0.0725  0.1464
  313loPI   C1B 5005  11.463  14.390   9.879  0.2372  0.0527 -0.1808
  313loPI   C2B 5006  11.425  14.286   9.507 -0.2348  0.2345 -0.2300
  313loPI   C3B 5007  11.385  14.418   9.144  0.2486 -0.1514  0.0061
  313loPI   C4B 5008  11.491  14.815   8.908 -0.2165 -0.0533  0.0659
  314loPI    C1 5009   3.600  12.880  10.522  0.2483  0.6233  0.0264
  314loPI    C2 5010   3.951  12.969  10.694  0.2671  0.3370  0.1431
  314loPI    C3 5011   3.639  12.861  10.920  0.2227  0.1896  0.0136
  314loPI   PO4 5012   3.642  12.930  10.260  0.0105 -0.0847 -0.1001
  314loPI   GL1 5013   3.378  12.991   9.986 -0.0778 -0.3489 -0.0261
  314loPI   GL2 5014   3.323  12.654  10.067  0.0115  0.4059 -0.0671
  314loPI   C1A 5015   3.613  12.768   9.588 -0.2888  0.1131 -0.0266
  314loPI   C2A 5016   3.556  12.811   9.162 -0.0856 -0.0690 -0.0867
  314loPI   C3A 5017   3.419  12.660   8.718  0.2501 -0.2116 -0.0946
  314loPI   C4A 5018   3.451  12.360   8.403 -0.3334 -0.0302 -0.1114
  314loPI   C5A 5019   3.530  12.030   8.129  0.1397 -0.0881  0.2200
  314loPI   C6A 5020   3.438  11.508   7.951 -0.2186 -0.1778 -0.0632
  314loPI   C1B 5021   3.159  12.616   9.721 -0.3181  0.0928  0.1018
  314loPI   C2B 5022   3.098  12.605   9.269  0.1341 -0.0027 -0.0073
  314loPI   C3B 5023   2.906  12.720   8.994 -0.0948  0.0049 -0.0028
  314loPI   C4B 5024   2.679  12.993   8.704  0.1327  0.2449 -0.0385
  315loPI    C1 5025  15.233  17.449  10.646  0.0765 -0.1920  0.0433
  315loPI    C2 5026  14.941  17.194  10.547 -0.0981 -0.0057  0.0687
  315loPI    C3 5027  14.849  17.555  10.690  0.1428  0.1576 -0.1779
  315loPI   PO4 5028  15.403  17.374  10.396 -0.1842 -0.0992 -0.2743
  315loPI   GL1 5029  15.175  17.283  10.075 -0.1787 -0.2192  0.1276
  315loPI   GL2 5030  15.476  17.341   9.914  0.0795 -0.1189  0.2660
  315loPI   C1A 5031  15.325  16.898   9.654 -0.1040  0.2383  0.2649
  315loPI   C2A 5032  15.330  16.792   9.262 -0.1210 -0.2803 -0.1236
  315loPI   C3A 5033  15.476  16.791   8.954  0.0353 -0.0155  0.2662
  315loPI   C4A 5034  15.598  16.895   8.573 -0.1536  0.0316 -0.2190
  315loPI   C5A 5035  15.596  16.741   8.110 -0.0660  0.0174 -0.1544
  315loPI   C6A 5036  15.877  16.515   7.932 -0.4030 -0.0794  0.2273
  315loPI   C1B 5037  15.447  17.326   9.468  0.2557  0.1598  0.0113
  315loPI   C2B 5038  15.646  17.345   9.163  0.0352 -0.1285  0.3192
  315loPI   C3B 5039  15.821  17.312   8.621  0.0658  0.1517 -0.1148
  315loPI   C4B 5040  15.483  17.303   8.345  0.3151  0.2708  0.1011
  316loPI    C1 5041   0.547   5.792  10.330  0.2059 -0.0026 -0.0609
  316loPI    C2 5042   0.552   6.170  10.460 -0.2892  0.0284 -0.1135
  316loPI    C3 5043   0.553   5.868  10.722  0.1185  0.0616 -0.0715
  316loPI   PO4 5044   0.714   5.807  10.100 -0.1084 -0.3653 -0.0054
  316loPI   GL1 5045   0.510   5.810   9.740 -0.0774 -0.0683  0.1808
  316loPI   GL2 5046   0.111   5.743   9.740 -0.1044 -0.1397 -0.2385
  316loPI   C1A 5047   0.618   5.961   9.337  0.2086  0.1987  0.2426
  316loPI   C2A 5048   0.689   6.182   8.914 -0.1422  0.1581 -0.1249
  316loPI   C3A 5049   0.639   6.336   8.576  0.1777 -0.2044 -0.0485
  316loPI   C4A 5050   0.716   6.719   8.374 -0.4188  0.0234  0.2667
  316loPI   C5A 5051   0.756   6.858   7.891  0.1061 -0.0580 -0.5909
  316loPI   C6A 5052   0.578   6.643   7.528 -0.0500  0.1665 -0.2493
  316loPI   C1B 5053   0.196   5.608   9.330  0.1949  0.3393  0.1508
  316loPI   C2B 5054   0.484   5.530   9.018  0.0291  0.0787 -0.1043
  316loPI   C3B 5055   0.745   5.733   8.673  0.3970  0.1430  0.1311
  316loPI   C4B 5056   0.902   5.724   8.281  0.3273 -0.0095  0.0395
  317loPI    C1 5057   4.886  10.207  10.271 -0.1355  0.1511 -0.0371
  317loPI    C2 5058   5.162  10.298  10.545  0.1569 -0.2328 -0.1957
  317loPI    C3 5059   4.902  10.002  10.614 -0.0468 -0.0472 -0.1581
  317loPI   PO4 5060   5.027  10.161  10.009  0.3312 -0.2364  0.0800
  317loPI   GL1 5061   4.886   9.902   9.656 -0.2592 -0.2668  0.2371
  317loPI   GL2 5062   4.661  10.222   9.678 -0.1463  0.2101 -0.1797
  317loPI   C1A 5063   5.249   9.671   9.366 -0.0673  0.0969  0.2300
  317loPI   C2A 5064   5.371   9.492   9.007 -0.1654 -0.0809 -0.1203
  317loPI   C3A 5065   5.450   9.451   8.531  0.0556  0.1800  0.1775
  317loPI   C4A 5066   5.587   9.551   8.158  0.0257 -0.1933 -0.2489
  317loPI   C5A 5067   5.545   9.666   7.682 -0.0639  0.1359 -0.1878
  317loPI   C6A 5068   5.323   9.993   7.536 -0.0521  0.1932  0.2797
  317loPI   C1B 5069   4.559  10.064   9.311 -0.0621 -0.1775 -0.3064
  317loPI   C2B 5070   4.477  10.016   8.923  0.1982 -0.1280  0.1592
  317loPI   C3B 5071   4.359  10.001   8.446 -0.1357  0.0877 -0.0641
  317loPI   C4B 5072   4.188   9.856   8.158 -0.1289  0.0601  0.1001
  318loPI    C1 5073   6.843   1.092  11.050 -0.0421  0.0435  0.0378
  318loPI    C2 5074   6.450   1.017  11.068 -0.0274 -0.0392  0.0147
  318loPI    C3 5075   6.584   1.390  11.117 -0.1085 -0.0117  0.0280
  318loPI   PO4 5076   6.922   1.196  10.763 -0.0592  0.1364  0.1577
  318loPI   GL1 5077   6.866   1.224  10.296 -0.4377 -0.0754 -0.0669
  318loPI   GL2 5078   6.592   1.055  10.110 -0.0830 -0.0283 -0.1416
  318loPI   C1A 5079   6.992   1.365   9.872  0.1357 -0.1036  0.2912
  318loPI   C2A 5080   6.851   1.263   9.521  0.1912  0.0218  0.0385
  318loPI   C3A 5081   6.921   1.208   9.141 -0.1706  0.1268 -0.3036
  318loPI   C4A 5082   6.944   1.119   8.657  0.1865 -0.0251 -0.1550
  318loPI   C5A 5083   7.287   1.050   8.322  0.1629  0.0427  0.1455
  318loPI   C6A 5084   7.473   0.615   8.172 -0.1893  0.0574 -0.3227
  318loPI   C1B 5085   6.581   0.910   9.680  0.0490  0.2120  0.3994
  318loPI   C2B 5086   6.486   0.877   9.218 -0.3788 -0.2912 -0.0507
  318loPI   C3B 5087   6.451   1.064   8.843  0.2092  0.0192  0.1996
  318loPI   C4B 5088   6.382   1.341   8.491  0.1684 -0.0821 -0.0018
  319loPI    C1 5089  10.968  12.720  10.586  0.1338 -0.1110 -0.0213
  319loPI    C2 5090  11.084  12.667  10.965  0.1570  0.1748  0.0134
  319loPI    C3 5091  10.843  12.399  10.790 -0.1529  0.2267  0.3485
  319loPI   PO4 5092  10.873  12.943  10.585 -0.0310  0.4622  0.0518
  319loPI   GL1 5093  10.593  13.081  10.222  0.0976 -0.3469  0.6107
  319loPI   GL2 5094  10.802  12.999  10.022  0.1863  0.0741 -0.1110
  319loPI   C1A 5095  10.457  13.370   9.852  0.0628 -0.2740 -0.2327
  319loPI   C2A 5096  10.689  13.335   9.532  0.1769  0.2191 -0.0122
  319loPI   C3A 5097  11.011  13.276   9.242 -0.0362 -0.3332 -0.1009
  319loPI   C4A 5098  11.220  13.506   8.927 -0.1952 -0.0822  0.0190
  319loPI   C5A 5099  10.991  13.647   8.602 -0.1607  0.1351  0.3142
  319loPI   C6A 5100  10.665  13.775   8.197 -0.1668 -0.2101  0.1930
  319loPI   C1B 5101  10.794  12.805   9.570 -0.0679 -0.0179 -0.0956
  319loPI   C2B 5102  10.716  12.897   9.209 -0.0824  0.1471  0.2731
  319loPI   C3B 5103  10.868  12.713   8.753 -0.2079 -0.0412  0.0299
  319loPI   C4B 5104  10.985  12.506   8.339  0.0627  0.0277 -0.4763
  320loPI    C1 5105  16.094  16.846  10.543  0.3379 -0.0632  0.0596
  320loPI    C2 5106  16.272  17.177  10.681  0.1851 -0.1359  0.4416
  320loPI    C3 5107  15.898  17.088  10.794  0.0257 -0.1638 -0.0817
  320loPI   PO4 5108  16.169  16.874  10.229  0.1921  0.0490  0.0733
  320loPI   GL1 5109  16.248  16.555   9.977  0.3989  0.0685  0.0852
  320loPI   GL2 5110  16.473  16.311  10.063  0.2048 -0.1314  0.0668
  320loPI   C1A 5111  16.391  16.674   9.670  0.2311  0.3614  0.3323
  320loPI   C2A 5112  16.357  16.778   9.210 -0.3639  0.3152 -0.1954
  320loPI   C3A 5113  16.419  16.556   8.815  0.0535  0.0314  0.0561
  320loPI   C4A 5114  16.209  16.391   8.468  0.0547  0.2201 -0.1979
  320loPI   C5A 5115  15.713  16.389   8.407 -0.1068  0.0066 -0.1961
  320loPI   C6A 5116  15.212  16.477   8.258  0.2115  0.3148 -0.1750
  320loPI   C1B 5117  16.764  16.411   9.781 -0.1694  0.1258 -0.1225
  320loPI   C2B 5118  17.018  16.306   9.532  0.1690 -0.0477 -0.0435
  320loPI   C3B 5119  17.182  16.075   9.224 -0.1496 -0.1189  0.1932
  320loPI   C4B 5120  17.178  15.632   9.206  0.0367 -0.0210  0.1583
  321loPI    C1 5121  14.340  13.064  10.783 -0.0233 -0.1437  0.1384
  321loPI    C2 5122  14.345  12.961  11.169  0.0757 -0.1044  0.1481
  321loPI    C3 5123  14.435  13.335  11.061 -0.1065 -0.0739  0.0991
  321loPI   PO4 5124  14.525  12.891  10.611 -0.3851 -0.1877 -0.0135
  321loPI   GL1 5125  14.882  12.763  10.268  0.1642  0.3204  0.0043
  321loPI   GL2 5126  14.759  13.099  10.305 -0.0081 -0.1171  0.0153
  321loPI   C1A 5127  14.872  12.768   9.808 -0.0671 -0.1260 -0.1302
  321loPI   C2A 5128  14.774  12.803   9.341 -0.0621  0.3250 -0.2249
  321loPI   C3A 5129  14.747  12.641   8.916 -0.3005 -0.1641  0.0521
  321loPI   C4A 5130  14.934  12.748   8.562 -0.0021  0.0224 -0.1086
  321loPI   C5A 5131  14.791  13.057   8.319 -0.0884  0.1928 -0.3485
  321loPI   C6A 5132  14.784  13.405   8.240 -0.0895  0.0833  0.2822
  321loPI   C1B 5133  14.831  13.266   9.940 -0.3466  0.0927  0.3676
  321loPI   C2B 5134  14.714  13.307   9.541 -0.3195 -0.0062  0.1122
  321loPI   C3B 5135  14.844  13.285   9.169 -0.3600  0.1390  0.0121
  321loPI   C4B 5136  14.886  13.115   8.816 -0.0384  0.0700  0.0416
  322loPI    C1 5137  17.831  10.586  11.118 -0.1714 -0.1726  0.1878
  322loPI    C2 5138  18.128  10.503  11.373 -0.1528  0.0930  0.2554
  322loPI    C3 5139  17.846  10.768  11.474 -0.1836  0.1493  0.0270
  322loPI   PO4 5140  17.805  10.320  10.934  0.0361  0.0667  0.2428
  322loPI   GL1 5141  17.788  10.218  10.486  0.2527  0.2275  0.3480
  322loPI   GL2 5142  17.895   9.925  10.550 -0.0156 -0.1965  0.0632
  322loPI   C1A 5143  17.702  10.222  10.022  0.0779  0.2557  0.5439
  322loPI   C2A 5144  17.679  10.096   9.587  0.0069 -0.2952  0.3197
  322loPI   C3A 5145  17.590   9.931   9.183  0.4178 -0.0765  0.1562
  322loPI   C4A 5146  17.429   9.923   8.807  0.2699 -0.1932  0.0934
  322loPI   C5A 5147  17.260   9.652   8.360  0.1234  0.0784  0.2265
  322loPI   C6A 5148  17.104   9.657   7.928  0.1806 -0.0417 -0.2259
  322loPI   C1B 5149  17.991   9.816  10.204 -0.3504 -0.1085  0.2258
  322loPI   C2B 5150  17.916   9.681   9.887 -0.0034  0.1098  0.2402
  322loPI   C3B 5151  18.013   9.549   9.564  0.1629 -0.0213 -0.2814
  322loPI   C4B 5152  17.910   9.578   9.060 -0.0337  0.0742 -0.3479
  323loPI    C1 5153   0.369   3.425  10.757  0.0686 -0.2246  0.2580
  323loPI    C2 5154   0.274   3.672  11.057  0.1664  0.0439  0.0715
  323loPI    C3 5155   0.500   3.349  11.128 -0.1553 -0.1254  0.3592
  323loPI   PO4 5156   0.198   3.343  10.602 -0.0044  0.3739 -0.0066
  323loPI   GL1 5157   0.086   3.205  10.160  0.4187  0.0016 -0.2356
  323loPI   GL2 5158  -0.136   3.047   9.903  0.1289  0.2763 -0.1779
  323loPI   C1A 5159   0.349   3.255   9.754  0.3448 -0.1165 -0.2146
  323loPI   C2A 5160   0.349   3.340   9.297 -0.0992  0.0698  0.1200
  323loPI   C3A 5161   0.483   3.261   8.829  0.1165  0.5000 -0.0656
  323loPI   C4A 5162   0.428   3.090   8.428  0.0796  0.0143 -0.1253
  323loPI   C5A 5163   0.184   3.063   8.060  0.1212  0.1414 -0.0946
  323loPI   C6A 5164  -0.141   3.273   7.969  0.0528  0.0369  0.2456
  323loPI   C1B 5165  -0.062   3.102   9.440  0.2493 -0.0041 -0.1580
  323loPI   C2B 5166  -0.161   3.210   9.038 -0.0702  0.1871 -0.0071
  323loPI   C3B 5167   0.084   3.509   8.882  0.1074 -0.1584  0.0690
  323loPI   C4B 5168   0.426   3.673   8.543  0.0285 -0.0518  0.0733
  324loPI    C1 5169   5.397  11.356  10.347  0.1661  0.0949  0.0015
  324loPI    C2 5170   5.089  11.470  10.576  0.1268  0.1422 -0.0746
  324loPI    C3 5171   5.188  11.083  10.552  0.0929  0.1304 -0.0253
  324loPI   PO4 5172   5.370  11.440  10.109  0.0114  0.0537  0.1055
  324loPI   GL1 5173   5.188  11.294   9.701 -0.0698  0.3171 -0.1596
  324loPI   GL2 5174   4.903  11.070   9.704  0.3296  0.2503  0.0041
  324loPI   C1A 5175   5.186  11.513   9.427 -0.0047  0.0436 -0.0440
  324loPI   C2A 5176   5.122  11.519   9.032 -0.0941  0.2670 -0.1725
  324loPI   C3A 5177   5.133  11.769   8.683  0.0444  0.2529  0.2128
  324loPI   C4A 5178   4.785  11.908   8.376 -0.2147 -0.4191 -0.0221
  324loPI   C5A 5179   4.359  12.220   8.250  0.1046 -0.2758 -0.0449
  324loPI   C6A 5180   4.236  12.604   8.383 -0.1678  0.2515  0.1093
  324loPI   C1B 5181   4.931  11.110   9.214 -0.2641 -0.0589  0.1296
  324loPI   C2B 5182   4.868  11.132   8.743 -0.3128  0.1024  0.2069
  324loPI   C3B 5183   5.081  11.419   8.301  0.0287 -0.1302 -0.1195
  324loPI   C4B 5184   5.167  11.777   8.019 -0.1554 -0.0953 -0.0369
  325loPI    C1 5185   6.685   2.298  10.798  0.1060  0.0337 -0.3226
  325loPI    C2 5186   6.732   1.951  10.992 -0.3483  0.0780 -0.1182
  325loPI    C3 5187   6.914   2.281  11.126  0.0304 -0.0619 -0.2740
  325loPI   PO4 5188   6.396   2.288  10.737 -0.0517  0.2204  0.0466
  325loPI   GL1 5189   6.422   1.928  10.423 -0.0693  0.0673 -0.1943
  325loPI   GL2 5190   6.435   2.135  10.171 -0.0767 -0.0260  0.2383
  325loPI   C1A 5191   6.514   1.569  10.157 -0.0535  0.3026 -0.2454
  325loPI   C2A 5192   6.430   1.440   9.715 -0.2142 -0.1713 -0.1766
  325loPI   C3A 5193   6.401   1.397   9.233  0.1372  0.4216  0.0109
  325loPI   C4A 5194   6.453   1.657   8.975  0.0083 -0.1090  0.3601
  325loPI   C5A 5195   6.357   1.858   8.509 -0.4452 -0.2357 -0.0173
  325loPI   C6A 5196   6.510   1.762   7.995  0.1817  0.1655 -0.1604
  325loPI   C1B 5197   6.539   2.320   9.716 -0.0693  0.1368 -0.0161
  325loPI   C2B 5198   6.517   2.388   9.196  0.1990  0.1110  0.0617
  325loPI   C3B 5199   6.664   2.334   8.840  0.3398  0.0978  0.2011
  325loPI   C4B 5200   6.765   2.200   8.419 -0.1945 -0.0554 -0.1082
  326loPI    C1 5201  10.441   1.285  10.785  0.0700  0.0434  0.3305
  326loPI    C2 5202  10.258   1.027  11.030 -0.1554 -0.1349 -0.0165
  326loPI    C3 5203  10.098   1.387  10.963  0.0123 -0.0070  0.2489
  326loPI   PO4 5204  10.548   1.107  10.615  0.2209 -0.0459 -0.1546
  326loPI   GL1 5205  10.761   0.891  10.389  0.1309  0.0669  0.0024
  326loPI   GL2 5206  10.674   0.582  10.425  0.0032 -0.1683 -0.4337
  326loPI   C1A 5207  10.562   0.837   9.970 -0.5614 -0.0051  0.1236
  326loPI   C2A 5208  10.264   0.654   9.726 -0.0356 -0.1823 -0.0216
  326loPI   C3A 5209  10.053   0.572   9.301  0.0628 -0.1016  0.0824
  326loPI   C4A 5210  10.266   0.605   8.841  0.1288 -0.1617  0.0231
  326loPI   C5A 5211  10.170   0.747   8.406 -0.0840  0.0893  0.2180
  326loPI   C6A 5212  10.123   0.789   7.986  0.1879 -0.0095  0.1026
  326loPI   C1B 5213  10.381   0.418  10.160 -0.0919  0.2153  0.0735
  326loPI   C2B 5214   9.978   0.302   9.973  0.0357 -0.0452 -0.0969
  326loPI   C3B 5215   9.847   0.258   9.626 -0.0358 -0.0030  0.0051
  326loPI   C4B 5216   9.883   0.084   9.313 -0.0576  0.2755 -0.0687
  327loPI    C1 5217  11.197   1.707  10.614 -0.1934  0.0498  0.0501
  327loPI    C2 5218  11.560   1.842  10.714 -0.0446 -0.1801 -0.1670
  327loPI    C3 5219  11.236   2.060  10.798  0.1326 -0.0232  0.1289
  327loPI   PO4 5220  11.212   1.642  10.394 -0.0427  0.2417  0.1607
  327loPI   GL1 5221  11.015   1.521  10.058 -0.1863  0.1633 -0.0053
  327loPI   GL2 5222  10.929   1.271  10.077 -0.0698  0.2138 -0.2895
  327loPI   C1A 5223  11.066   1.611   9.569 -0.1300  0.2942 -0.0748
  327loPI   C2A 5224  11.035   1.636   9.187  0.3440  0.4209  0.2921
  327loPI   C3A 5225  11.201   1.541   8.877 -0.0067 -0.2946  0.1388
  327loPI   C4A 5226  11.365   1.364   8.529  0.0437  0.3637 -0.3929
  327loPI   C5A 5227  11.530   1.140   8.227 -0.1815 -0.0139  0.3857
  327loPI   C6A 5228  11.905   1.206   8.097 -0.3530 -0.0483  0.0501
  327loPI   C1B 5229  10.982   1.119   9.705  0.4465  0.3317  0.3212
  327loPI   C2B 5230  10.992   1.019   9.238  0.2278 -0.1256  0.1132
  327loPI   C3B 5231  11.150   1.030   8.875 -0.0629  0.3185 -0.1363
  327loPI   C4B 5232  11.006   1.033   8.474 -0.2823  0.3718 -0.0101
  328loPI    C1 5233   1.293   6.823  10.900  0.0634 -0.1875 -0.0145
  328loPI    C2 5234   1.280   7.137  11.147  0.0099 -0.2566  0.0716
  328loPI    C3 5235   1.448   6.795  11.268 -0.1069 -0.3225  0.0488
  328loPI   PO4 5236   1.420   6.885  10.717  0.4068 -0.2472 -0.0470
  328loPI   GL1 5237   1.506   7.116  10.343  0.2167 -0.2095  0.0490
  328loPI   GL2 5238   1.189   7.159  10.319 -0.2991  0.0239 -0.2268
  328loPI   C1A 5239   1.659   7.310   9.917  0.2248 -0.0057 -0.1611
  328loPI   C2A 5240   1.579   7.329   9.558  0.2386 -0.3608 -0.1925
  328loPI   C3A 5241   1.603   7.598   9.259  0.0984  0.1016 -0.0861
  328loPI   C4A 5242   1.777   7.611   8.915  0.2652  0.1050  0.2373
  328loPI   C5A 5243   1.778   7.834   8.516 -0.1005  0.0463 -0.1878
  328loPI   C6A 5244   2.025   7.766   8.199  0.0636 -0.0108 -0.0900
  328loPI   C1B 5245   1.110   7.361  10.044  0.0937  0.0703 -0.0624
  328loPI   C2B 5246   1.052   7.394   9.562  0.0739  0.1853 -0.5856
  328loPI   C3B 5247   1.080   7.391   9.193 -0.0992  0.2382  0.1578
  328loPI   C4B 5248   1.370   7.273   8.885  0.3654  0.1851  0.1498
  329loPI    C1 5249  17.426   5.135  10.800 -0.0638 -0.2125 -0.1038
  329loPI    C2 5250  17.091   5.013  10.980 -0.0969  0.0334  0.0046
  329loPI    C3 5251  17.388   5.172  11.196 -0.0089  0.0404 -0.1205
  329loPI   PO4 5252  17.346   5.249  10.614 -0.0219 -0.0725  0.0433
  329loPI   GL1 5253  17.406   5.318  10.182  0.1538 -0.0834  0.0025
  329loPI   GL2 5254  17.427   5.047  10.174  0.0501  0.0973 -0.0948
  329loPI   C1A 5255  17.142   5.232   9.831  0.1597  0.0920 -0.0119
  329loPI   C2A 5256  17.102   5.070   9.529  0.2321 -0.0858  0.0160
  329loPI   C3A 5257  16.833   5.058   9.201  0.2495  0.0863  0.0024
  329loPI   C4A 5258  16.805   5.214   8.817 -0.2535  0.0876 -0.3073
  329loPI   C5A 5259  16.521   5.423   8.637 -0.0651  0.2469  0.1924
  329loPI   C6A 5260  16.417   5.638   8.208  0.2292  0.0514 -0.2496
  329loPI   C1B 5261  17.557   4.974   9.690 -0.0607 -0.2011 -0.0328
  329loPI   C2B 5262  17.630   4.840   9.246 -0.0206 -0.2379 -0.2303
  329loPI   C3B 5263  17.693   4.773   8.860 -0.1126 -0.0451 -0.0952
  329loPI   C4B 5264  17.943   4.910   8.515  0.2362  0.0707  0.4207
  330loPI    C1 5265   4.260  13.303  10.531  0.0823 -0.1252  0.0625
  330loPI    C2 5266   4.584  13.167  10.339 -0.1159 -0.3512 -0.1186
  330loPI    C3 5267   4.578  13.179  10.739  0.0594 -0.4871 -0.1109
  330loPI   PO4 5268   4.110  13.182  10.275 -0.0119  0.1070 -0.3089
  330loPI   GL1 5269   4.334  12.982   9.996 -0.2130  0.1422 -0.0005
  330loPI   GL2 5270   4.516  12.697   9.844  0.0532 -0.0227 -0.1962
  330loPI   C1A 5271   4.168  12.927   9.590  0.3021  0.2681  0.2754
  330loPI   C2A 5272   4.283  13.036   9.141 -0.0454 -0.1404  0.1301
  330loPI   C3A 5273   4.337  13.060   8.729  0.4026 -0.2042 -0.2374
  330loPI   C4A 5274   4.591  12.932   8.358 -0.2475 -0.0916 -0.1651
  330loPI   C5A 5275   4.941  13.072   8.048 -0.1654  0.4224  0.1059
  330loPI   C6A 5276   5.365  13.129   8.113  0.2518  0.0595  0.1828
  330loPI   C1B 5277   4.699  12.998   9.583  0.3727 -0.1061  0.1860
  330loPI   C2B 5278   4.750  12.953   9.213 -0.0309 -0.3148  0.2752
  330loPI   C3B 5279   4.846  13.087   8.841 -0.2032  0.0738  0.1466
  330loPI   C4B 5280   5.074  12.844   8.472 -0.3900  0.0992 -0.1229
  331loPI    C1 5281   5.484   6.198  10.640  0.1178  0.0796 -0.0364
  331loPI    C2 5282   5.671   5.845  10.610 -0.3492 -0.1519 -0.3604
  331loPI    C3 5283   5.469   5.938  10.943  0.0387 -0.0468 -0.1477
  331loPI   PO4 5284   5.639   6.365  10.498  0.1326  0.1688 -0.2271
  331loPI   GL1 5285   5.572   6.278  10.080  0.2793 -0.0921 -0.0735
  331loPI   GL2 5286   5.532   5.949  10.163 -0.2095  0.2967  0.0182
  331loPI   C1A 5287   5.388   6.112   9.589  0.2424 -0.0189 -0.1368
  331loPI   C2A 5288   5.378   6.009   9.131 -0.1860 -0.1524 -0.0802
  331loPI   C3A 5289   5.391   5.995   8.700 -0.3314 -0.1061 -0.1174
  331loPI   C4A 5290   5.343   5.785   8.333  0.2628 -0.0102  0.2118
  331loPI   C5A 5291   5.455   5.353   8.082 -0.1622 -0.4221 -0.2355
  331loPI   C6A 5292   5.791   5.041   7.918  0.3640  0.1168 -0.0051
  331loPI   C1B 5293   5.341   5.719   9.897 -0.2447  0.1840  0.0222
  331loPI   C2B 5294   5.258   5.676   9.454 -0.0763  0.1401 -0.1301
  331loPI   C3B 5295   5.056   5.421   9.181 -0.0965 -0.0859  0.3054
  331loPI   C4B 5296   4.655   5.486   8.825 -0.1542  0.1579  0.1828
  332loPI    C1 5297  17.014   1.969  10.603  0.1505  0.1816 -0.0288
  332loPI    C2 5298  17.047   1.591  10.728  0.3446  0.1525 -0.1638
  332loPI    C3 5299  17.138   1.891  10.975  0.2040  0.1111 -0.0609
  332loPI   PO4 5300  17.059   1.984  10.377  0.0113  0.2473  0.0998
  332loPI   GL1 5301  17.076   1.948   9.971  0.0910  0.1500 -0.0629
  332loPI   GL2 5302  16.730   1.860   9.881 -0.4048 -0.0937  0.2698
  332loPI   C1A 5303  17.222   1.922   9.476  0.1100 -0.2377 -0.2644
  332loPI   C2A 5304  17.324   2.007   8.978 -0.0092  0.2540  0.1466
  332loPI   C3A 5305  17.310   2.030   8.508  0.0073  0.3791  0.3181
  332loPI   C4A 5306  17.440   1.690   8.176 -0.1080 -0.0822 -0.0556
  332loPI   C5A 5307  17.586   1.317   7.993  0.2713  0.0713 -0.0797
  332loPI   C6A 5308  17.623   0.907   7.711  0.0250 -0.2077  0.0095
  332loPI   C1B 5309  16.796   1.754   9.578 -0.1590 -0.1723  0.0591
  332loPI   C2B 5310  16.782   1.791   9.107 -0.1348 -0.0477 -0.1094
  332loPI   C3B 5311  16.873   1.678   8.714  0.1232  0.5071 -0.1615
  332loPI   C4B 5312  16.817   1.592   8.318  0.5029  0.2593  0.3724
  333loPI    C1 5313   1.906   8.918  10.940  0.1239  0.0738  0.1222
  333loPI    C2 5314   2.028   8.642  11.203  0.2228  0.0543  0.0566
  333loPI    C3 5315   1.998   9.026  11.314 -0.0648 -0.0051  0.1924
  333loPI   PO4 5316   1.622   8.805  10.847 -0.0220  0.0572 -0.2315
  333loPI   GL1 5317   1.239   8.856  10.591 -0.0357 -0.4942  0.0706
  333loPI   GL2 5318   1.327   9.115  10.280  0.1916 -0.0747 -0.0060
  333loPI   C1A 5319   1.268   8.478  10.316 -0.0046  0.0581  0.0929
  333loPI   C2A 5320   1.421   8.354   9.926 -0.2850 -0.2389  0.0424
  333loPI   C3A 5321   1.234   8.291   9.425  0.2125 -0.0215  0.1917
  333loPI   C4A 5322   0.987   8.299   9.032  0.2882 -0.3781 -0.0572
  333loPI   C5A 5323   0.807   8.624   8.792  0.1146  0.2375  0.1410
  333loPI   C6A 5324   0.406   8.647   8.535  0.1342  0.2645  0.2177
  333loPI   C1B 5325   1.480   8.866   9.954  0.1218 -0.1214 -0.5162
  333loPI   C2B 5326   1.368   8.743   9.568  0.1647  0.0116 -0.1125
  333loPI   C3B 5327   1.309   8.734   9.033  0.1838  0.0787  0.1553
  333loPI   C4B 5328   1.240   8.910   8.620 -0.1317 -0.1308  0.1872
  334loPI    C1 5329   7.501   0.697  10.604  0.1531 -0.1136  0.1245
  334loPI    C2 5330   7.456   0.567  10.980  0.0263  0.0787  0.1778
  334loPI    C3 5331   7.157   0.761  10.799  0.0090 -0.1969 -0.0984
  334loPI   PO4 5332   7.664   0.574  10.482 -0.1556 -0.0907  0.1758
  334loPI   GL1 5333   7.817   0.458  10.058  0.0515 -0.0439  0.1215
  334loPI   GL2 5334   8.184   0.619  10.100 -0.0873  0.1855 -0.0055
  334loPI   C1A 5335   7.918   0.247   9.695  0.0080  0.1258  0.0392
  334loPI   C2A 5336   7.824   0.007   9.292 -0.2611 -0.0754 -0.1662
  334loPI   C3A 5337   7.979  -0.358   9.040  0.0940 -0.0596 -0.0676
  334loPI   C4A 5338   8.090  -0.565   8.658 -0.0823  0.2631 -0.3839
  334loPI   C5A 5339   8.196  -0.608   8.274 -0.0929  0.1707 -0.1473
  334loPI   C6A 5340   8.417  -0.292   8.151 -0.1584  0.0397 -0.1546
  334loPI   C1B 5341   8.228   0.632   9.588  0.2544 -0.1319  0.2329
  334loPI   C2B 5342   8.164   0.419   9.180  0.0182  0.2256 -0.0879
  334loPI   C3B 5343   8.120   0.379   8.817 -0.0720  0.4045  0.0832
  334loPI   C4B 5344   7.935   0.231   8.408  0.0687  0.1144 -0.3059
  335loPI    C1 5345   7.713   5.698  10.247 -0.0317  0.2182  0.1292
  335loPI    C2 5346   7.829   5.367  10.440  0.0451  0.0982 -0.1178
  335loPI    C3 5347   7.912   5.727  10.593  0.0101  0.0056  0.1246
  335loPI   PO4 5348   7.830   5.690  10.020  0.1183  0.2321 -0.0997
  335loPI   GL1 5349   7.753   5.838   9.642  0.2694 -0.1229  0.2391
  335loPI   GL2 5350   7.597   5.483   9.583 -0.2127 -0.1293  0.2898
  335loPI   C1A 5351   7.794   5.750   9.244 -0.2365 -0.2089  0.0223
  335loPI   C2A 5352   7.775   5.848   8.805  0.0413 -0.3264 -0.3426
  335loPI   C3A 5353   7.965   5.894   8.395  0.1527  0.0704  0.2462
  335loPI   C4A 5354   7.956   5.735   7.997 -0.0533  0.0824  0.1780
  335loPI   C5A 5355   8.066   5.393   7.723  0.1232  0.1435 -0.2553
  335loPI   C6A 5356   8.305   4.995   7.697 -0.4397 -0.1459  0.3460
  335loPI   C1B 5357   7.504   5.202   9.276 -0.1337  0.3782 -0.0146
  335loPI   C2B 5358   7.676   4.953   8.924  0.3203 -0.0609  0.2400
  335loPI   C3B 5359   7.713   5.001   8.503  0.1740  0.3320  0.3308
  335loPI   C4B 5360   7.860   5.184   8.080  0.0153  0.1514  0.1652
  336loPI    C1 5361   4.638  13.681  10.859 -0.0213 -0.1856  0.0694
  336loPI    C2 5362   4.949  13.457  10.972  0.0090 -0.1291  0.0987
  336loPI    C3 5363   4.644  13.518  11.224  0.0892  0.0196  0.1607
  336loPI   PO4 5364   4.666  13.645  10.566  0.0441 -0.1286 -0.0106
  336loPI   GL1 5365   4.462  13.610  10.134 -0.3313 -0.1016  0.3293
  336loPI   GL2 5366   4.537  13.447   9.875  0.1351  0.2434  0.0178
  336loPI   C1A 5367   4.092  13.634   9.819  0.1801  0.2865  0.0348
  336loPI   C2A 5368   4.026  13.835   9.446  0.3742 -0.0471  0.0327
  336loPI   C3A 5369   3.964  13.827   8.979  0.3351  0.1179 -0.1505
  336loPI   C4A 5370   3.800  13.885   8.612 -0.0516 -0.2231 -0.1201
  336loPI   C5A 5371   3.568  13.898   8.195 -0.0829  0.0426  0.3886
  336loPI   C6A 5372   3.396  13.457   8.055  0.1052  0.2608  0.0649
  336loPI   C1B 5373   4.413  13.389   9.471  0.1660 -0.0411 -0.1316
  336loPI   C2B 5374   4.373  13.566   8.994 -0.2393 -0.0288  0.3289
  336loPI   C3B 5375   4.233  13.629   8.546 -0.0453  0.1123 -0.1367
  336loPI   C4B 5376   3.841  13.369   8.325 -0.1018 -0.0401  0.0341
  337loPI    C1 5377  12.269   7.855  10.904 -0.2979 -0.0485  0.1295
  337loPI    C2 5378  12.589   7.774  11.130 -0.1052 -0.1021 -0.1580
  337loPI    C3 5379  12.222   7.739  11.284  0.0283  0.0814  0.2133
  337loPI   PO4 5380  12.295   7.869  10.592 -0.0754  0.2018  0.2625
  337loPI   GL1 5381  12.587   7.958  10.266  0.0467 -0.3102  0.1600
  337loPI   GL2 5382  12.859   8.089  10.181 -0.1657  0.0102  0.1573
  337loPI   C1A 5383  12.579   7.804   9.818  0.0399  0.2494  0.0340
  337loPI   C2A 5384  12.466   7.846   9.374 -0.1971 -0.1003 -0.4789
  337loPI   C3A 5385  12.301   7.717   8.981  0.2279 -0.2154  0.0380
  337loPI   C4A 5386  12.263   7.778   8.507  0.3803  0.0583  0.1848
  337loPI   C5A 5387  12.135   7.839   8.134 -0.1254 -0.0602  0.1570
  337loPI   C6A 5388  11.889   8.026   7.784 -0.2948  0.0821  0.1472
  337loPI   C1B 5389  12.867   8.268   9.823 -0.0583  0.1261  0.2590
  337loPI   C2B 5390  12.824   8.521   9.415 -0.2175  0.0453 -0.2400
  337loPI   C3B 5391  12.738   8.698   8.952 -0.0488 -0.3829  0.1508
  337loPI   C4B 5392  12.705   8.666   8.531 -0.3458  0.1466  0.0801
  338loPI    C1 5393  17.769   6.591  10.976 -0.0019 -0.0952  0.0268
  338loPI    C2 5394  17.560   6.903  11.114  0.1563  0.0331 -0.0204
  338loPI    C3 5395  17.420   6.531  11.163 -0.1444  0.1237 -0.1636
  338loPI   PO4 5396  17.899   6.808  10.704 -0.0832 -0.3318  0.1025
  338loPI   GL1 5397  17.748   7.120  10.498  0.5643 -0.1996 -0.1493
  338loPI   GL2 5398  18.130   7.021  10.297 -0.1682  0.1841 -0.0194
  338loPI   C1A 5399  17.790   7.280  10.010  0.2806  0.0704  0.1272
  338loPI   C2A 5400  18.019   7.008   9.721 -0.0329 -0.0261  0.1894
  338loPI   C3A 5401  18.079   6.798   9.296  0.2599 -0.0791 -0.0282
  338loPI   C4A 5402  18.193   6.922   9.010 -0.0324 -0.2776 -0.3468
  338loPI   C5A 5403  17.946   7.007   8.666 -0.1608  0.1243 -0.2087
  338loPI   C6A 5404  17.901   7.289   8.283  0.3074 -0.1480 -0.1470
  338loPI   C1B 5405  18.286   7.346  10.150  0.0291 -0.2595 -0.0221
  338loPI   C2B 5406  18.175   7.507   9.735  0.0611 -0.2766  0.0514
  338loPI   C3B 5407  18.085   7.391   9.322  0.2153  0.1130 -0.1106
  338loPI   C4B 5408  18.077   7.480   8.837  0.2102 -0.1544 -0.1704
  339POPI    C1 5409   8.994   9.238  10.820 -0.0123  0.0837  0.1788
  339POPI    C2 5410   8.986   9.638  10.816  0.1851  0.0891  0.2272
  339POPI    C3 5411   9.132   9.444  11.134  0.3225 -0.0167  0.1011
  339POPI   PO4 5412   9.214   9.169  10.539  0.0683  0.0356 -0.0352
  339POPI   GL1 5413   9.452   9.453  10.182 -0.2082 -0.1266 -0.1092
  339POPI   GL2 5414   9.379   9.822  10.031  0.2539 -0.1274  0.0560
  339POPI   C1A 5415   9.433   9.382   9.765 -0.3200  0.0838 -0.2046
  339POPI   D2A 5416   9.412   9.041   9.532  0.0382  0.0076  0.0616
  339POPI   C3A 5417   9.571   8.670   9.688 -0.0662 -0.0063 -0.2199
  339POPI   C4A 5418   9.905   8.381   9.770  0.1344  0.0868  0.1675
  339POPI   C1B 5419   9.691  10.152   9.925  0.1243  0.3262  0.0424
  339POPI   C2B 5420   9.683  10.317   9.540 -0.2874 -0.0503  0.0961
  339POPI   C3B 5421   9.847  10.355   9.072  0.0026  0.0832 -0.1728
  339POPI   C4B 5422  10.232  10.166   8.730 -0.1706 -0.0361 -0.0664
  340POPI    C1 5423   6.744  17.557  10.589 -0.0971  0.1068 -0.0327
  340POPI    C2 5424   6.781  17.942  10.692  0.3281  0.0176  0.1684
  340POPI    C3 5425   6.991  17.662  10.886  0.1033 -0.3067 -0.0463
  340POPI   PO4 5426   6.771  17.497  10.382  0.1026  0.2087 -0.1363
  340POPI   GL1 5427   6.893  17.124  10.030 -0.1544 -0.0259 -0.0064
  340POPI   GL2 5428   6.719  16.822  10.073 -0.2639 -0.0894 -0.1471
  340POPI   C1A 5429   6.654  17.313   9.699 -0.0146 -0.2430  0.2139
  340POPI   D2A 5430   6.611  17.317   9.186 -0.2167 -0.1178 -0.1939
  340POPI   C3A 5431   7.055  17.320   8.925 -0.0956 -0.0920 -0.0350
  340POPI   C4A 5432   7.107  17.389   8.611  0.1806  0.0967 -0.1680
  340POPI   C1B 5433   6.964  16.912   9.606 -0.4053 -0.1319 -0.0427
  340POPI   C2B 5434   6.868  16.607   9.377 -0.1800 -0.0728 -0.3252
  340POPI   C3B 5435   6.916  16.713   8.989 -0.1400 -0.0207 -0.0507
  340POPI   C4B 5436   6.669  16.987   8.729 -0.0227  0.1315 -0.0965
  341POPI    C1 5437  12.400   1.981  10.782  0.1862 -0.1029 -0.1331
  341POPI    C2 5438  12.730   2.189  10.869  0.1472 -0.0282 -0.1638
  341POPI    C3 5439  12.378   2.294  11.029  0.1752 -0.2401  0.0416
  341POPI   PO4 5440  12.492   1.925  10.488 -0.0431 -0.0687  0.0664
  341POPI   GL1 5441  12.670   1.897  10.089  0.0502  0.0092 -0.1030
  341POPI   GL2 5442  12.866   1.907   9.882  0.0836  0.3480 -0.0603
  341POPI   C1A 5443  12.501   1.984   9.598 -0.0486  0.0930 -0.0373
  341POPI   D2A 5444  12.117   2.109   9.463 -0.4919 -0.2626  0.3453
  341POPI   C3A 5445  12.210   1.981   9.088 -0.0241  0.1248 -0.0630
  341POPI   C4A 5446  12.271   2.212   8.589 -0.2303  0.2545 -0.1666
  341POPI   C1B 5447  12.910   1.704   9.438  0.0764 -0.1919 -0.0243
  341POPI   C2B 5448  13.050   1.781   9.065  0.0973 -0.0939 -0.1063
  341POPI   C3B 5449  12.884   1.742   8.640 -0.1013  0.3182 -0.1724
  341POPI   C4B 5450  13.066   1.925   8.314 -0.2463  0.0824  0.2004
  342POPI    C1 5451   0.843  17.250  10.725  0.0185 -0.1400 -0.0513
  342POPI    C2 5452   0.691  17.619  10.700 -0.0246 -0.1486  0.0781
  342POPI    C3 5453   0.668  17.416  11.044  0.0783 -0.2376  0.0330
  342POPI   PO4 5454   0.969  17.245  10.484  0.2577 -0.1039  0.2429
  342POPI   GL1 5455   0.906  17.435  10.133  0.0823 -0.0592  0.0121
  342POPI   GL2 5456   0.767  17.062  10.035 -0.1771  0.0067  0.3214
  342POPI   C1A 5457   1.117  17.437   9.818 -0.1832  0.1049 -0.0162
  342POPI   D2A 5458   1.069  17.676   9.478 -0.0986  0.3283  0.0869
  342POPI   C3A 5459   0.903  17.614   9.078  0.0228 -0.1147  0.1951
  342POPI   C4A 5460   0.735  17.796   8.827 -0.2518  0.4121  0.1250
  342POPI   C1B 5461   0.785  17.115   9.567  0.0042 -0.1567 -0.1554
  342POPI   C2B 5462   0.652  17.197   9.149  0.2663  0.0580  0.2750
  342POPI   C3B 5463   0.707  17.267   8.704 -0.1435 -0.3869  0.1361
  342POPI   C4B 5464   0.720  17.098   8.290 -0.1831 -0.0012  0.1225
  343POPI    C1 5465   0.233  11.343  11.118  0.1197 -0.1897 -0.1182
  343POPI    C2 5466   0.544  11.187  11.315  0.0469 -0.3225 -0.1079
  343POPI    C3 5467   0.176  11.040  11.372 -0.0123 -0.1925 -0.1504
  343POPI   PO4 5468   0.387  11.435  10.841 -0.1551 -0.1431 -0.2721
  343POPI   GL1 5469   0.167  11.723  10.491  0.1240  0.0365  0.0769
  343POPI   GL2 5470   0.327  11.583  10.268  0.0043  0.0846 -0.3680
  343POPI   C1A 5471   0.015  11.962  10.245 -0.0564 -0.0090 -0.1658
  343POPI   D2A 5472  -0.310  12.107  10.189  0.1509 -0.1860 -0.2150
  343POPI   C3A 5473  -0.396  12.262   9.735  0.0627 -0.0987  0.0256
  343POPI   C4A 5474  -0.738  12.543   9.758 -0.2673 -0.3400  0.2407
  343POPI   C1B 5475   0.264  11.572   9.906 -0.0730  0.0463  0.2595
  343POPI   C2B 5476   0.111  11.264   9.481 -0.1192 -0.1082  0.2013
  343POPI   C3B 5477  -0.077  11.262   9.103 -0.0883  0.1185 -0.0514
  343POPI   C4B 5478  -0.257  11.081   8.733 -0.2324 -0.1670 -0.0828
  344POPI    C1 5479   8.676  11.558  10.419 -0.1766 -0.1417 -0.0386
  344POPI    C2 5480   8.369  11.410  10.211  0.0074 -0.2529 -0.2342
  344POPI    C3 5481   8.575  11.173  10.459  0.0890 -0.2417 -0.2906
  344POPI   PO4 5482   8.765  11.694  10.275 -0.2335 -0.1394  0.2609
  344POPI   GL1 5483   8.604  11.858   9.947  0.0302  0.1829 -0.0193
  344POPI   GL2 5484   8.348  11.860  10.005  0.1088 -0.1188 -0.0312
  344POPI   C1A 5485   8.699  11.878   9.549 -0.4072  0.0796  0.2639
  344POPI   D2A 5486   8.777  11.914   9.044  0.1725 -0.3460  0.1160
  344POPI   C3A 5487   8.748  11.730   8.667  0.1876 -0.0838  0.0964
  344POPI   C4A 5488   8.958  11.578   8.282  0.0156 -0.2773  0.0580
  344POPI   C1B 5489   8.203  11.840   9.538 -0.2405  0.1143  0.2600
  344POPI   C2B 5490   7.954  11.924   9.259 -0.3944  0.1269 -0.0654
  344POPI   C3B 5491   7.733  11.743   8.837 -0.0942  0.1794  0.4533
  344POPI   C4B 5492   7.495  11.527   8.617  0.0453  0.0925 -0.3064
  345POPI    C1 5493   9.941   8.219  10.243 -0.1571 -0.0354 -0.2968
  345POPI    C2 5494  10.035   8.605  10.288  0.0530 -0.1143 -0.0310
  345POPI    C3 5495   9.678   8.502  10.139  0.0350  0.1814 -0.2012
  345POPI   PO4 5496  10.199   8.117  10.347  0.0108  0.0319  0.0959
  345POPI   GL1 5497  10.565   8.326  10.134 -0.2067 -0.2204  0.1639
  345POPI   GL2 5498  10.823   8.365  10.161 -0.0612 -0.0718 -0.1937
  345POPI   C1A 5499  10.379   8.493   9.718  0.0282 -0.0484  0.2113
  345POPI   D2A 5500  10.168   8.210   9.342  0.2711  0.2718 -0.1014
  345POPI   C3A 5501  10.358   8.011   8.915 -0.1945  0.0489  0.1044
  345POPI   C4A 5502  10.701   7.854   8.963  0.2013  0.2301  0.4574
  345POPI   C1B 5503  10.810   8.133   9.738  0.0856  0.3639  0.1227
  345POPI   C2B 5504  10.697   8.316   9.291 -0.1227  0.2460 -0.2220
  345POPI   C3B 5505  10.949   8.423   8.895  0.1440 -0.2604  0.3276
  345POPI   C4B 5506  11.055   8.234   8.484  0.3694 -0.1456 -0.0580
  346POPI    C1 5507   4.853  16.212  10.952 -0.3216 -0.0065  0.0081
  346POPI    C2 5508   4.737  16.498  11.206  0.2826  0.2360  0.0281
  346POPI    C3 5509   5.011  16.229  11.319  0.3665  0.1877 -0.2802
  346POPI   PO4 5510   4.583  16.206  10.796  0.0333  0.2465  0.0776
  346POPI   GL1 5511   4.625  16.423  10.330 -0.2154  0.0435  0.1444
  346POPI   GL2 5512   4.605  16.770  10.201  0.1437 -0.0472 -0.0135
  346POPI   C1A 5513   4.314  16.373  10.155  0.2557 -0.1134 -0.1948
  346POPI   D2A 5514   3.924  16.542  10.099 -0.1050  0.0183  0.0667
  346POPI   C3A 5515   3.809  16.642   9.683  0.4398 -0.3155  0.0706
  346POPI   C4A 5516   3.973  16.751   9.319  0.0167  0.1020 -0.2463
  346POPI   C1B 5517   4.801  16.626   9.870 -0.1752  0.1703 -0.1373
  346POPI   C2B 5518   4.902  16.534   9.409 -0.0677 -0.0120  0.0583
  346POPI   C3B 5519   4.733  16.375   9.054  0.0442  0.1281 -0.0823
  346POPI   C4B 5520   4.523  16.409   8.604  0.0542  0.3283 -0.0230
  347POPI    C1 5521   6.297  10.787  10.050  0.0728  0.2137 -0.1047
  347POPI    C2 5522   6.338  10.941  10.417  0.0404  0.3278 -0.1485
  347POPI    C3 5523   6.155  10.589  10.367  0.1966  0.2297 -0.0384
  347POPI   PO4 5524   6.259  11.076   9.970 -0.2387  0.1613 -0.1488
  347POPI   GL1 5525   6.148  11.202   9.545  0.5877 -0.0934 -0.2576
  347POPI   GL2 5526   6.116  10.914   9.522  0.1821  0.2278 -0.3599
  347POPI   C1A 5527   6.045  11.344   9.142  0.6373 -0.1195  0.0223
  347POPI   D2A 5528   6.036  11.568   8.689 -0.1122  0.2261 -0.0196
  347POPI   C3A 5529   5.931  11.356   8.384  0.1783 -0.0514  0.1155
  347POPI   C4A 5530   5.524  11.372   8.052 -0.2874  0.1918 -0.2651
  347POPI   C1B 5531   5.906  10.812   9.091  0.0116  0.1412  0.1407
  347POPI   C2B 5532   5.700  10.394   8.817  0.0325  0.0491 -0.0591
  347POPI   C3B 5533   5.438  10.444   8.388 -0.2857  0.2247  0.2585
  347POPI   C4B 5534   5.211  10.299   8.039  0.1664 -0.0781 -0.0297
  348POPI    C1 5535  18.071  17.802  10.711  0.0335  0.0513  0.0690
  348POPI    C2 5536  18.360  17.818  10.987  0.1005 -0.2939  0.0237
  348POPI    C3 5537  17.978  17.775  11.100  0.1140 -0.3007  0.0675
  348POPI   PO4 5538  18.114  17.988  10.474  0.3207  0.2510  0.1496
  348POPI   GL1 5539  18.021  18.053  10.065  0.0266  0.0535 -0.2563
  348POPI   GL2 5540  18.192  18.373  10.118  0.2807  0.1820 -0.0477
  348POPI   C1A 5541  18.074  18.213   9.655 -0.2517 -0.0321 -0.0237
  348POPI   D2A 5542  18.050  18.438   9.172  0.0541 -0.2057 -0.2214
  348POPI   C3A 5543  18.136  18.264   8.802 -0.0512 -0.1401 -0.1083
  348POPI   C4A 5544  18.273  18.142   8.316  0.2749  0.1263  0.0808
  348POPI   C1B 5545  18.521  18.310   9.868  0.0461 -0.1361  0.4545
  348POPI   C2B 5546  18.581  18.313   9.462  0.1461  0.0787  0.0385
  348POPI   C3B 5547  18.612  18.277   9.072 -0.2590  0.3126  0.1803
  348POPI   C4B 5548  18.670  18.279   8.610  0.3824  0.1913  0.1067
  349POPI    C1 5549   2.807  14.019  10.583 -0.2616  0.1176 -0.0642
  349POPI    C2 5550   2.515  13.977  10.853 -0.0657  0.2218  0.1678
  349POPI    C3 5551   2.867  13.794  10.909 -0.1425 -0.0485 -0.1989
  349POPI   PO4 5552   2.760  14.273  10.453  0.2544 -0.1096  0.1026
  349POPI   GL1 5553   2.786  14.688  10.247 -0.0376 -0.0988  0.1066
  349POPI   GL2 5554   2.848  15.075  10.236  0.1080 -0.1068 -0.2889
  349POPI   C1A 5555   2.895  14.437   9.800 -0.4001 -0.2122  0.3792
  349POPI   D2A 5556   2.967  14.354   9.405 -0.1695  0.1858 -0.2060
  349POPI   C3A 5557   3.061  14.208   9.012  0.0534 -0.0366 -0.1490
  349POPI   C4A 5558   3.190  13.991   8.562  0.2300  0.0960 -0.0756
  349POPI   C1B 5559   2.880  15.020   9.796 -0.2748  0.0720 -0.1219
  349POPI   C2B 5560   2.723  14.801   9.438  0.0531 -0.3001  0.0821
  349POPI   C3B 5561   2.640  14.622   9.007 -0.0392 -0.1065 -0.0132
  349POPI   C4B 5562   2.761  14.494   8.595 -0.2346  0.1452 -0.1578
  350POPI    C1 5563  14.066   7.116  11.047  0.0696 -0.1215 -0.1541
  350POPI    C2 5564  13.845   6.798  11.149 -0.1956  0.0395 -0.2154
  350POPI    C3 5565  14.169   6.893  11.363 -0.3299 -0.0516  0.0321
  350POPI   PO4 5566  14.042   7.074  10.749  0.2328 -0.0743  0.3782
  350POPI   GL1 5567  13.795   6.908  10.387  0.4569 -0.0475  0.2460
  350POPI   GL2 5568  13.587   7.132  10.340 -0.3307 -0.1375 -0.1630
  350POPI   C1A 5569  13.964   6.958   9.924  0.2736  0.0675  0.0156
  350POPI   D2A 5570  13.947   6.926   9.499  0.0310  0.0777 -0.0229
  350POPI   C3A 5571  14.027   7.008   9.186  0.1369  0.0304  0.0510
  350POPI   C4A 5572  13.998   7.057   8.727 -0.0979  0.0660  0.2418
  350POPI   C1B 5573  13.853   7.386  10.139 -0.1462 -0.3012 -0.1068
  350POPI   C2B 5574  14.100   7.354   9.675  0.0583 -0.0410  0.0544
  350POPI   C3B 5575  13.938   7.557   9.345  0.2708  0.0212  0.3906
  350POPI   C4B 5576  13.866   7.548   8.966  0.0953 -0.0273  0.2190
  351POPI    C1 5577  10.689  15.409  11.102 -0.0411 -0.0863  0.2036
  351POPI    C2 5578  10.804  15.790  11.143 -0.1259 -0.0564  0.1645
  351POPI    C3 5579  10.918  15.517  11.412 -0.2137  0.0312  0.2918
  351POPI   PO4 5580  10.717  15.394  10.802 -0.1356  0.0880  0.1932
  351POPI   GL1 5581  10.438  15.386  10.396 -0.0050 -0.2368 -0.1388
  351POPI   GL2 5582  10.200  15.501  10.163  0.2517  0.0587 -0.2045
  351POPI   C1A 5583  10.701  15.419  10.026  0.1122  0.1597 -0.2008
  351POPI   D2A 5584  11.065  15.462   9.828 -0.2928 -0.0457  0.2097
  351POPI   C3A 5585  11.050  15.284   9.433 -0.3015  0.0049 -0.1889
  351POPI   C4A 5586  11.059  15.538   9.179  0.1340 -0.1113 -0.2411
  351POPI   C1B 5587  10.324  15.556   9.778 -0.2635 -0.1993  0.2680
  351POPI   C2B 5588  10.576  15.546   9.418  0.1369 -0.0202 -0.0017
  351POPI   C3B 5589  10.613  15.715   9.066  0.0570  0.2001  0.1333
  351POPI   C4B 5590  10.513  15.690   8.636 -0.0610 -0.1306 -0.1846
  352POPI    C1 5591   8.564  16.753  10.851  0.0449  0.0922 -0.0238
  352POPI    C2 5592   8.254  16.979  10.965  0.1817  0.3412 -0.1358
  352POPI    C3 5593   8.536  16.876  11.230 -0.0388  0.0397 -0.0131
  352POPI   PO4 5594   8.485  16.590  10.681  0.1423  0.3219 -0.1394
  352POPI   GL1 5595   8.252  16.404  10.385 -0.0326 -0.0716  0.4702
  352POPI   GL2 5596   8.586  16.175  10.415  0.1292  0.2452 -0.4269
  352POPI   C1A 5597   8.417  16.504  10.030  0.2078 -0.2019 -0.0677
  352POPI   D2A 5598   8.713  16.743   9.842  0.0238 -0.1713 -0.0152
  352POPI   C3A 5599   8.679  16.827   9.393 -0.2490  0.2617 -0.2477
  352POPI   C4A 5600   8.822  17.275   9.219 -0.0204 -0.0615 -0.1333
  352POPI   C1B 5601   8.776  16.187  10.026 -0.1192 -0.0467  0.0337
  352POPI   C2B 5602   8.716  16.329   9.582  0.2856 -0.0077  0.0651
  352POPI   C3B 5603   8.326  16.539   9.551 -0.1556  0.0834  0.0282
  352POPI   C4B 5604   8.164  16.818   9.759  0.1068  0.1189  0.0743
  353POPI    C1 5605   2.927   3.972  10.573 -0.0074 -0.0794  0.2090
  353POPI    C2 5606   3.142   4.282  10.707  0.0398 -0.0056 -0.0327
  353POPI    C3 5607   3.194   3.918  10.866  0.1602  0.0621  0.0844
  353POPI   PO4 5608   2.874   4.070  10.298 -0.0352  0.2081  0.2174
  353POPI   GL1 5609   2.998   4.091   9.928 -0.0223 -0.2154 -0.2160
  353POPI   GL2 5610   3.125   3.693   9.956 -0.2060 -0.3991  0.0419
  353POPI   C1A 5611   3.261   4.119   9.506  0.4099  0.1344  0.1275
  353POPI   D2A 5612   3.334   4.282   9.166  0.1165  0.0775 -0.0688
  353POPI   C3A 5613   3.747   4.288   8.960  0.1667  0.0710  0.1472
  353POPI   C4A 5614   3.606   4.199   8.567 -0.0049 -0.2217  0.2356
  353POPI   C1B 5615   3.237   3.597   9.603 -0.1064 -0.2662  0.1601
  353POPI   C2B 5616   3.437   3.456   9.195 -0.1522  0.1043  0.2411
  353POPI   C3B 5617   3.422   3.200   8.806  0.0354 -0.0205 -0.0088
  353POPI   C4B 5618   3.494   2.813   8.802 -0.5227 -0.1965 -0.0435
  354POPI    C1 5619  10.663   3.792  10.740 -0.0380 -0.3748  0.3618
  354POPI    C2 5620  10.276   3.891  10.769  0.0008 -0.0701 -0.0650
  354POPI    C3 5621  10.545   4.059  11.013 -0.1038 -0.1045  0.0750
  354POPI   PO4 5622  10.715   3.848  10.516 -0.3771 -0.0358 -0.1257
  354POPI   GL1 5623  10.728   4.009  10.160  0.2154 -0.1196  0.1440
  354POPI   GL2 5624  10.655   3.727   9.957  0.0506 -0.2326 -0.2858
  354POPI   C1A 5625  10.343   4.177   9.942 -0.2097 -0.0472 -0.0901
  354POPI   D2A 5626  10.073   4.358   9.608 -0.2708  0.2940 -0.0522
  354POPI   C3A 5627  10.049   4.235   9.216 -0.2446 -0.0174 -0.4118
  354POPI   C4A 5628   9.914   4.354   8.895  0.0211  0.0618 -0.2518
  354POPI   C1B 5629  10.466   3.870   9.495  0.3427 -0.3255 -0.3500
  354POPI   C2B 5630  10.461   3.950   9.164 -0.0244  0.0185 -0.1870
  354POPI   C3B 5631  10.474   3.877   8.810  0.0099  0.0009  0.3171
  354POPI   C4B 5632  10.413   3.858   8.328 -0.1921  0.1572  0.0522
  355POPI    C1 5633  17.305   4.479  10.622 -0.1295 -0.1208  0.0989
  355POPI    C2 5634  17.069   4.160  10.674 -0.0247 -0.2119  0.0226
  355POPI    C3 5635  17.198   4.368  10.991 -0.0995 -0.2406  0.0722
  355POPI   PO4 5636  17.233   4.722  10.528  0.0437 -0.2087 -0.0485
  355POPI   GL1 5637  16.821   4.740  10.268  0.1215 -0.1147  0.0785
  355POPI   GL2 5638  16.950   4.425  10.275  0.3399  0.0932  0.0043
  355POPI   C1A 5639  16.681   4.985   9.890  0.2482 -0.1874 -0.0471
  355POPI   D2A 5640  16.612   5.284   9.623  0.2003  0.0275  0.2171
  355POPI   C3A 5641  16.493   5.475   9.223  0.0231  0.1242 -0.0211
  355POPI   C4A 5642  16.216   5.482   9.055  0.1558  0.2354  0.0556
  355POPI   C1B 5643  16.639   4.327   9.944  0.3179 -0.0324 -0.0139
  355POPI   C2B 5644  16.433   4.226   9.581 -0.1480 -0.0948  0.0542
  355POPI   C3B 5645  16.475   4.163   9.150  0.1223 -0.0666  0.1852
  355POPI   C4B 5646  16.430   4.115   8.697  0.3132  0.2569 -0.2410
  356POPI    C1 5647  15.388  15.215  10.859 -0.0475  0.2033 -0.1068
  356POPI    C2 5648  15.070  15.428  10.972 -0.0274  0.1346  0.0835
  356POPI    C3 5649  15.203  15.130  11.203  0.1911  0.1800  0.0187
  356POPI   PO4 5650  15.281  15.040  10.657  0.0723  0.1116  0.0165
  356POPI   GL1 5651  15.065  14.994  10.333  0.1320  0.1223 -0.0216
  356POPI   GL2 5652  14.756  15.037  10.173 -0.1408  0.0248  0.0915
  356POPI   C1A 5653  15.224  15.108   9.952  0.2720 -0.2144  0.4327
  356POPI   D2A 5654  15.171  14.937   9.490  0.1671 -0.0356  0.0227
  356POPI   C3A 5655  15.246  15.002   9.098  0.0960  0.0950 -0.0734
  356POPI   C4A 5656  15.610  15.120   8.783  0.0476 -0.0655  0.2135
  356POPI   C1B 5657  14.632  14.809   9.808  0.0157 -0.2116 -0.1619
  356POPI   C2B 5658  14.737  14.975   9.318  0.1063 -0.0351  0.0881
  356POPI   C3B 5659  14.688  14.870   8.889  0.0112  0.0618  0.2435
  356POPI   C4B 5660  14.641  14.738   8.415  0.1112  0.0368  0.0212
  357POPI    C1 5661  15.392   6.206  11.249 -0.4066  0.0577 -0.0975
  357POPI    C2 5662  15.278   5.992  11.567  0.1888  0.0059  0.0924
  357POPI    C3 5663  15.331   6.387  11.601  0.1665  0.0139  0.0343
  357POPI   PO4 5664  15.161   6.123  10.934  0.0139  0.0289 -0.2620
  357POPI   GL1 5665  15.012   6.024  10.562 -0.1996 -0.2506 -0.0045
  357POPI   GL2 5666  15.320   6.085  10.446  0.0229  0.0106 -0.0886
  357POPI   C1A 5667  14.793   6.246  10.142  0.1162  0.5253 -0.1762
  357POPI   D2A 5668  14.668   6.476   9.804 -0.0155  0.1525 -0.1870
  357POPI   C3A 5669  14.856   6.360   9.507  0.0264  0.1338  0.0166
  357POPI   C4A 5670  14.945   6.092   9.184  0.0850 -0.0907 -0.3354
  357POPI   C1B 5671  15.343   6.221  10.079 -0.2877 -0.1370 -0.2909
  357POPI   C2B 5672  15.311   6.212   9.675 -0.2971 -0.0121 -0.0113
  357POPI   C3B 5673  15.478   6.261   9.331  0.0185 -0.0435  0.2186
  357POPI   C4B 5674  15.500   6.502   8.956 -0.1020  0.2143  0.0585
  358POPI    C1 5675   9.119  10.911  10.767 -0.1872 -0.2512  0.1354
  358POPI    C2 5676   9.121  11.299  10.864  0.2619 -0.2378  0.0908
  358POPI    C3 5677   8.787  11.084  10.909  0.0081  0.1514  0.1156
  358POPI   PO4 5678   9.356  11.000  10.541 -0.1581  0.1790 -0.1425
  358POPI   GL1 5679   9.471  10.963  10.170 -0.4131 -0.0721  0.2841
  358POPI   GL2 5680   9.537  11.294  10.026  0.1935  0.2037 -0.1323
  358POPI   C1A 5681   9.262  10.638   9.947  0.2079 -0.1826  0.0569
  358POPI   D2A 5682   9.211  10.286   9.866  0.1358 -0.1834 -0.3342
  358POPI   C3A 5683   9.278  10.027   9.586  0.4369  0.3036  0.0163
  358POPI   C4A 5684   9.570   9.836   9.549  0.4056  0.2405  0.0307
  358POPI   C1B 5685   9.349  11.099   9.663 -0.2417 -0.0395  0.2586
  358POPI   C2B 5686   9.374  11.105   9.115  0.4151 -0.3807  0.0063
  358POPI   C3B 5687   9.679  10.842   8.924 -0.0769 -0.0661 -0.3838
  358POPI   C4B 5688   9.811  10.588   8.613  0.0465  0.0419  0.1796
  359POPI    C1 5689   3.076   7.003  11.011 -0.0506 -0.0264  0.1500
  359POPI    C2 5690   3.190   6.855  11.364  0.3061 -0.0143  0.0436
  359POPI    C3 5691   3.358   7.190  11.224  0.2257 -0.0635 -0.1741
  359POPI   PO4 5692   3.157   6.798  10.841  0.5057 -0.0214  0.0177
  359POPI   GL1 5693   3.090   6.736  10.435  0.0357  0.2378 -0.1692
  359POPI   GL2 5694   3.298   6.460  10.240  0.1371  0.0464 -0.1064
  359POPI   C1A 5695   3.099   7.051  10.139  0.1507  0.1736 -0.0785
  359POPI   D2A 5696   2.885   7.463  10.142  0.0146  0.4906  0.0604
  359POPI   C3A 5697   2.580   7.469   9.867  0.4336 -0.1286 -0.0674
  359POPI   C4A 5698   2.645   7.598   9.524  0.2577  0.2279  0.0671
  359POPI   C1B 5699   3.357   6.318   9.888 -0.0045  0.0374 -0.2575
  359POPI   C2B 5700   3.280   6.252   9.487  0.1565  0.1780  0.0022
  359POPI   C3B 5701   3.344   6.387   9.126 -0.0346  0.2752  0.1903
  359POPI   C4B 5702   2.971   6.453   8.725 -0.0572  0.3714  0.0382
  360POPI    C1 5703  16.871  10.268  11.027 -0.0459  0.1893 -0.1168
  360POPI    C2 5704  16.632   9.987  11.181  0.3312  0.0446  0.2236
  360POPI    C3 5705  16.548  10.374  11.238 -0.1439  0.0102 -0.1756
  360POPI   PO4 5706  16.906  10.123  10.750 -0.1190  0.0069  0.0616
  360POPI   GL1 5707  17.229   9.853  10.428 -0.0126 -0.3236  0.0679
  360POPI   GL2 5708  16.953   9.768  10.367  0.1188  0.0511 -0.0923
  360POPI   C1A 5709  17.402   9.816  10.003 -0.3306  0.0381 -0.1310
  360POPI   D2A 5710  17.254   9.783   9.598 -0.1859  0.0638  0.5452
  360POPI   C3A 5711  17.105   9.645   9.230  0.1028 -0.0995  0.1332
  360POPI   C4A 5712  16.937   9.501   8.774 -0.1158 -0.0904 -0.0301
  360POPI   C1B 5713  16.806   9.800   9.976  0.1583  0.0704 -0.0161
  360POPI   C2B 5714  16.754   9.744   9.553 -0.1809  0.0116 -0.0289
  360POPI   C3B 5715  16.600   9.894   9.180 -0.0684 -0.0618 -0.2745
  360POPI   C4B 5716  16.209   9.713   8.941 -0.1786 -0.1322  0.0540
  361POPI    C1 5717   8.965   9.301  10.113 -0.2062 -0.0040  0.0936
  361POPI    C2 5718   8.690   9.372  10.395 -0.1262  0.0573  0.1566
  361POPI    C3 5719   8.981   9.638  10.328 -0.1276  0.0290  0.0364
  361POPI   PO4 5720   8.813   9.138   9.959  0.6750  0.3439  0.1515
  361POPI   GL1 5721   8.651   9.074   9.642 -0.3471 -0.1954 -0.1273
  361POPI   GL2 5722   8.496   8.823   9.610  0.1586 -0.1209 -0.0053
  361POPI   C1A 5723   8.762   9.197   9.304  0.3833 -0.0222  0.1586
  361POPI   D2A 5724   8.799   9.357   8.928  0.1025  0.0509 -0.2245
  361POPI   C3A 5725   9.032   9.083   8.693  0.0845 -0.3019 -0.2461
  361POPI   C4A 5726   8.831   9.032   8.308 -0.0078 -0.0532  0.2461
  361POPI   C1B 5727   8.605   8.735   9.120 -0.2321  0.0732 -0.7435
  361POPI   C2B 5728   8.592   8.744   8.684  0.2533  0.2102 -0.1470
  361POPI   C3B 5729   8.619   8.495   8.303 -0.2989  0.0463 -0.0663
  361POPI   C4B 5730   8.615   8.342   7.918  0.0693 -0.3065  0.1122
  362POPI    C1 5731   6.004   3.711  10.715 -0.3651  0.1789  0.0838
  362POPI    C2 5732   5.826   3.862  11.039  0.2661 -0.0491  0.5592
  362POPI    C3 5733   5.827   3.467  10.977 -0.0797  0.0099  0.1243
  362POPI   PO4 5734   5.861   3.768  10.472 -0.0047 -0.4025 -0.0829
  362POPI   GL1 5735   5.925   4.108  10.160  0.4758 -0.0775  0.3503
  362POPI   GL2 5736   5.687   3.839   9.995 -0.1457 -0.1045 -0.2684
  362POPI   C1A 5737   6.011   4.261   9.725  0.1249  0.2268 -0.2686
  362POPI   D2A 5738   5.845   4.320   9.344  0.0392 -0.0774  0.0661
  362POPI   C3A 5739   5.770   4.033   9.060  0.0328 -0.1282  0.1134
  362POPI   C4A 5740   5.449   3.876   8.899 -0.0620 -0.1298 -0.0247
  362POPI   C1B 5741   5.626   3.508   9.714  0.1802  0.1854 -0.0829
  362POPI   C2B 5742   5.610   3.468   9.265 -0.0048  0.3173 -0.0775
  362POPI   C3B 5743   5.786   3.513   8.733  0.2608  0.1289 -0.1628
  362POPI   C4B 5744   5.957   3.386   8.390 -0.1959 -0.2103  0.1586
  363POPI    C1 5745   6.438   4.284  10.525  0.2201 -0.1335  0.1155
  363POPI    C2 5746   6.078   4.229  10.690  0.0664  0.0127 -0.1640
  363POPI    C3 5747   6.332   4.494  10.849  0.0315 -0.0518  0.0023
  363POPI   PO4 5748   6.385   4.321  10.212 -0.1710  0.2260 -0.1813
  363POPI   GL1 5749   6.401   4.464   9.816  0.1855 -0.2052 -0.1985
  363POPI   GL2 5750   6.661   4.259   9.820  0.0482 -0.3341  0.0146
  363POPI   C1A 5751   6.406   4.443   9.432  0.0993 -0.2493  0.2230
  363POPI   D2A 5752   6.278   4.267   9.041 -0.1034 -0.0364 -0.0031
  363POPI   C3A 5753   6.396   4.274   8.622 -0.4628 -0.0707 -0.0289
  363POPI   C4A 5754   6.232   4.228   8.126  0.1843  0.1784 -0.0648
  363POPI   C1B 5755   6.681   4.014   9.407  0.0942  0.3587  0.1962
  363POPI   C2B 5756   6.711   4.007   9.019  0.2278 -0.0933 -0.0394
  363POPI   C3B 5757   6.867   4.040   8.617 -0.0285 -0.1649  0.0685
  363POPI   C4B 5758   6.723   4.046   8.273  0.2261  0.1462  0.1265
  364POPI    C1 5759   1.926  15.352  10.811  0.0906  0.1657  0.0840
  364POPI    C2 5760   1.713  15.597  11.044 -0.0722  0.1093 -0.0039
  364POPI    C3 5761   2.112  15.627  11.033 -0.0690  0.1628  0.2228
  364POPI   PO4 5762   1.888  15.290  10.631 -0.0167 -0.1038  0.0501
  364POPI   GL1 5763   1.785  15.375  10.190 -0.3147  0.0324 -0.0188
  364POPI   GL2 5764   1.979  15.602  10.265  0.2232 -0.2372 -0.1108
  364POPI   C1A 5765   1.727  15.141   9.797 -0.3170 -0.0556  0.0791
  364POPI   D2A 5766   1.830  15.316   9.486 -0.4554  0.1727 -0.0578
  364POPI   C3A 5767   1.802  15.202   9.060 -0.0420 -0.0007 -0.2814
  364POPI   C4A 5768   1.631  14.975   8.836 -0.1829  0.2984  0.3164
  364POPI   C1B 5769   2.108  15.661   9.830  0.3686  0.0879  0.0767
  364POPI   C2B 5770   2.214  15.676   9.440  0.3965  0.3470  0.1590
  364POPI   C3B 5771   2.221  15.509   9.004 -0.3527  0.0777  0.0187
  364POPI   C4B 5772   2.216  15.736   8.603  0.3421 -0.1670 -0.1149
  365POPI    C1 5773   8.136   9.421  10.555  0.3204  0.1313 -0.2453
  365POPI    C2 5774   8.448   9.481  10.798  0.1837 -0.0775 -0.0134
  365POPI    C3 5775   8.198   9.176  10.865 -0.1274  0.1447 -0.1383
  365POPI   PO4 5776   8.221   9.497  10.328  0.2030 -0.0124 -0.3745
  365POPI   GL1 5777   8.166   9.403   9.856 -0.2613 -0.2813  0.2581
  365POPI   GL2 5778   7.875   9.421   9.754 -0.0045  0.1749  0.3361
  365POPI   C1A 5779   8.489   9.621   9.512  0.0431 -0.2598 -0.0351
  365POPI   D2A 5780   8.448   9.615   9.133  0.2239  0.0397 -0.0600
  365POPI   C3A 5781   8.557   9.712   8.749 -0.0799  0.3635 -0.0347
  365POPI   C4A 5782   8.295   9.831   8.403  0.1736  0.1105 -0.0254
  365POPI   C1B 5783   7.992   9.653   9.388 -0.1709 -0.0258  0.2738
  365POPI   C2B 5784   8.024   9.764   8.938  0.0314  0.3717  0.1456
  365POPI   C3B 5785   7.817   9.702   8.465  0.0011  0.2550  0.1344
  365POPI   C4B 5786   7.949   9.357   8.157 -0.0630 -0.1261 -0.2127
  366POPI    C1 5787   5.546   9.058  10.474  0.0617  0.0485  0.0715
  366POPI    C2 5788   5.608   8.741  10.710 -0.1485 -0.2262 -0.2340
  366POPI    C3 5789   5.248   8.916  10.699 -0.0069  0.0912  0.0079
  366POPI   PO4 5790   5.593   9.007  10.136  0.0158 -0.0118  0.2714
  366POPI   GL1 5791   5.437   9.158   9.786  0.1418  0.2965  0.0070
  366POPI   GL2 5792   5.164   9.390   9.748  0.2489 -0.0565  0.2116
  366POPI   C1A 5793   5.611   8.957   9.494  0.1304  0.0889  0.0089
  366POPI   D2A 5794   5.577   8.908   9.043  0.1335  0.2849 -0.2341
  366POPI   C3A 5795   5.375   9.026   8.733 -0.2975  0.0749  0.4124
  366POPI   C4A 5796   5.278   8.847   8.345 -0.1143  0.1487 -0.0885
  366POPI   C1B 5797   5.176   9.162   9.352  0.1906 -0.0244 -0.0911
  366POPI   C2B 5798   4.819   9.232   8.883  0.0015 -0.1332  0.2906
  366POPI   C3B 5799   4.957   9.215   8.522 -0.1924  0.0783  0.0137
  366POPI   C4B 5800   5.136   9.383   8.157  0.2045 -0.1128 -0.0891
  367POPI    C1 5801   3.882  16.407  10.662  0.2043 -0.0614 -0.0428
  367POPI    C2 5802   3.931  16.788  10.772 -0.1211 -0.0141 -0.0505
  367POPI    C3 5803   4.232  16.590  10.599  0.0483  0.2403 -0.0538
  367POPI   PO4 5804   3.608  16.482  10.576 -0.0036  0.0855 -0.0761
  367POPI   GL1 5805   3.576  16.215  10.272 -0.3209 -0.2491 -0.0479
  367POPI   GL2 5806   3.922  15.968  10.360  0.2554 -0.0183  0.0898
  367POPI   C1A 5807   3.413  16.372   9.814 -0.0056 -0.3277  0.0533
  367POPI   D2A 5808   3.218  16.490   9.552  0.2120 -0.0990  0.1083
  367POPI   C3A 5809   3.073  16.483   9.033 -0.0311 -0.4085  0.1924
  367POPI   C4A 5810   3.159  16.648   8.671  0.1791  0.1190 -0.2290
  367POPI   C1B 5811   3.901  16.013   9.970  0.1677 -0.1923  0.0585
  367POPI   C2B 5812   4.027  15.955   9.593  0.2528  0.0877  0.3485
  367POPI   C3B 5813   4.011  15.774   9.303  0.0431 -0.1841 -0.3132
  367POPI   C4B 5814   3.820  16.037   8.951  0.0522  0.3469 -0.2827
  368POPI    C1 5815  11.125   3.661  10.249 -0.1516  0.3181  0.1793
  368POPI    C2 5816  11.491   3.731  10.395 -0.0783  0.0747  0.1179
  368POPI    C3 5817  11.186   3.659  10.644  0.0202 -0.2164  0.1575
  368POPI   PO4 5818  11.172   3.449  10.040 -0.2513  0.2368 -0.0556
  368POPI   GL1 5819  10.936   3.320   9.749 -0.1419  0.1273  0.2488
  368POPI   GL2 5820  10.954   3.073   9.654  0.1013  0.1006  0.2785
  368POPI   C1A 5821  10.839   3.571   9.347 -0.0917  0.0260 -0.1258
  368POPI   D2A 5822  10.913   3.620   8.959 -0.3639  0.2763  0.1091
  368POPI   C3A 5823  10.913   3.673   8.508  0.3531 -0.5241 -0.0968
  368POPI   C4A 5824  10.831   3.691   8.118 -0.1414 -0.2054 -0.1960
  368POPI   C1B 5825  11.025   3.142   9.210  0.0276 -0.1406 -0.1764
  368POPI   C2B 5826  11.187   3.249   8.776 -0.2945  0.1374  0.1785
  368POPI   C3B 5827  11.447   3.410   8.485 -0.2303 -0.1616 -0.1516
  368POPI   C4B 5828  11.314   3.661   8.147 -0.0439 -0.3551  0.1086
  369POPI    C1 5829   8.543   4.432  10.326 -0.0794  0.0849  0.1496
  369POPI    C2 5830   8.621   4.746  10.563  0.2843  0.2453 -0.1721
  369POPI    C3 5831   8.903   4.470  10.495 -0.0418 -0.1781  0.1329
  369POPI   PO4 5832   8.344   4.565  10.172  0.0949  0.0300 -0.1362
  369POPI   GL1 5833   8.374   4.784   9.786 -0.1718 -0.1789  0.0300
  369POPI   GL2 5834   8.112   4.757   9.740 -0.2093  0.1415  0.2261
  369POPI   C1A 5835   8.336   4.892   9.385 -0.0026 -0.0064 -0.0204
  369POPI   D2A 5836   8.166   4.905   8.982 -0.0396  0.2514  0.1533
  369POPI   C3A 5837   8.453   4.823   8.685  0.3533 -0.2887  0.1172
  369POPI   C4A 5838   8.710   4.636   8.416  0.0375 -0.1140  0.1720
  369POPI   C1B 5839   7.866   4.632   9.321  0.0106 -0.0514 -0.1828
  369POPI   C2B 5840   7.739   4.329   9.093 -0.2161 -0.1529 -0.1004
  369POPI   C3B 5841   7.845   4.481   8.710 -0.4489  0.2510  0.1249
  369POPI   C4B 5842   8.059   4.592   8.357  0.0646 -0.0869 -0.3169
  370POPI    C1 5843   2.932   8.166  10.571  0.0749 -0.2280 -0.0162
  370POPI    C2 5844   2.751   8.086  10.919  0.0522  0.0624  0.0413
  370POPI    C3 5845   3.144   8.025  10.879  0.0001 -0.2728  0.0151
  370POPI   PO4 5846   2.668   8.071  10.406  0.0627 -0.1418  0.5140
  370POPI   GL1 5847   2.476   7.953  10.047 -0.0149 -0.3322  0.1433
  370POPI   GL2 5848   2.201   8.192   9.973  0.1448 -0.3857  0.1922
  370POPI   C1A 5849   2.661   8.079   9.588  0.1342  0.0681 -0.0775
  370POPI   D2A 5850   2.622   8.054   9.174 -0.0567  0.4486  0.1518
  370POPI   C3A 5851   2.603   7.627   8.980 -0.1167 -0.2531 -0.0076
  370POPI   C4A 5852   2.835   7.322   9.054 -0.0080  0.1251 -0.1232
  370POPI   C1B 5853   2.224   8.286   9.570  0.0413  0.0775  0.0915
  370POPI   C2B 5854   2.208   8.353   9.232  0.3525 -0.3920 -0.0802
  370POPI   C3B 5855   2.316   8.442   8.948 -0.1678 -0.0690 -0.1938
  370POPI   C4B 5856   2.591   8.483   8.528  0.1450  0.1707 -0.1589
  371POPI    C1 5857   9.363   1.178  10.577 -0.1485 -0.0292 -0.2268
  371POPI    C2 5858   9.005   1.029  10.674 -0.1962  0.2323  0.0112
  371POPI    C3 5859   9.166   1.323  10.894  0.1410  0.1546 -0.1258
  371POPI   PO4 5860   9.484   0.947  10.463  0.1384 -0.0708 -0.0494
  371POPI   GL1 5861   9.561   0.800  10.038 -0.0605  0.0228 -0.3929
  371POPI   GL2 5862   9.258   0.844  10.033 -0.4235 -0.0807  0.2250
  371POPI   C1A 5863   9.656   0.685   9.638 -0.0152 -0.3824 -0.1494
  371POPI   D2A 5864   9.571   0.483   9.256  0.0328 -0.0132  0.0771
  371POPI   C3A 5865   9.789   0.386   8.828 -0.1249  0.2882 -0.1058
  371POPI   C4A 5866   9.786   0.436   8.449 -0.0812 -0.1174 -0.0485
  371POPI   C1B 5867   9.131   0.719   9.669  0.0207  0.0889 -0.1334
  371POPI   C2B 5868   9.115   0.629   9.328 -0.1093 -0.0069  0.0724
  371POPI   C3B 5869   9.202   0.715   8.975  0.2947  0.0885  0.2579
  371POPI   C4B 5870   9.338   0.639   8.551  0.2543  0.0347  0.2936
  372POPI    C1 5871  16.135   6.400  10.768 -0.0591 -0.1472 -0.1043
  372POPI    C2 5872  16.381   6.244  10.494  0.0650 -0.1924  0.0311
  372POPI    C3 5873  16.471   6.215  10.882 -0.0157  0.0344  0.0679
  372POPI   PO4 5874  16.029   6.591  10.602 -0.4123  0.1805  0.2079
  372POPI   GL1 5875  16.132   6.786  10.194 -0.0309  0.1010 -0.0505
  372POPI   GL2 5876  15.951   7.068  10.357  0.0094  0.0345  0.0845
  372POPI   C1A 5877  16.070   6.904   9.735 -0.0401 -0.1626 -0.1497
  372POPI   D2A 5878  16.117   6.926   9.364 -0.2011 -0.1955  0.1813
  372POPI   C3A 5879  16.350   6.966   8.940  0.1140  0.3723  0.4611
  372POPI   C4A 5880  16.479   7.069   8.555 -0.1426 -0.0399 -0.1584
  372POPI   C1B 5881  16.028   7.313  10.011 -0.0434  0.0797  0.2234
  372POPI   C2B 5882  16.037   7.410   9.550  0.1281 -0.0088  0.1542
  372POPI   C3B 5883  16.194   7.399   9.146  0.0317  0.4936  0.2278
  372POPI   C4B 5884  16.124   7.537   8.687 -0.1763 -0.0922 -0.1443
  373POPI    C1 5885   0.426   1.915  10.868  0.1966 -0.0549  0.2243
  373POPI    C2 5886   0.390   1.712  11.211 -0.1127 -0.1627  0.1321
  373POPI    C3 5887   0.102   1.966  11.098  0.0051 -0.0999 -0.0305
  373POPI   PO4 5888   0.651   1.750  10.726  0.0091 -0.1694  0.1669
  373POPI   GL1 5889   0.768   1.470  10.278  0.0381 -0.3781 -0.0288
  373POPI   GL2 5890   0.765   1.629  10.070  0.2918 -0.0858  0.1420
  373POPI   C1A 5891   1.193   1.336   9.996 -0.1431 -0.1310 -0.1429
  373POPI   D2A 5892   1.206   1.275   9.485  0.0242  0.1758  0.0750
  373POPI   C3A 5893   1.255   0.941   9.275  0.1572 -0.3503 -0.2096
  373POPI   C4A 5894   1.496   0.788   9.028 -0.2776  0.1511  0.0344
  373POPI   C1B 5895   1.060   1.789   9.741  0.1740  0.0159 -0.4285
  373POPI   C2B 5896   1.605   1.712   9.582  0.2627  0.3387 -0.0552
  373POPI   C3B 5897   1.638   1.644   9.296 -0.1972  0.2342  0.2034
  373POPI   C4B 5898   1.453   1.327   9.052  0.0574  0.1991  0.0584
  374POPI    C1 5899   5.620  17.604  10.904  0.0829 -0.0300 -0.1026
  374POPI    C2 5900   5.235  17.715  10.909 -0.0062 -0.3322 -0.0698
  374POPI    C3 5901   5.462  17.763  11.236  0.0129 -0.0603 -0.1212
  374POPI   PO4 5902   5.680  17.624  10.613  0.1928  0.3374 -0.0768
  374POPI   GL1 5903   5.583  17.605  10.137 -0.0065  0.1701  0.0495
  374POPI   GL2 5904   5.851  17.426  10.204  0.4780  0.0780  0.1864
  374POPI   C1A 5905   5.453  17.672   9.792  0.1692  0.0834  0.0784
  374POPI   D2A 5906   5.556  17.562   9.414  0.2057 -0.1965  0.2630
  374POPI   C3A 5907   5.295  17.289   9.085 -0.0594  0.0073  0.2024
  374POPI   C4A 5908   5.055  17.338   8.611  0.0966 -0.0832 -0.0174
  374POPI   C1B 5909   5.928  17.295   9.749  0.2434 -0.0988 -0.4952
  374POPI   C2B 5910   5.743  17.043   9.418 -0.1093  0.1936  0.1449
  374POPI   C3B 5911   5.568  16.854   9.051 -0.0373  0.4573  0.2187
  374POPI   C4B 5912   5.477  17.030   8.652  0.2253 -0.2311  0.0553
  375POPI    C1 5913   6.246  11.472  10.184  0.0635 -0.1670  0.0439
  375POPI    C2 5914   5.931  11.324  10.380  0.0180 -0.1330 -0.0033
  375POPI    C3 5915   6.235  11.485  10.584  0.0416 -0.2390  0.0457
  375POPI   PO4 5916   6.170  11.649   9.974 -0.0046 -0.0396 -0.1034
  375POPI   GL1 5917   6.438  11.588   9.629  0.1773 -0.0287  0.0151
  375POPI   GL2 5918   6.212  11.723   9.501 -0.2866  0.0340 -0.2566
  375POPI   C1A 5919   6.544  11.386   9.234 -0.0776  0.1282 -0.1956
  375POPI   D2A 5920   6.527  11.367   8.784 -0.3481  0.0834  0.0572
  375POPI   C3A 5921   6.140  11.062   8.736  0.2054  0.1384 -0.3088
  375POPI   C4A 5922   5.801  10.853   8.442 -0.0537 -0.2593 -0.1695
  375POPI   C1B 5923   6.106  11.930   9.079 -0.1456  0.1371 -0.2940
  375POPI   C2B 5924   6.049  12.061   8.611  0.0256 -0.1985  0.1411
  375POPI   C3B 5925   5.951  11.880   8.246  0.1404 -0.0271 -0.4532
  375POPI   C4B 5926   5.660  12.094   8.067  0.0524 -0.2147  0.0281
  376POPI    C1 5927   6.679  14.613  11.207  0.1171 -0.4061  0.3038
  376POPI    C2 5928   6.541  14.966  11.334  0.0373 -0.3070 -0.0475
  376POPI    C3 5929   6.857  14.799  11.513 -0.0660 -0.1703  0.2696
  376POPI   PO4 5930   6.650  14.641  10.939 -0.0634  0.1030 -0.1589
  376POPI   GL1 5931   6.817  14.772  10.626 -0.3914  0.3656  0.1322
  376POPI   GL2 5932   6.793  14.859  10.231  0.1296  0.3057  0.0919
  376POPI   C1A 5933   6.968  14.429  10.397  0.3926 -0.1121  0.1592
  376POPI   D2A 5934   7.139  14.535  10.008  0.0317  0.0770  0.0506
  376POPI   C3A 5935   7.055  14.309   9.664 -0.0903  0.1403  0.3080
  376POPI   C4A 5936   7.048  14.239   9.239 -0.0618  0.1147  0.2001
  376POPI   C1B 5937   6.732  14.929   9.853  0.2381 -0.0002 -0.2255
  376POPI   C2B 5938   6.793  14.985   9.441  0.3533 -0.0324  0.1600
  376POPI   C3B 5939   6.793  14.720   9.044  0.0357 -0.3220  0.1758
  376POPI   C4B 5940   6.820  14.456   8.604  0.4415 -0.0842  0.1499
  377POPI    C1 5941  10.139  11.196  10.699  0.0857 -0.0816 -0.4412
  377POPI    C2 5942   9.856  10.925  10.622 -0.0956 -0.0739  0.1485
  377POPI    C3 5943  10.134  10.850  10.900  0.0440  0.2171  0.0910
  377POPI   PO4 5944  10.257  11.289  10.519 -0.4035  0.0418 -0.2518
  377POPI   GL1 5945  10.302  11.547  10.156  0.0098  0.0474  0.3020
  377POPI   GL2 5946  10.588  11.680  10.152  0.1634 -0.0791  0.4319
  377POPI   C1A 5947  10.014  11.434   9.795  0.0000 -0.1289 -0.0165
  377POPI   D2A 5948  10.104  11.119   9.635  0.3054  0.0848  0.0044
  377POPI   C3A 5949  10.054  11.035   9.148 -0.2998 -0.3902 -0.0457
  377POPI   C4A 5950  10.165  10.669   9.049 -0.2536 -0.2046  0.2262
  377POPI   C1B 5951  10.569  11.494   9.703  0.1773 -0.0632 -0.0809
  377POPI   C2B 5952  10.440  11.344   9.243 -0.2301 -0.2167  0.1551
  377POPI   C3B 5953  10.328  11.361   8.832 -0.2593  0.2111 -0.2181
  377POPI   C4B 5954  10.546  11.717   8.463  0.1952  0.0851 -0.0580
  378POPI    C1 5955   1.590   6.089  11.068  0.0270 -0.0329 -0.2761
  378POPI    C2 5956   1.224   5.983  10.946 -0.0122 -0.0416 -0.1518
  378POPI    C3 5957   1.275   6.317  11.160  0.0393 -0.0894 -0.0885
  378POPI   PO4 5958   1.745   6.042  10.848  0.1416  0.2379  0.1909
  378POPI   GL1 5959   1.838   6.293  10.486  0.1246 -0.0383  0.1047
  378POPI   GL2 5960   1.833   6.666  10.490  0.3403 -0.0184 -0.0931
  378POPI   C1A 5961   1.825   6.382  10.054 -0.0403 -0.1611  0.0135
  378POPI   D2A 5962   1.756   6.727   9.767  0.4771 -0.2650  0.2591
  378POPI   C3A 5963   1.906   6.593   9.388 -0.0116 -0.0080  0.1899
  378POPI   C4A 5964   2.165   6.718   9.027  0.0708 -0.0880 -0.0128
  378POPI   C1B 5965   1.979   7.040  10.181 -0.0676  0.3160  0.0453
  378POPI   C2B 5966   2.170   7.102   9.820  0.1837 -0.1742  0.1589
  378POPI   C3B 5967   2.044   7.068   9.457  0.1130 -0.0599  0.0266
  378POPI   C4B 5968   1.810   7.101   9.105  0.1410  0.1007 -0.0597
  379POPI    C1 5969   2.246  17.633  11.238 -0.4291 -0.3602 -0.0516
  379POPI    C2 5970   1.910  17.849  11.258 -0.2547 -0.0859 -0.0463
  379POPI    C3 5971   2.263  18.021  11.332 -0.0900 -0.3173 -0.2770
  379POPI   PO4 5972   2.188  17.402  11.052  0.1216 -0.1767 -0.1063
  379POPI   GL1 5973   2.075  17.480  10.530  0.4596  0.0821  0.0403
  379POPI   GL2 5974   1.713  17.461  10.417 -0.2098 -0.0609 -0.1294
  379POPI   C1A 5975   2.113  17.689  10.126  0.3662 -0.1830  0.0759
  379POPI   D2A 5976   2.155  17.808   9.697 -0.0863 -0.0074 -0.1044
  379POPI   C3A 5977   1.961  17.668   9.286  0.0815 -0.0632  0.0247
  379POPI   C4A 5978   2.035  17.727   8.818 -0.1195  0.2123 -0.0064
  379POPI   C1B 5979   1.698  17.396  10.019  0.2934 -0.3942 -0.1164
  379POPI   C2B 5980   1.574  17.396   9.629 -0.2265 -0.0448 -0.2010
  379POPI   C3B 5981   1.398  17.268   9.305  0.2934 -0.1205 -0.1371
  379POPI   C4B 5982   1.096  17.069   8.988  0.0843 -0.0782 -0.0713
  380POPI    C1 5983   6.373  12.827  10.456 -0.2435 -0.2050  0.2098
  380POPI    C2 5984   6.742  12.673  10.478 -0.1428 -0.0254 -0.1374
  380POPI    C3 5985   6.569  12.825  10.805  0.1289 -0.0237  0.0084
  380POPI   PO4 5986   6.374  13.002  10.279 -0.0648  0.0425  0.2943
  380POPI   GL1 5987   6.711  12.978  10.037 -0.1648  0.0325 -0.1917
  380POPI   GL2 5988   6.499  13.208   9.879  0.1088  0.0360 -0.0959
  380POPI   C1A 5989   6.945  12.930   9.725  0.0003 -0.0255  0.0136
  380POPI   D2A 5990   7.370  13.100   9.619  0.2843 -0.2043  0.1432
  380POPI   C3A 5991   7.370  13.107   9.172 -0.0092  0.0090  0.1393
  380POPI   C4A 5992   7.313  13.049   8.775  0.1327 -0.1572  0.1209
  380POPI   C1B 5993   6.526  13.157   9.467 -0.3450 -0.0007  0.0463
  380POPI   C2B 5994   6.815  12.973   9.166 -0.2108  0.1269 -0.0523
  380POPI   C3B 5995   6.792  12.904   8.746 -0.1679  0.0615  0.0711
  380POPI   C4B 5996   7.028  12.921   8.414  0.0490 -0.0125  0.0263
  381POPI    C1 5997   0.481   7.282  11.057  0.1632 -0.2273  0.0294
  381POPI    C2 5998   0.752   7.146  11.318 -0.0297 -0.3181  0.1852
  381POPI    C3 5999   0.367   7.166  11.423 -0.0593 -0.0156  0.0290
  381POPI   PO4 6000   0.568   7.619  10.943  0.1689  0.2330 -0.2022
  381POPI   GL1 6001   0.277   7.659  10.602  0.3879 -0.1109 -0.3099
  381POPI   GL2 6002   0.092   7.937  10.660  0.0685  0.0695 -0.2588
  381POPI   C1A 6003   0.458   7.916  10.260 -0.0894 -0.0040 -0.0647
  381POPI   D2A 6004   0.623   7.876   9.806 -0.2021  0.1638 -0.0050
  381POPI   C3A 6005   0.616   8.201   9.439 -0.2508  0.0313  0.0459
  381POPI   C4A 6006   0.456   8.339   9.007  0.1164  0.1107  0.4147
  381POPI   C1B 6007  -0.035   8.048  10.257  0.1534  0.0579 -0.5094
  381POPI   C2B 6008  -0.279   8.017   9.874 -0.1230  0.2260  0.2713
  381POPI   C3B 6009  -0.315   7.847   9.433 -0.0942 -0.0889 -0.1853
  381POPI   C4B 6010  -0.300   7.906   9.077 -0.2289 -0.3004  0.1676
  382POPI    C1 6011   8.658   1.992  10.520  0.0087  0.0842  0.1092
  382POPI    C2 6012   8.836   2.150  10.841  0.1686  0.1406 -0.0057
  382POPI    C3 6013   8.463   2.258  10.746  0.1881  0.2641  0.0556
  382POPI   PO4 6014   8.905   1.951  10.343  0.3581 -0.2951 -0.2446
  382POPI   GL1 6015   8.813   1.721  10.065 -0.3195  0.2777 -0.0097
  382POPI   GL2 6016   8.513   1.667  10.119 -0.2597 -0.1432  0.0889
  382POPI   C1A 6017   8.869   1.764   9.663  0.0929  0.0354  0.3675
  382POPI   D2A 6018   8.786   1.992   9.260 -0.1250 -0.0178 -0.0448
  382POPI   C3A 6019   8.944   1.883   8.864 -0.0103 -0.2363  0.0709
  382POPI   C4A 6020   9.109   1.994   8.607  0.0216 -0.0922 -0.1528
  382POPI   C1B 6021   8.410   1.835   9.755  0.0792 -0.1140  0.0916
  382POPI   C2B 6022   8.242   1.984   9.364 -0.3207  0.1207 -0.2316
  382POPI   C3B 6023   8.386   1.737   9.081  0.1057  0.1024  0.0808
  382POPI   C4B 6024   8.317   1.317   9.007 -0.0234  0.4000 -0.2567
  383POPI    C1 6025  10.685  13.450  11.078 -0.0849  0.0274 -0.0881
  383POPI    C2 6026  11.023  13.295  11.225 -0.0906  0.2398  0.1564
  383POPI    C3 6027  10.746  13.055  11.066  0.1370  0.0562  0.0303
  383POPI   PO4 6028  10.802  13.640  10.864 -0.4604 -0.0223  0.1567
  383POPI   GL1 6029  10.752  13.555  10.361 -0.1099  0.1390 -0.0213
  383POPI   GL2 6030  10.414  13.617  10.302  0.2112  0.2395  0.2265
  383POPI   C1A 6031  10.984  13.504   9.994  0.3417  0.0114 -0.1155
  383POPI   D2A 6032  11.070  13.750   9.633  0.0025 -0.1356 -0.0121
  383POPI   C3A 6033  11.015  14.170   9.693 -0.1108  0.0004  0.0795
  383POPI   C4A 6034  10.948  14.499  10.028  0.0305  0.2763 -0.0661
  383POPI   C1B 6035  10.017  13.363  10.098  0.2615  0.3911  0.2012
  383POPI   C2B 6036   9.888  13.242   9.606 -0.2181 -0.1273  0.2691
  383POPI   C3B 6037   9.656  13.169   9.197  0.2909  0.1247 -0.1084
  383POPI   C4B 6038   9.304  13.219   8.913 -0.2037  0.1865  0.1661
  384POPI    C1 6039   7.696  16.331  10.583  0.1267 -0.1544 -0.0467
  384POPI    C2 6040   7.762  16.385  10.973 -0.4619 -0.0666  0.0485
  384POPI    C3 6041   7.950  16.614  10.705  0.1358 -0.2913  0.2605
  384POPI   PO4 6042   7.585  16.059  10.626 -0.0906  0.0102 -0.1383
  384POPI   GL1 6043   7.440  15.714  10.230 -0.2429 -0.0009  0.1257
  384POPI   GL2 6044   7.626  15.595  10.287  0.4237  0.0638  0.0414
  384POPI   C1A 6045   7.327  15.550   9.873  0.2133 -0.1311  0.1371
  384POPI   D2A 6046   7.465  15.748   9.482 -0.1401 -0.0082 -0.1257
  384POPI   C3A 6047   7.451  15.640   9.019  0.0131 -0.1535  0.0936
  384POPI   C4A 6048   7.723  15.514   8.581  0.2472  0.2314 -0.2546
  384POPI   C1B 6049   7.843  15.644   9.802 -0.0182  0.0606 -0.0321
  384POPI   C2B 6050   7.909  15.538   9.381 -0.3501 -0.1518 -0.0807
  384POPI   C3B 6051   7.969  15.693   9.059 -0.0701  0.2827  0.0076
  384POPI   C4B 6052   8.202  15.447   8.707  0.1590  0.1624 -0.0339
  385POPI    C1 6053  11.464  16.031  10.589  0.1276 -0.0420  0.1523
  385POPI    C2 6054  11.134  15.990  10.813 -0.0550 -0.0944 -0.1214
  385POPI    C3 6055  11.351  16.326  10.835 -0.3158  0.0816 -0.1855
  385POPI   PO4 6056  11.491  15.757  10.480 -0.4487  0.0342 -0.1194
  385POPI   GL1 6057  11.554  15.478  10.111  0.2433  0.0846 -0.1274
  385POPI   GL2 6058  11.839  15.301  10.138 -0.1170  0.0893 -0.0150
  385POPI   C1A 6059  11.426  15.869   9.794  0.0451 -0.0545  0.0754
  385POPI   D2A 6060  11.527  15.991   9.315 -0.0081 -0.1663  0.0719
  385POPI   C3A 6061  11.318  15.876   8.913 -0.2386 -0.0957 -0.0673
  385POPI   C4A 6062  11.313  16.079   8.544  0.0262 -0.2479  0.1845
  385POPI   C1B 6063  11.548  15.346   9.677 -0.1502 -0.1141  0.0740
  385POPI   C2B 6064  11.518  15.381   9.222  0.2316 -0.1906  0.3028
  385POPI   C3B 6065  11.417  15.436   8.753  0.1269  0.2647 -0.0911
  385POPI   C4B 6066  11.125  15.578   8.535  0.5240 -0.1197 -0.0729
  386POPI    C1 6067   1.397   0.977  10.985  0.0793  0.2872  0.1669
  386POPI    C2 6068   1.155   1.051  11.295  0.0456  0.1655  0.1702
  386POPI    C3 6069   1.011   0.875  10.966  0.0844  0.2821  0.0903
  386POPI   PO4 6070   1.502   1.164  10.906 -0.1084  0.0574  0.1517
  386POPI   GL1 6071   1.883   1.304  10.672 -0.0915 -0.1359  0.0243
  386POPI   GL2 6072   1.645   1.160  10.387  0.0520  0.2866 -0.2618
  386POPI   C1A 6073   2.156   1.016  10.633 -0.0296  0.0181 -0.2250
  386POPI   D2A 6074   2.291   0.628  10.554 -0.0819  0.0589 -0.3377
  386POPI   C3A 6075   2.004   0.443  10.286 -0.2932  0.1846  0.1271
  386POPI   C4A 6076   1.979   0.013  10.270  0.1728 -0.2867 -0.0483
  386POPI   C1B 6077   1.581   0.807  10.129 -0.0892 -0.0081  0.0083
  386POPI   C2B 6078   1.763   0.623   9.739  0.2646  0.1749 -0.0074
  386POPI   C3B 6079   1.869   0.550   9.291  0.1615 -0.0219  0.1167
  386POPI   C4B 6080   2.125   0.559   8.922  0.2788  0.0268 -0.2506
  387POPI    C1 6081   5.330  16.708  11.082  0.1427  0.3670  0.0379
  387POPI    C2 6082   5.630  16.792  10.831 -0.0714  0.3553 -0.2256
  387POPI    C3 6083   5.690  16.542  11.137  0.2138  0.4319 -0.2166
  387POPI   PO4 6084   5.090  16.788  10.909 -0.0388  0.3656 -0.0971
  387POPI   GL1 6085   5.063  16.622  10.475 -0.2852  0.1981 -0.1191
  387POPI   GL2 6086   5.008  16.926  10.395  0.1016  0.0294 -0.1602
  387POPI   C1A 6087   5.226  16.551  10.107 -0.0907 -0.1430  0.0343
  387POPI   D2A 6088   5.294  16.533   9.759  0.2351  0.1907 -0.2182
  387POPI   C3A 6089   5.431  16.475   9.428 -0.1494  0.2251  0.2114
  387POPI   C4A 6090   5.325  16.394   8.984 -0.2286  0.0432 -0.2728
  387POPI   C1B 6091   4.964  17.094   9.938 -0.0048 -0.0775  0.0006
  387POPI   C2B 6092   4.796  17.038   9.572  0.1868  0.2157 -0.1112
  387POPI   C3B 6093   4.772  17.170   9.175  0.1577 -0.1563 -0.2521
  387POPI   C4B 6094   4.548  17.451   8.810  0.0050 -0.2325  0.1667
  388POPI    C1 6095   7.270  17.433  10.502 -0.0644  0.1054  0.0148
  388POPI    C2 6096   7.571  17.618  10.690 -0.0206  0.1248 -0.0742
  388POPI    C3 6097   7.299  17.832  10.489 -0.0996  0.1080  0.0142
  388POPI   PO4 6098   7.417  17.233  10.381 -0.0740  0.2164 -0.0576
  388POPI   GL1 6099   7.260  16.800  10.176  0.0414 -0.3106  0.2976
  388POPI   GL2 6100   7.285  16.523  10.278  0.0403  0.1517 -0.0142
  388POPI   C1A 6101   7.364  16.707   9.767  0.1715  0.2452 -0.3622
  388POPI   D2A 6102   7.723  16.814   9.540  0.1306 -0.2108  0.1995
  388POPI   C3A 6103   7.909  16.545   9.208  0.0408 -0.0989  0.0607
  388POPI   C4A 6104   8.199  16.526   8.818 -0.0932  0.0022  0.2100
  388POPI   C1B 6105   7.299  16.239   9.939 -0.4812 -0.1385 -0.1135
  388POPI   C2B 6106   7.299  16.192   9.533  0.0832 -0.0846  0.0292
  388POPI   C3B 6107   7.404  16.481   9.274 -0.0201 -0.0804  0.1727
  388POPI   C4B 6108   7.327  17.007   9.190 -0.1961  0.6185  0.2141
  389POPI    C1 6109  11.810  10.006  10.750 -0.0586  0.0651  0.0396
  389POPI    C2 6110  12.070   9.710  10.817 -0.0140  0.0864 -0.0387
  389POPI    C3 6111  11.917   9.915  11.125  0.1021  0.1089  0.0048
  389POPI   PO4 6112  11.822  10.107  10.490  0.1110 -0.2177 -0.0449
  389POPI   GL1 6113  11.774  10.034  10.038 -0.0837 -0.0519 -0.2142
  389POPI   GL2 6114  11.447  10.099  10.073  0.3062  0.0005  0.3867
  389POPI   C1A 6115  11.978  10.007   9.568 -0.1148  0.0622 -0.2134
  389POPI   D2A 6116  11.975   9.996   9.184 -0.1473  0.0092  0.0602
  389POPI   C3A 6117  12.031   9.792   8.802 -0.0086  0.4894  0.0637
  389POPI   C4A 6118  12.428   9.540   8.565  0.3744 -0.4063  0.2742
  389POPI   C1B 6119  11.091  10.138   9.905  0.2114  0.0430  0.1920
  389POPI   C2B 6120  10.824  10.413   9.735  0.0787  0.0113 -0.3613
  389POPI   C3B 6121  10.472  10.326   9.631 -0.0206 -0.3840  0.0654
  389POPI   C4B 6122  10.128  10.503   9.537  0.4998 -0.0506  0.0253
  390POPI    C1 6123   8.767  10.133  10.336  0.0156  0.1606 -0.0768
  390POPI    C2 6124   8.543   9.835  10.481 -0.0055  0.1390 -0.1536
  390POPI    C3 6125   8.438  10.215  10.548  0.0091  0.1292 -0.0750
  390POPI   PO4 6126   8.856  10.069  10.105 -0.0706  0.2698  0.1960
  390POPI   GL1 6127   8.647  10.151   9.780 -0.4940 -0.0333 -0.0919
  390POPI   GL2 6128   8.706  10.401   9.712  0.0243  0.1566  0.3852
  390POPI   C1A 6129   8.794   9.976   9.392  0.2693  0.0132 -0.2021
  390POPI   D2A 6130   8.738  10.063   9.035 -0.1585  0.1228 -0.2254
  390POPI   C3A 6131   8.964   9.951   8.746 -0.0816 -0.0108  0.1348
  390POPI   C4A 6132   9.221   9.949   8.346  0.1655  0.0503  0.0179
  390POPI   C1B 6133   8.562  10.484   9.318 -0.1433 -0.0533 -0.2052
  390POPI   C2B 6134   8.691  10.586   8.949  0.1073 -0.0485 -0.1885
  390POPI   C3B 6135   8.988  10.434   8.618 -0.0088 -0.0778  0.2649
  390POPI   C4B 6136   9.362  10.406   8.691  0.3809 -0.1498  0.0141
  391POPI    C1 6137   2.336   4.916  10.590 -0.3963  0.0638  0.0155
  391POPI    C2 6138   2.267   4.553  10.745 -0.3314 -0.0495 -0.2173
  391POPI    C3 6139   2.276   4.874  10.984 -0.2064 -0.2242  0.0167
  391POPI   PO4 6140   2.342   4.812  10.267 -0.6474 -0.1266 -0.0823
  391POPI   GL1 6141   2.318   4.979   9.842 -0.2710  0.0396 -0.3471
  391POPI   GL2 6142   2.133   4.770   9.810  0.0099  0.1871 -0.0979
  391POPI   C1A 6143   2.412   5.256   9.595 -0.1950  0.1282 -0.1126
  391POPI   D2A 6144   2.560   5.289   9.214 -0.3614 -0.1414  0.0577
  391POPI   C3A 6145   2.816   5.187   8.875 -0.3233 -0.2452  0.2958
  391POPI   C4A 6146   2.979   5.090   8.414 -0.1755 -0.0571 -0.2023
  391POPI   C1B 6147   2.267   4.712   9.434  0.2295  0.1016 -0.0037
  391POPI   C2B 6148   2.217   4.478   9.053 -0.1288 -0.1152 -0.3177
  391POPI   C3B 6149   2.381   4.210   8.685 -0.1819  0.0065  0.3850
  391POPI   C4B 6150   2.651   4.166   8.297  0.4404  0.0030  0.0114
  392POPI    C1 6151  14.264  17.662  10.747 -0.1068  0.0640 -0.0383
  392POPI    C2 6152  13.989  17.398  10.867 -0.2428  0.0580 -0.3516
  392POPI    C3 6153  13.961  17.781  10.979 -0.1187 -0.0301 -0.0054
  392POPI   PO4 6154  14.340  17.568  10.544 -0.0723 -0.2630 -0.4184
  392POPI   GL1 6155  14.357  17.712  10.125 -0.0370  0.3435  0.0075
  392POPI   GL2 6156  14.068  17.645  10.138  0.0100 -0.2165  0.1432
  392POPI   C1A 6157  14.397  17.445   9.747  0.0496 -0.6693  0.0532
  392POPI   D2A 6158  14.336  17.180   9.367  0.0262  0.2269  0.0144
  392POPI   C3A 6159  14.607  17.336   9.072  0.1175  0.0604  0.3131
  392POPI   C4A 6160  14.621  17.080   8.725 -0.2663 -0.1184 -0.3126
  392POPI   C1B 6161  13.871  17.496   9.744  0.1321  0.2667 -0.0228
  392POPI   C2B 6162  13.455  17.317   9.534  0.3632  0.1371 -0.2566
  392POPI   C3B 6163  13.220  16.999   9.272  0.3114 -0.0058 -0.2359
  392POPI   C4B 6164  13.164  16.829   8.845  0.2864 -0.0853  0.1016
  393POPI    C1 6165   3.410  12.454  11.031 -0.0697 -0.0533  0.0163
  393POPI    C2 6166   3.651  12.507  11.347  0.0486 -0.2326 -0.0424
  393POPI    C3 6167   3.265  12.419  11.402 -0.0172  0.1025  0.0526
  393POPI   PO4 6168   3.560  12.414  10.823  0.0680 -0.1417 -0.3847
  393POPI   GL1 6169   3.602  12.350  10.407  0.2023 -0.0012  0.1287
  393POPI   GL2 6170   3.212  12.263  10.370 -0.0284 -0.0904  0.0384
  393POPI   C1A 6171   3.733  12.204  10.048  0.4898 -0.2230  0.0960
  393POPI   D2A 6172   3.517  12.081   9.716  0.1509  0.2516 -0.0694
  393POPI   C3A 6173   3.459  12.311   9.411 -0.3429 -0.0728 -0.3373
  393POPI   C4A 6174   3.613  12.307   9.058  0.2086  0.0597  0.5227
  393POPI   C1B 6175   3.066  12.187   9.861  0.1140 -0.1135 -0.1708
  393POPI   C2B 6176   2.914  12.055   9.468  0.0884 -0.4252 -0.1047
  393POPI   C3B 6177   3.174  12.135   9.073 -0.0864  0.1570  0.0616
  393POPI   C4B 6178   3.103  12.279   8.730 -0.0341  0.0041 -0.3443
  394POPI    C1 6179   2.998   2.170  11.151  0.1682  0.1716  0.0535
  394POPI    C2 6180   3.098   1.811  11.297  0.0755  0.1369  0.0320
  394POPI    C3 6181   3.377   2.096  11.257  0.1839  0.0124 -0.1102
  394POPI   PO4 6182   2.802   2.131  10.951  0.2451 -0.0304  0.1405
  394POPI   GL1 6183   2.582   1.798  10.696  0.2348  0.3041 -0.0417
  394POPI   GL2 6184   2.706   1.957  10.510 -0.2270 -0.1146  0.3428
  394POPI   C1A 6185   2.515   1.482  10.453  0.1918 -0.1091 -0.0603
  394POPI   D2A 6186   2.139   1.243  10.207  0.1639  0.3088  0.0999
  394POPI   C3A 6187   2.095   0.878  10.010 -0.2812  0.0999  0.0340
  394POPI   C4A 6188   2.224   0.962   9.450  0.2493  0.3624 -0.0857
  394POPI   C1B 6189   2.835   1.809  10.138 -0.0621 -0.0896  0.3721
  394POPI   C2B 6190   2.997   1.341   9.896  0.2468  0.1115  0.1949
  394POPI   C3B 6191   2.908   1.073   9.545  0.1611 -0.4003  0.0321
  394POPI   C4B 6192   2.722   0.746   9.619  0.2969 -0.2540  0.0257
  395POPI    C1 6193   6.947   3.394  10.828 -0.0735  0.1093 -0.0171
  395POPI    C2 6194   6.715   3.081  10.735  0.0576  0.0150 -0.0291
  395POPI    C3 6195   6.829   3.140  11.114 -0.0114  0.0794 -0.0180
  395POPI   PO4 6196   6.936   3.528  10.507 -0.0446  0.1098  0.0356
  395POPI   GL1 6197   6.672   3.516  10.117 -0.0370  0.0713 -0.0760
  395POPI   GL2 6198   6.793   3.733   9.922  0.0952 -0.0263 -0.0455
  395POPI   C1A 6199   6.380   3.333   9.799 -0.0915 -0.3750  0.0194
  395POPI   D2A 6200   6.345   2.926   9.598 -0.1273  0.2211 -0.0227
  395POPI   C3A 6201   6.147   2.780   9.326  0.0157  0.1286 -0.0496
  395POPI   C4A 6202   6.169   2.593   8.904  0.2410  0.2966  0.3140
  395POPI   C1B 6203   6.677   3.538   9.416  0.1023  0.1649 -0.1800
  395POPI   C2B 6204   6.666   3.519   8.950 -0.0447  0.1550  0.3247
  395POPI   C3B 6205   6.447   3.324   8.686 -0.0893  0.0599  0.0911
  395POPI   C4B 6206   6.321   2.878   8.488  0.1200  0.3063 -0.2947
  396POPI    C1 6207  10.286  14.637  11.064 -0.0248  0.1655  0.0935
  396POPI    C2 6208  10.605  14.569  11.295  0.2142  0.2249 -0.2124
  396POPI    C3 6209  10.396  14.907  11.338  0.2031  0.1958 -0.0259
  396POPI   PO4 6210  10.420  14.563  10.763  0.0771  0.0777 -0.0656
  396POPI   GL1 6211  10.302  14.794  10.411 -0.0622  0.0626  0.1048
  396POPI   GL2 6212  10.141  14.626  10.299  0.1243  0.0729  0.2301
  396POPI   C1A 6213  10.472  14.960  10.048  0.0627  0.0582  0.0016
  396POPI   D2A 6214  10.477  15.070   9.635  0.1325  0.2497  0.1260
  396POPI   C3A 6215  10.564  14.884   9.268 -0.2288  0.0818  0.1372
  396POPI   C4A 6216  10.735  15.237   9.000 -0.0921  0.0714 -0.1943
  396POPI   C1B 6217  10.076  14.717   9.832 -0.0887  0.3080 -0.1356
  396POPI   C2B 6218  10.031  14.735   9.423 -0.0259  0.0275  0.3799
  396POPI   C3B 6219  10.063  14.518   9.054  0.0293  0.1333 -0.1681
  396POPI   C4B 6220  10.128  14.304   8.633  0.2847  0.1356  0.0328
  397POPI    C1 6221  13.412  14.025  10.885 -0.0731  0.1369 -0.0360
  397POPI    C2 6222  13.441  14.404  11.009 -0.0670  0.1508 -0.0797
  397POPI    C3 6223  13.140  14.175  11.137  0.0246  0.1187  0.0813
  397POPI   PO4 6224  13.438  14.086  10.605  0.1320  0.1120  0.2060
  397POPI   GL1 6225  13.297  14.169  10.148 -0.1129 -0.2524 -0.1360
  397POPI   GL2 6226  13.598  14.365  10.151 -0.3755 -0.0551  0.0729
  397POPI   C1A 6227  13.298  14.088   9.724 -0.1375 -0.1326  0.0805
  397POPI   D2A 6228  13.350  14.028   9.353 -0.1371 -0.1704 -0.1255
  397POPI   C3A 6229  13.154  13.847   8.965 -0.1155 -0.2351  0.1120
  397POPI   C4A 6230  13.375  13.660   8.545 -0.1325  0.1780 -0.0573
  397POPI   C1B 6231  13.608  14.485   9.815  0.1809  0.0441 -0.0534
  397POPI   C2B 6232  13.368  14.538   9.423 -0.2253  0.5009  0.0024
  397POPI   C3B 6233  13.383  14.557   9.087  0.2032 -0.2651 -0.1944
  397POPI   C4B 6234  13.215  14.441   8.612  0.2161  0.4608  0.0020
  398POPI    C1 6235   3.121   4.774  10.716  0.2133 -0.0303 -0.0838
  398POPI    C2 6236   2.749   4.766  10.863  0.1410  0.0734 -0.2578
  398POPI    C3 6237   3.054   4.629  11.083  0.0036  0.0084 -0.1056
  398POPI   PO4 6238   3.013   4.956  10.445  0.1641 -0.0585  0.1525
  398POPI   GL1 6239   3.131   5.248  10.117 -0.1413 -0.1638  0.3571
  398POPI   GL2 6240   3.338   5.589  10.077 -0.0188  0.1618  0.0270
  398POPI   C1A 6241   3.122   5.221   9.703 -0.2362 -0.0578  0.0290
  398POPI   D2A 6242   3.135   5.070   9.340  0.1796  0.0841  0.1294
  398POPI   C3A 6243   3.354   5.156   8.931 -0.0786 -0.3072  0.1071
  398POPI   C4A 6244   3.167   5.460   8.618 -0.0530  0.1638  0.0459
  398POPI   C1B 6245   3.584   5.430   9.632 -0.0697 -0.2980  0.1436
  398POPI   C2B 6246   3.705   5.137   9.333 -0.1173  0.3529 -0.1966
  398POPI   C3B 6247   4.038   4.844   9.377 -0.0638  0.0523 -0.1781
  398POPI   C4B 6248   4.392   4.778   9.598  0.0735 -0.0505 -0.2384
  399POPI    C1 6249  14.853  12.022  11.106  0.0448 -0.0734 -0.0149
  399POPI    C2 6250  14.877  11.625  11.062 -0.0986 -0.0634 -0.1954
  399POPI    C3 6251  15.186  11.829  11.214 -0.0409 -0.2488 -0.0607
  399POPI   PO4 6252  14.651  12.059  10.824 -0.3016 -0.3329  0.2194
  399POPI   GL1 6253  14.713  12.009  10.317 -0.2507 -0.1230  0.3100
  399POPI   GL2 6254  14.718  11.690  10.258  0.0854  0.0170 -0.1945
  399POPI   C1A 6255  14.860  11.886   9.832 -0.2440  0.0117  0.1898
  399POPI   D2A 6256  14.831  12.034   9.477 -0.1206  0.3378 -0.0509
  399POPI   C3A 6257  14.549  12.371   9.643  0.3574 -0.2619 -0.1040
  399POPI   C4A 6258  14.485  12.584  10.090  0.0917 -0.0347 -0.3858
  399POPI   C1B 6259  14.383  11.960   9.974 -0.0415 -0.0786 -0.2557
  399POPI   C2B 6260  14.205  11.960   9.594  0.0086  0.1081  0.0946
  399POPI   C3B 6261  14.117  11.925   9.076  0.3368 -0.0235 -0.1573
  399POPI   C4B 6262  14.234  12.179   8.627 -0.0722 -0.2574  0.1405
  400POPI    C1 6263  17.720   1.725  10.380 -0.0778  0.0211  0.0320
  400POPI    C2 6264  17.523   1.807  10.718 -0.0913  0.1638 -0.0098
  400POPI    C3 6265  17.918   1.868  10.696 -0.0321 -0.1633  0.0881
  400POPI   PO4 6266  17.555   1.851  10.192  0.2408  0.2202  0.1226
  400POPI   GL1 6267  17.626   1.793   9.756  0.0740 -0.0978 -0.0572
  400POPI   GL2 6268  17.999   1.624   9.973 -0.1729  0.1853  0.2218
  400POPI   C1A 6269  17.752   2.026   9.390  0.3719 -0.1740 -0.2281
  400POPI   D2A 6270  17.834   2.204   8.961  0.1140 -0.1931 -0.1882
  400POPI   C3A 6271  18.161   2.319   8.653  0.0119  0.3161 -0.2471
  400POPI   C4A 6272  18.515   2.150   8.464 -0.0630  0.0105 -0.1294
  400POPI   C1B 6273  18.089   1.666   9.554 -0.2184  0.1705 -0.1518
  400POPI   C2B 6274  18.273   1.741   9.225 -0.3227  0.0631  0.1910
  400POPI   C3B 6275  18.166   1.774   8.874  0.0170  0.1477 -0.0822
  400POPI   C4B 6276  18.184   1.635   8.506 -0.1616 -0.0886  0.1660
  401POPI    C1 6277   5.457  13.220  10.912  0.1157 -0.1311 -0.4168
  401POPI    C2 6278   5.542  12.837  10.988 -0.1572 -0.1263 -0.0595
  401POPI    C3 6279   5.734  13.127  11.185 -0.0970 -0.0837 -0.1801
  401POPI   PO4 6280   5.492  13.251  10.672 -0.2018 -0.0919 -0.0695
  401POPI   GL1 6281   5.510  13.308  10.202 -0.0372  0.1624  0.1398
  401POPI   GL2 6282   5.378  13.648  10.231  0.0039 -0.1342  0.1410
  401POPI   C1A 6283   5.847  13.705   9.944 -0.0416 -0.1378 -0.1112
  401POPI   D2A 6284   5.867  13.917   9.688  0.1321 -0.0879 -0.2212
  401POPI   C3A 6285   5.669  14.057   9.429 -0.2523  0.1330  0.1127
  401POPI   C4A 6286   5.470  14.273   9.051 -0.3467  0.2325  0.3406
  401POPI   C1B 6287   5.447  13.606   9.674  0.1138 -0.1542 -0.0192
  401POPI   C2B 6288   5.329  13.779   9.231  0.0248 -0.3004 -0.1281
  401POPI   C3B 6289   5.202  13.856   8.786  0.2584  0.1190  0.0315
  401POPI   C4B 6290   5.178  14.095   8.532 -0.3913 -0.2638  0.0465
  402POPI    C1 6291   1.996   2.027  11.043 -0.0016  0.4733  0.0147
  402POPI    C2 6292   1.660   2.001  11.258 -0.0189 -0.1800 -0.0715
  402POPI    C3 6293   1.971   2.209  11.399 -0.3640  0.2180  0.1261
  402POPI   PO4 6294   1.976   1.784  10.883  0.0825 -0.2131 -0.4250
  402POPI   GL1 6295   2.022   1.836  10.487  0.2702 -0.2302  0.1690
  402POPI   GL2 6296   1.787   1.849  10.328 -0.0088 -0.0201 -0.2081
  402POPI   C1A 6297   2.291   1.730  10.125 -0.0963 -0.1019  0.1018
  402POPI   D2A 6298   2.513   1.726   9.676  0.0413 -0.0578 -0.1496
  402POPI   C3A 6299   2.516   1.346   9.398  0.1582  0.3608  0.0189
  402POPI   C4A 6300   2.477   1.160   9.025 -0.1432 -0.0272  0.4334
  402POPI   C1B 6301   1.668   1.617  10.035  0.2475  0.1703  0.2956
  402POPI   C2B 6302   1.685   1.230   9.838 -0.1035  0.1299  0.2737
  402POPI   C3B 6303   1.689   1.149   9.471  0.2761  0.2574  0.4017
  402POPI   C4B 6304   1.934   1.039   9.045  0.3480  0.1657  0.2406
  403POPI    C1 6305  16.787  16.090  10.599 -0.0790 -0.0586 -0.1702
  403POPI    C2 6306  17.030  15.821  10.767  0.0135 -0.0832 -0.3416
  403POPI    C3 6307  16.984  16.180  10.935  0.1215 -0.1002 -0.2749
  403POPI   PO4 6308  16.730  16.024  10.411  0.1741  0.0556  0.1079
  403POPI   GL1 6309  16.981  16.039  10.107  0.1738 -0.1424  0.0810
  403POPI   GL2 6310  17.250  16.308   9.999 -0.1371  0.1923  0.0636
  403POPI   C1A 6311  17.065  15.841   9.746  0.1211 -0.1021 -0.0976
  403POPI   D2A 6312  17.356  15.565   9.679  0.1721  0.1353  0.0838
  403POPI   C3A 6313  17.445  15.271   9.387  0.2436  0.2619 -0.4302
  403POPI   C4A 6314  17.525  14.993   9.019  0.1576 -0.1251 -0.5029
  403POPI   C1B 6315  17.463  16.090   9.694  0.1473  0.4462  0.2975
  403POPI   C2B 6316  17.645  15.862   9.313 -0.2038 -0.1436  0.0592
  403POPI   C3B 6317  17.702  15.538   9.027 -0.1161 -0.0380 -0.0471
  403POPI   C4B 6318  17.636  15.414   8.708 -0.1237  0.1990 -0.0790
  404POPI    C1 6319  11.292   6.515  10.650 -0.0350 -0.0819  0.1638
  404POPI    C2 6320  11.144   6.686  10.980  0.1550 -0.2179  0.3223
  404POPI    C3 6321  11.377   6.897  10.732  0.0977 -0.1456  0.3296
  404POPI   PO4 6322  11.176   6.421  10.547 -0.0035 -0.0445  0.0348
  404POPI   GL1 6323  11.045   6.172  10.235 -0.0157 -0.2389 -0.2155
  404POPI   GL2 6324  11.268   5.960  10.322 -0.1798  0.1224 -0.5138
  404POPI   C1A 6325  11.015   6.287   9.846 -0.2036 -0.1606 -0.0298
  404POPI   D2A 6326  10.836   6.284   9.435 -0.1506  0.0916 -0.2465
  404POPI   C3A 6327  11.073   5.989   9.142  0.0765  0.0769 -0.0161
  404POPI   C4A 6328  11.206   5.887   8.799 -0.2375 -0.0659 -0.1796
  404POPI   C1B 6329  11.405   5.829   9.983 -0.0498 -0.1289  0.2767
  404POPI   C2B 6330  11.448   6.004   9.557 -0.3373  0.2810  0.0888
  404POPI   C3B 6331  11.698   5.985   9.227 -0.0537 -0.2552  0.0637
  404POPI   C4B 6332  11.819   6.176   8.882 -0.0622 -0.2991  0.0148
  405POPI    C1 6333   8.079  17.497  10.951 -0.0243 -0.0332  0.1610
  405POPI    C2 6334   8.393  17.381  11.170 -0.0445  0.1026  0.2627
  405POPI    C3 6335   8.187  17.709  11.273  0.0355  0.2523 -0.0431
  405POPI   PO4 6336   8.250  17.401  10.655 -0.0845 -0.0724 -0.0929
  405POPI   GL1 6337   8.405  17.476  10.241  0.0831 -0.1612  0.2719
  405POPI   GL2 6338   8.767  17.389  10.165 -0.0806  0.0819 -0.0387
  405POPI   C1A 6339   8.097  17.295  10.009 -0.0495  0.0579 -0.0126
  405POPI   D2A 6340   7.723  17.110   9.935 -0.1384 -0.1902 -0.1058
  405POPI   C3A 6341   7.370  17.230   9.702  0.2470 -0.5248 -0.0760
  405POPI   C4A 6342   7.072  17.385   9.427 -0.1445  0.2730 -0.1296
  405POPI   C1B 6343   8.585  17.266   9.768 -0.0666  0.0508  0.3048
  405POPI   C2B 6344   8.390  17.208   9.440 -0.1631  0.0461  0.0692
  405POPI   C3B 6345   8.416  17.086   9.011 -0.3792 -0.1376 -0.1183
  405POPI   C4B 6346   8.589  17.034   8.626  0.0538  0.0440 -0.1706
  406POPI    C1 6347   8.797  10.619  10.164  0.1899  0.3000 -0.3280
  406POPI    C2 6348   8.727  10.626  10.558  0.0177 -0.0418 -0.3484
  406POPI    C3 6349   9.091  10.532  10.421  0.0778  0.0775 -0.2720
  406POPI   PO4 6350   8.525  10.525  10.141 -0.0427 -0.2005  0.1577
  406POPI   GL1 6351   8.370  10.815   9.809 -0.0731  0.0271  0.1618
  406POPI   GL2 6352   8.219  10.517   9.798 -0.1189 -0.0701  0.0370
  406POPI   C1A 6353   8.494  10.963   9.393  0.1050  0.1001  0.0845
  406POPI   D2A 6354   8.275  10.849   9.017  0.4878  0.1968  0.1252
  406POPI   C3A 6355   8.302  10.928   8.611  0.0918 -0.2000 -0.0070
  406POPI   C4A 6356   8.662  10.729   8.400  0.3024 -0.0192  0.1135
  406POPI   C1B 6357   8.061  10.656   9.381 -0.0260 -0.0991 -0.3435
  406POPI   C2B 6358   7.892  11.090   9.406  0.1845 -0.1158  0.2835
  406POPI   C3B 6359   7.980  11.470   9.150 -0.0162  0.0718  0.3502
  406POPI   C4B 6360   8.277  11.758   8.960  0.0521 -0.1205 -0.0418
  407POPI    C1 6361   3.300  10.759  10.562 -0.0972  0.0187 -0.2008
  407POPI    C2 6362   3.396  10.859  10.937 -0.0944 -0.0321 -0.1877
  407POPI    C3 6363   3.374  10.474  10.832 -0.1891 -0.0195 -0.2154
  407POPI   PO4 6364   3.143  10.909  10.493 -0.1482  0.2461 -0.0645
  407POPI   GL1 6365   2.961  10.933  10.138 -0.0405  0.2282 -0.0392
  407POPI   GL2 6366   2.982  10.575  10.116 -0.1931 -0.1482 -0.0024
  407POPI   C1A 6367   2.717  11.073   9.884 -0.0234 -0.0093 -0.0753
  407POPI   D2A 6368   2.649  11.181   9.397 -0.1663 -0.2600 -0.0405
  407POPI   C3A 6369   2.945  11.193   9.160  0.0484 -0.0515 -0.0656
  407POPI   C4A 6370   3.315  11.309   9.175 -0.0825  0.2223  0.0180
  407POPI   C1B 6371   2.973  10.709   9.640 -0.2230 -0.0906  0.0141
  407POPI   C2B 6372   2.829  10.725   9.279  0.3096  0.0704  0.0157
  407POPI   C3B 6373   2.786  10.714   8.840  0.0116  0.0198  0.1511
  407POPI   C4B 6374   2.663  10.737   8.328 -0.0858 -0.1994 -0.0679
  408POPI    C1 6375   4.822   8.708  10.556  0.1884 -0.1118  0.1675
  408POPI    C2 6376   4.754   9.079  10.688  0.1158 -0.0796  0.0419
  408POPI    C3 6377   4.568   8.769  10.859  0.0560 -0.0428  0.0443
  408POPI   PO4 6378   4.865   8.686  10.280 -0.2125 -0.0872  0.2823
  408POPI   GL1 6379   4.559   8.712  10.000  0.1505  0.4103  0.1289
  408POPI   GL2 6380   4.653   8.498   9.868  0.1326  0.0659 -0.0715
  408POPI   C1A 6381   4.300   8.978   9.921  0.0909 -0.3650 -0.0019
  408POPI   D2A 6382   4.031   9.071   9.734  0.1106 -0.1130 -0.1489
  408POPI   C3A 6383   3.864   8.970   9.324 -0.0653 -0.3201 -0.0727
  408POPI   C4A 6384   3.994   9.146   8.952 -0.1995  0.0012  0.0536
  408POPI   C1B 6385   4.586   8.350   9.513 -0.0275  0.1977  0.1908
  408POPI   C2B 6386   4.618   8.334   9.047 -0.1640 -0.3192  0.2077
  408POPI   C3B 6387   4.656   8.265   8.635 -0.2234  0.1392 -0.3519
  408POPI   C4B 6388   4.514   8.261   8.280  0.1829  0.3724  0.3944
  409POPI    C1 6389   4.474  11.787  10.474  0.1810  0.1587  0.0377
  409POPI    C2 6390   4.582  11.873  10.849  0.1154 -0.2126  0.1456
  409POPI    C3 6391   4.242  11.674  10.779  0.2137 -0.2991 -0.0981
  409POPI   PO4 6392   4.685  11.692  10.392  0.1843  0.0275  0.1099
  409POPI   GL1 6393   4.951  11.705  10.046  0.2921 -0.3702  0.1192
  409POPI   GL2 6394   4.736  11.554   9.834 -0.2416 -0.2059  0.1430
  409POPI   C1A 6395   4.961  11.902   9.598 -0.1659  0.1093  0.2004
  409POPI   D2A 6396   5.114  12.018   9.109 -0.0729  0.2703 -0.0154
  409POPI   C3A 6397   4.804  12.207   8.762 -0.1367 -0.1792  0.1750
  409POPI   C4A 6398   4.782  12.421   8.378  0.0386 -0.0054 -0.0378
  409POPI   C1B 6399   4.678  11.497   9.497 -0.0520  0.0939 -0.0023
  409POPI   C2B 6400   4.405  11.560   9.230 -0.0427  0.1102  0.1374
  409POPI   C3B 6401   4.219  11.595   8.911  0.3966 -0.0518  0.0354
  409POPI   C4B 6402   3.989  11.479   8.519 -0.2175  0.0045 -0.0509
  410POPI    C1 6403  15.922  10.657  10.956 -0.0873  0.0636 -0.0103
  410POPI    C2 6404  16.307  10.739  11.025 -0.0137 -0.2391 -0.0450
  410POPI    C3 6405  16.092  10.546  11.301 -0.1085 -0.1779 -0.0757
  410POPI   PO4 6406  16.003  10.582  10.687 -0.3680  0.2807 -0.1817
  410POPI   GL1 6407  16.019  10.662  10.263 -0.3415  0.0569  0.1267
  410POPI   GL2 6408  16.276  10.701  10.013  0.0214 -0.2618  0.0970
  410POPI   C1A 6409  15.795  10.834   9.933  0.1880 -0.4350  0.0957
  410POPI   D2A 6410  15.683  10.894   9.427  0.0644 -0.0746  0.1479
  410POPI   C3A 6411  15.730  10.724   8.982 -0.0727 -0.2844  0.1029
  410POPI   C4A 6412  15.854  10.691   8.532  0.1105 -0.0595  0.0018
  410POPI   C1B 6413  16.175  10.691   9.579 -0.0183 -0.1508  0.2561
  410POPI   C2B 6414  16.295  10.713   9.258 -0.1047  0.0045 -0.0899
  410POPI   C3B 6415  16.199  10.719   8.856 -0.4209  0.0378  0.3153
  410POPI   C4B 6416  16.328  10.655   8.368  0.1981  0.0894  0.1236
  411POPI    C1 6417  11.979   8.316  10.722 -0.0046 -0.0929 -0.0007
  411POPI    C2 6418  12.325   8.484  10.832 -0.0797  0.0530  0.0158
  411POPI    C3 6419  12.114   8.269  11.095 -0.0865  0.1086  0.0559
  411POPI   PO4 6420  11.875   8.508  10.492 -0.3993 -0.2650 -0.0296
  411POPI   GL1 6421  11.973   8.498  10.042 -0.0190 -0.0514  0.0136
  411POPI   GL2 6422  11.727   8.305   9.937 -0.0270 -0.1008 -0.1035
  411POPI   C1A 6423  12.023   8.598   9.585  0.1581 -0.0126  0.1089
  411POPI   D2A 6424  11.820   8.817   9.412 -0.0010 -0.0440 -0.1164
  411POPI   C3A 6425  11.862   9.166   9.126 -0.2001  0.0851 -0.0462
  411POPI   C4A 6426  11.733   9.388   8.778 -0.2339 -0.1461  0.1576
  411POPI   C1B 6427  11.550   8.368   9.611 -0.1539 -0.3000 -0.1151
  411POPI   C2B 6428  11.892   8.368   9.144 -0.4206 -0.0637  0.0527
  411POPI   C3B 6429  11.810   8.624   8.734  0.0398 -0.0685  0.1227
  411POPI   C4B 6430  11.650   8.962   8.475  0.0429 -0.1899 -0.0415
  412POPI    C1 6431   4.964  15.471  10.542  0.1215  0.0874 -0.1791
  412POPI    C2 6432   4.923  15.238  10.864  0.1481  0.1556 -0.1261
  412POPI    C3 6433   4.792  15.112  10.508 -0.1789  0.2130 -0.0297
  412POPI   PO4 6434   5.232  15.523  10.543 -0.0105 -0.1637 -0.2513
  412POPI   GL1 6435   5.389  15.751  10.192 -0.0718 -0.0275 -0.0553
  412POPI   GL2 6436   5.259  15.530  10.064 -0.0190 -0.4193  0.0810
  412POPI   C1A 6437   5.596  15.963   9.857  0.5948 -0.2962  0.2812
  412POPI   D2A 6438   5.664  16.015   9.412  0.0049  0.2992 -0.1763
  412POPI   C3A 6439   5.739  16.086   9.066  0.1352  0.0521  0.3399
  412POPI   C4A 6440   5.862  16.085   8.603 -0.1418  0.1485  0.1653
  412POPI   C1B 6441   5.339  15.606   9.666 -0.0358  0.0710  0.1167
  412POPI   C2B 6442   5.462  15.531   9.219  0.0707 -0.0477 -0.2633
  412POPI   C3B 6443   5.482  15.585   8.735 -0.0548  0.1078  0.0317
  412POPI   C4B 6444   5.742  15.598   8.395  0.2807  0.1421  0.1971
  413POPI    C1 6445   4.395  10.275  10.226  0.0649  0.0371 -0.1390
  413POPI    C2 6446   4.081  10.211  10.465  0.0516 -0.0699 -0.1846
  413POPI    C3 6447   4.411   9.988  10.505  0.0979 -0.0005 -0.1792
  413POPI   PO4 6448   4.322  10.302  10.085 -0.2542 -0.0671  0.0244
  413POPI   GL1 6449   4.188  10.130   9.700 -0.0925  0.0850  0.3421
  413POPI   GL2 6450   4.009   9.846   9.701  0.3299  0.1102  0.7477
  413POPI   C1A 6451   3.796  10.275   9.491  0.1650 -0.0412 -0.1187
  413POPI   D2A 6452   3.586  10.468   9.127 -0.0390 -0.0310 -0.1961
  413POPI   C3A 6453   3.536  10.413   8.693  0.0712  0.0169  0.1457
  413POPI   C4A 6454   3.453  10.258   8.300 -0.0436  0.1259  0.2614
  413POPI   C1B 6455   4.048   9.770   9.207  0.2960 -0.5376  0.0917
  413POPI   C2B 6456   3.998   9.770   8.812 -0.1329 -0.0674 -0.2659
  413POPI   C3B 6457   3.999   9.468   8.488  0.2469  0.3362  0.2532
  413POPI   C4B 6458   3.800   9.217   8.152 -0.2080 -0.2165 -0.1373
  414POPI    C1 6459  13.002   8.476  10.919  0.0641 -0.0470  0.1238
  414POPI    C2 6460  13.344   8.684  10.928 -0.0167  0.0939 -0.0313
  414POPI    C3 6461  13.137   8.624  11.265  0.1030  0.1045  0.0443
  414POPI   PO4 6462  12.911   8.494  10.562  0.0240 -0.1176  0.0646
  414POPI   GL1 6463  12.665   8.739  10.145  0.0052 -0.0902  0.2989
  414POPI   GL2 6464  13.056   8.711  10.134 -0.0022  0.1247 -0.1087
  414POPI   C1A 6465  12.436   8.579   9.839  0.0734 -0.0368  0.2156
  414POPI   D2A 6466  12.384   8.271   9.588 -0.3375  0.2890 -0.2962
  414POPI   C3A 6467  12.367   8.253   9.151  0.0284  0.4286  0.2545
  414POPI   C4A 6468  12.566   8.227   8.755  0.1305 -0.1477  0.1136
  414POPI   C1B 6469  13.193   8.733   9.821 -0.1400  0.0032 -0.0606
  414POPI   C2B 6470  13.317   8.854   9.384  0.1699  0.0366 -0.0901
  414POPI   C3B 6471  13.261   9.004   8.963 -0.0952 -0.1624  0.0452
  414POPI   C4B 6472  13.199   8.922   8.483 -0.3028  0.0602  0.0067
  415POPI    C1 6473   3.955   1.438  10.762  0.2910 -0.0776  0.0781
  415POPI    C2 6474   3.950   1.727  10.486 -0.0992 -0.0492  0.1084
  415POPI    C3 6475   4.280   1.663  10.703  0.1704  0.0104 -0.2736
  415POPI   PO4 6476   3.653   1.504  10.750 -0.0675  0.4602 -0.2639
  415POPI   GL1 6477   3.423   1.727  10.399 -0.0663 -0.1826 -0.2799
  415POPI   GL2 6478   3.178   1.442  10.433  0.1948  0.0803  0.1300
  415POPI   C1A 6479   3.480   1.600   9.876  0.1680 -0.3114 -0.1282
  415POPI   D2A 6480   3.326   1.384   9.574  0.0455 -0.1275 -0.0278
  415POPI   C3A 6481   3.363   1.422   9.214  0.0735 -0.0909 -0.1369
  415POPI   C4A 6482   3.512   1.388   8.762 -0.2033  0.2761  0.0176
  415POPI   C1B 6483   3.411   1.136  10.158 -0.3305 -0.4619  0.2220
  415POPI   C2B 6484   3.604   0.978   9.842 -0.0826 -0.2353 -0.1606
  415POPI   C3B 6485   3.722   0.960   9.480 -0.0226  0.0494 -0.2386
  415POPI   C4B 6486   3.685   0.968   9.042  0.0341 -0.0261 -0.3248
  416POPI    C1 6487   5.341  13.733  10.792  0.0339  0.1205 -0.0165
  416POPI    C2 6488   5.616  14.014  10.862  0.0352  0.1454 -0.1202
  416POPI    C3 6489   5.463  13.804  11.166  0.1841  0.1166 -0.0643
  416POPI   PO4 6490   5.162  13.832  10.612 -0.3451 -0.0533 -0.2084
  416POPI   GL1 6491   5.051  14.128  10.334  0.1441  0.1590  0.2584
  416POPI   GL2 6492   5.161  14.431  10.306 -0.1726 -0.0723 -0.1135
  416POPI   C1A 6493   4.985  13.737   9.964  0.0279 -0.0379  0.1141
  416POPI   D2A 6494   4.915  13.640   9.517 -0.2174 -0.0560 -0.0464
  416POPI   C3A 6495   4.828  13.608   9.118  0.0036  0.1843 -0.1671
  416POPI   C4A 6496   4.750  13.689   8.665 -0.0823 -0.2175 -0.0849
  416POPI   C1B 6497   5.281  14.585   9.812 -0.2233 -0.2089 -0.0257
  416POPI   C2B 6498   5.354  14.609   9.461 -0.0854 -0.2347 -0.1569
  416POPI   C3B 6499   5.175  14.638   9.116 -0.0859  0.0235  0.0590
  416POPI   C4B 6500   5.169  14.641   8.724 -0.0114 -0.0923 -0.0897
  417POPI    C1 6501   8.007  13.828  11.124 -0.0120 -0.1087 -0.2571
  417POPI    C2 6502   8.369  13.678  11.206  0.0493  0.2438  0.1535
  417POPI    C3 6503   8.102  13.730  11.500 -0.2405  0.2387 -0.1035
  417POPI   PO4 6504   8.112  13.890  10.822  0.2959  0.1790 -0.3342
  417POPI   GL1 6505   8.028  14.285  10.484  0.3035  0.1536 -0.0263
  417POPI   GL2 6506   7.847  14.001  10.432  0.3051 -0.1375 -0.0835
  417POPI   C1A 6507   8.040  14.395   9.995  0.0835  0.1516  0.1502
  417POPI   D2A 6508   8.075  14.429   9.480  0.0232 -0.0473 -0.0037
  417POPI   C3A 6509   7.780  14.705   9.254 -0.1178 -0.1924  0.3815
  417POPI   C4A 6510   7.576  15.027   9.127  0.1921 -0.0485 -0.1283
  417POPI   C1B 6511   7.782  13.859   9.967  0.2022  0.0295  0.1107
  417POPI   C2B 6512   7.816  13.905   9.448  0.0467  0.1173  0.1165
  417POPI   C3B 6513   7.863  13.766   9.046 -0.0443 -0.4478  0.0267
  417POPI   C4B 6514   7.801  13.877   8.592  0.2724  0.2385  0.0338
  418POPI    C1 6515  14.414   0.772  10.230  0.3319 -0.2137 -0.1593
  418POPI    C2 6516  14.344   0.427  10.421  0.0739 -0.0248  0.0958
  418POPI    C3 6517  14.225   0.774  10.583  0.4020  0.1941 -0.1188
  418POPI   PO4 6518  14.345   0.726   9.946  0.0930  0.0784  0.1153
  418POPI   GL1 6519  14.424   0.606   9.586  0.1569 -0.1652 -0.0722
  418POPI   GL2 6520  14.697   0.490   9.649 -0.1488 -0.1761 -0.1557
  418POPI   C1A 6521  14.305   0.421   9.248  0.0074  0.0047  0.2832
  418POPI   D2A 6522  14.359   0.403   8.870  0.2509 -0.1122  0.1990
  418POPI   C3A 6523  14.472   0.144   8.733 -0.0337  0.3503 -0.4962
  418POPI   C4A 6524  14.749  -0.079   8.445 -0.2073 -0.2938 -0.3808
  418POPI   C1B 6525  14.779   0.348   9.159  0.0800  0.1431 -0.0476
  418POPI   C2B 6526  14.888   0.364   8.758  0.0298 -0.2386  0.0742
  418POPI   C3B 6527  15.049   0.481   8.449 -0.0801 -0.2377 -0.3774
  418POPI   C4B 6528  15.044   0.741   8.046  0.2614  0.3071  0.4869
  419POPI    C1 6529   2.091   6.948  10.862 -0.0174  0.3034 -0.2077
  419POPI    C2 6530   1.884   7.213  10.646 -0.1829  0.2869 -0.0716
  419POPI    C3 6531   1.821   7.184  11.040 -0.3071 -0.0890 -0.1152
  419POPI   PO4 6532   2.331   6.954  10.711 -0.1024  0.0142  0.2950
  419POPI   GL1 6533   2.395   7.317  10.420 -0.1491 -0.0184 -0.0637
  419POPI   GL2 6534   2.209   7.554  10.361  0.0622 -0.1319 -0.3989
  419POPI   C1A 6535   2.632   6.989  10.097 -0.0785 -0.3896 -0.1144
  419POPI   D2A 6536   2.805   7.085   9.705  0.0658  0.2997  0.3124
  419POPI   C3A 6537   3.130   7.156   9.516  0.0272 -0.2955 -0.1314
  419POPI   C4A 6538   3.372   7.333   9.852  0.2023 -0.1325 -0.1647
  419POPI   C1B 6539   2.121   7.579   9.979  0.0867  0.2583 -0.2062
  419POPI   C2B 6540   2.059   7.585   9.533  0.1194  0.1678 -0.0938
  419POPI   C3B 6541   2.200   7.436   9.107 -0.0211  0.0382 -0.1025
  419POPI   C4B 6542   2.300   7.203   8.780 -0.1510 -0.0761 -0.1201
  420POPI    C1 6543   2.791   5.774  10.647  0.0795  0.2036  0.1941
  420POPI    C2 6544   3.052   5.946  10.896  0.1486  0.2091  0.1182
  420POPI    C3 6545   2.874   5.603  10.999  0.2965  0.1285  0.1081
  420POPI   PO4 6546   2.890   5.779  10.375  0.1551 -0.1137  0.2611
  420POPI   GL1 6547   3.030   6.007  10.085  0.1559  0.0316 -0.0271
  420POPI   GL2 6548   2.708   6.077  10.036 -0.0158 -0.4165 -0.2833
  420POPI   C1A 6549   3.229   5.806   9.690  0.2002  0.2258  0.0643
  420POPI   D2A 6550   3.306   5.532   9.262 -0.2089  0.0828  0.0182
  420POPI   C3A 6551   3.378   5.883   8.937 -0.2326  0.0650 -0.2568
  420POPI   C4A 6552   3.400   6.232   8.567 -0.4197 -0.0216 -0.1512
  420POPI   C1B 6553   2.628   6.263   9.690 -0.0183  0.3519 -0.2870
  420POPI   C2B 6554   2.559   6.381   9.299  0.0090  0.1705  0.0905
  420POPI   C3B 6555   2.523   6.346   8.858  0.2436  0.2651  0.3324
  420POPI   C4B 6556   2.245   6.474   8.458  0.2596  0.0188 -0.0107
  421POPI    C1 6557   0.703   3.791  10.515 -0.1295 -0.1688  0.1940
  421POPI    C2 6558   0.552   4.137  10.385  0.1949 -0.1096 -0.0374
  421POPI    C3 6559   0.478   4.015  10.758  0.0050  0.1645  0.0180
  421POPI   PO4 6560   0.596   3.609  10.350  0.1478 -0.1558  0.1881
  421POPI   GL1 6561   0.733   3.485   9.926 -0.1707  0.0534  0.0676
  421POPI   GL2 6562   0.811   3.911   9.965  0.0675  0.1398  0.1450
  421POPI   C1A 6563   0.587   3.683   9.582 -0.1378  0.0419  0.0277
  421POPI   D2A 6564   0.385   3.971   9.344  0.1605 -0.2878 -0.1829
  421POPI   C3A 6565   0.194   3.988   8.920 -0.0607  0.0672 -0.0451
  421POPI   C4A 6566   0.144   4.130   8.520  0.1394 -0.1747 -0.0145
  421POPI   C1B 6567   0.786   4.157   9.579  0.3533 -0.1006  0.0288
  421POPI   C2B 6568   0.716   4.215   9.135  0.0381  0.1980 -0.0050
  421POPI   C3B 6569   0.573   4.200   8.729 -0.3727  0.1861  0.2234
  421POPI   C4B 6570   0.660   4.045   8.272  0.3948  0.3973 -0.1179
  422POPI    C1 6571  12.963   7.721  10.566  0.1202 -0.1366 -0.2355
  422POPI    C2 6572  13.182   7.836  10.881 -0.0346 -0.1815 -0.1101
  422POPI    C3 6573  13.162   8.068  10.556 -0.0111 -0.0527 -0.0202
  422POPI   PO4 6574  12.743   7.657  10.659 -0.1584  0.1161 -0.1111
  422POPI   GL1 6575  12.482   7.433  10.407 -0.0381  0.0713  0.1491
  422POPI   GL2 6576  12.718   7.486  10.172 -0.0811 -0.0752  0.1812
  422POPI   C1A 6577  12.251   7.444  10.019  0.1740 -0.1314 -0.0029
  422POPI   D2A 6578  11.886   7.429   9.753  0.2001 -0.1076 -0.2101
  422POPI   C3A 6579  12.035   7.439   9.351  0.0828 -0.3965 -0.1712
  422POPI   C4A 6580  12.072   7.312   8.894  0.3134  0.1342  0.1698
  422POPI   C1B 6581  12.568   7.328   9.673 -0.0537 -0.1321 -0.1373
  422POPI   C2B 6582  12.536   7.390   9.237  0.0384  0.3204 -0.2553
  422POPI   C3B 6583  12.570   7.296   8.768  0.0321  0.2881  0.4809
  422POPI   C4B 6584  12.364   7.273   8.294  0.0801  0.1075 -0.1075
  423DPPI    C1 6585  10.954  10.307  10.880 -0.4607 -0.2451 -0.2815
  423DPPI    C2 6586  10.859  10.480  11.228  0.1051  0.1207 -0.2956
  423DPPI    C3 6587  10.870  10.081  11.199  0.0384  0.0856  0.1005
  423DPPI   PO4 6588  10.966  10.467  10.729  0.3175 -0.0391 -0.0773
  423DPPI   GL1 6589  11.132  10.465  10.266 -0.1451  0.2647  0.0239
  423DPPI   GL2 6590  10.835  10.417  10.235 -0.2264 -0.2397  0.2007
  423DPPI   C1A 6591  11.210  10.673   9.912  0.0544 -0.2981 -0.2486
  423DPPI   C2A 6592  11.211  10.566   9.510 -0.1175  0.0378 -0.1464
  423DPPI   C3A 6593  11.118  10.614   9.086 -0.2210 -0.2232  0.1143
  423DPPI   C4A 6594  11.025  10.657   8.712 -0.2750  0.4651 -0.3290
  423DPPI   C1B 6595  10.391  10.395  10.175  0.0151  0.0345  0.2253
  423DPPI   C2B 6596  10.074  10.615  10.090 -0.1320  0.1742  0.0494
  423DPPI   C3B 6597   9.747  10.770   9.830  0.0470  0.1834 -0.2128
  423DPPI   C4B 6598   9.659  10.751   9.428 -0.0380 -0.0944  0.1094
  424DPPI    C1 6599  11.283  17.919  10.800  0.1670  0.0944  0.1899
  424DPPI    C2 6600  10.982  17.990  11.055 -0.0809 -0.2368 -0.0022
  424DPPI    C3 6601  11.316  17.811  11.184 -0.1630 -0.3087  0.1122
  424DPPI   PO4 6602  11.197  17.777  10.603  0.2105 -0.1167 -0.0925
  424DPPI   GL1 6603  11.442  17.605  10.361 -0.0659  0.2593  0.0572
  424DPPI   GL2 6604  11.427  17.282  10.399  0.0813  0.1802  0.0126
  424DPPI   C1A 6605  11.113  17.543   9.948 -0.0610 -0.0099 -0.0208
  424DPPI   C2A 6606  11.057  17.477   9.536  0.2962  0.0076 -0.1167
  424DPPI   C3A 6607  11.052  17.602   9.098  0.1275  0.0428 -0.0328
  424DPPI   C4A 6608  11.105  17.693   8.727 -0.0101  0.1490  0.0110
  424DPPI   C1B 6609  11.626  17.067  10.142  0.1582  0.0093 -0.0760
  424DPPI   C2B 6610  11.240  17.047   9.970 -0.2857 -0.5603  0.3569
  424DPPI   C3B 6611  11.249  16.915   9.656  0.3007 -0.0323  0.1905
  424DPPI   C4B 6612  11.079  16.839   9.287  0.0456  0.1052  0.0348
  425DPPI    C1 6613  16.154  15.951  10.716  0.1774  0.2244 -0.0698
  425DPPI    C2 6614  15.780  16.092  10.731  0.1511  0.1541 -0.0614
  425DPPI    C3 6615  16.079  16.300  10.895  0.1258  0.2438 -0.1287
  425DPPI   PO4 6616  16.224  15.947  10.450  0.0203 -0.0747 -0.0342
  425DPPI   GL1 6617  16.108  16.003  10.065 -0.1743 -0.1931  0.0660
  425DPPI   GL2 6618  16.037  15.700   9.908  0.0890 -0.0206 -0.1884
  425DPPI   C1A 6619  16.180  16.165   9.659  0.2082  0.1484 -0.0185
  425DPPI   C2A 6620  16.228  16.266   9.219 -0.1061  0.0968  0.0830
  425DPPI   C3A 6621  16.439  16.102   8.771 -0.2539 -0.1409 -0.1074
  425DPPI   C4A 6622  16.522  15.963   8.407 -0.0882  0.0169  0.2849
  425DPPI   C1B 6623  15.909  15.700   9.520 -0.0119 -0.0455  0.2085
  425DPPI   C2B 6624  16.041  15.827   9.129  0.2827  0.2599 -0.0407
  425DPPI   C3B 6625  15.847  16.016   8.809 -0.1815  0.0626 -0.0726
  425DPPI   C4B 6626  15.869  16.480   8.865 -0.2117  0.1842 -0.0131
  426DPPI    C1 6627   5.625   1.996  10.853  0.2219 -0.0729 -0.1009
  426DPPI    C2 6628   5.249   1.874  10.790  0.2492 -0.2503  0.0691
  426DPPI    C3 6629   5.319   2.219  10.981  0.1726 -0.0343 -0.2832
  426DPPI   PO4 6630   5.742   1.876  10.564  0.1377 -0.6459  0.0592
  426DPPI   GL1 6631   5.974   1.769  10.240 -0.2186  0.0676  0.0534
  426DPPI   GL2 6632   5.786   1.980  10.000 -0.1171  0.0505  0.1246
  426DPPI   C1A 6633   6.212   1.906   9.791 -0.0841  0.1278 -0.1098
  426DPPI   C2A 6634   6.290   1.980   9.386  0.2140 -0.3078 -0.1632
  426DPPI   C3A 6635   6.170   2.056   8.921 -0.2097 -0.3160  0.0780
  426DPPI   C4A 6636   5.831   2.112   8.596 -0.1846  0.0402 -0.0106
  426DPPI   C1B 6637   5.632   2.016   9.580 -0.1934  0.1857  0.1512
  426DPPI   C2B 6638   5.484   1.992   9.228  0.0616 -0.1528  0.2633
  426DPPI   C3B 6639   5.402   1.922   8.816  0.1850  0.1684 -0.3266
  426DPPI   C4B 6640   5.463   1.845   8.367 -0.3314  0.0981  0.1369
  427DPPI    C1 6641   6.086  14.064  10.712  0.0668  0.0973  0.3220
  427DPPI    C2 6642   6.072  13.997  11.106  0.0856  0.2847  0.3552
  427DPPI    C3 6643   6.263  14.319  10.964  0.2719  0.0998  0.1782
  427DPPI   PO4 6644   6.253  13.809  10.657 -0.2048 -0.1142 -0.1310
  427DPPI   GL1 6645   6.280  13.477  10.389  0.2866  0.1315  0.2166
  427DPPI   GL2 6646   6.052  13.330  10.147  0.0388 -0.0501  0.2293
  427DPPI   C1A 6647   6.750  13.538  10.156 -0.0854  0.1531  0.2609
  427DPPI   C2A 6648   6.914  13.451   9.714  0.0410  0.0843 -0.0383
  427DPPI   C3A 6649   7.013  13.370   9.413  0.2205  0.1297  0.1568
  427DPPI   C4A 6650   6.946  13.339   8.901 -0.0782  0.0047  0.1426
  427DPPI   C1B 6651   5.933  13.276   9.701  0.0175  0.0588 -0.0759
  427DPPI   C2B 6652   5.800  13.522   9.366  0.0527  0.1418 -0.1031
  427DPPI   C3B 6653   5.972  13.520   8.988  0.2313 -0.0866  0.1567
  427DPPI   C4B 6654   5.835  13.403   8.661 -0.2264 -0.0291 -0.3330
  428DPPI    C1 6655   5.331   2.286  10.460 -0.0475  0.2876  0.1499
  428DPPI    C2 6656   5.042   2.418  10.216 -0.0785  0.0797  0.0723
  428DPPI    C3 6657   4.959   2.336  10.598 -0.1786 -0.2015 -0.0074
  428DPPI   PO4 6658   5.356   2.019  10.283 -0.1758  0.1407  0.0260
  428DPPI   GL1 6659   5.310   1.773   9.852 -0.2660  0.3734  0.2051
  428DPPI   GL2 6660   5.216   2.080   9.751  0.0805 -0.0057 -0.0342
  428DPPI   C1A 6661   5.406   1.513   9.505 -0.0000 -0.1536  0.1948
  428DPPI   C2A 6662   5.422   1.463   9.150 -0.1603  0.0016  0.1622
  428DPPI   C3A 6663   5.376   1.446   8.659 -0.3378 -0.0312  0.1331
  428DPPI   C4A 6664   5.245   1.429   8.135  0.0667 -0.1245  0.0059
  428DPPI   C1B 6665   5.019   1.772   9.357 -0.0104  0.1024  0.2711
  428DPPI   C2B 6666   4.987   1.578   8.986  0.1583  0.2257 -0.1337
  428DPPI   C3B 6667   4.901   1.675   8.537  0.1749 -0.0821  0.0242
  428DPPI   C4B 6668   4.787   1.364   8.203  0.2496 -0.1148  0.0845
  429DPPI    C1 6669  13.500   0.115  10.462  0.2033 -0.0987  0.0300
  429DPPI    C2 6670  13.247  -0.154  10.616  0.2029 -0.1010  0.0254
  429DPPI    C3 6671  13.164   0.237  10.641  0.0540 -0.1136 -0.2344
  429DPPI   PO4 6672  13.535  -0.004  10.203  0.1204  0.0529  0.3340
  429DPPI   GL1 6673  13.744  -0.066   9.887 -0.0907  0.0666 -0.1299
  429DPPI   GL2 6674  13.835   0.215   9.802 -0.1383 -0.0908  0.0597
  429DPPI   C1A 6675  13.672  -0.318   9.436  0.2616  0.1375  0.2447
  429DPPI   C2A 6676  13.682  -0.440   9.119  0.1834 -0.3705  0.1081
  429DPPI   C3A 6677  13.644  -0.546   8.643  0.0633 -0.1637 -0.1277
  429DPPI   C4A 6678  13.820  -0.745   8.221 -0.1446  0.0769 -0.3886
  429DPPI   C1B 6679  13.929   0.085   9.375  0.1589  0.0518  0.0984
  429DPPI   C2B 6680  14.058  -0.067   9.002  0.2075 -0.2256  0.2364
  429DPPI   C3B 6681  14.172  -0.237   8.696  0.1536 -0.1506 -0.2057
  429DPPI   C4B 6682  14.496  -0.573   8.537 -0.1120 -0.0216 -0.1447
  430DPPI    C1 6683  10.276   1.726  10.533  0.3052  0.1130  0.1345
  430DPPI    C2 6684  10.029   1.874  10.811 -0.1476 -0.1710 -0.1070
  430DPPI    C3 6685  10.210   2.120  10.554 -0.0092  0.0593  0.2052
  430DPPI   PO4 6686  10.157   1.527  10.396  0.0326 -0.2409  0.3496
  430DPPI   GL1 6687   9.801   1.279  10.156 -0.0180  0.2256  0.4090
  430DPPI   GL2 6688  10.014   1.011  10.071 -0.1264  0.3447  0.2542
  430DPPI   C1A 6689   9.816   1.588   9.775 -0.0416  0.2199 -0.1751
  430DPPI   C2A 6690   9.804   1.526   9.374 -0.1609  0.1490 -0.5937
  430DPPI   C3A 6691   9.774   1.379   8.962 -0.0600 -0.1072  0.0140
  430DPPI   C4A 6692   9.408   1.159   8.797  0.0534 -0.0865  0.2044
  430DPPI   C1B 6693   9.978   1.084   9.686 -0.1153 -0.0656  0.1104
  430DPPI   C2B 6694  10.000   1.091   9.303  0.1311  0.0240  0.1797
  430DPPI   C3B 6695  10.195   1.116   8.977  0.0016  0.2016  0.1093
  430DPPI   C4B 6696  10.534   0.982   8.723 -0.1503  0.0439 -0.0387
  431DPPI    C1 6697   7.159  11.546  10.159  0.0900  0.1640  0.0267
  431DPPI    C2 6698   7.238  11.192  10.326 -0.0177  0.0914 -0.0749
  431DPPI    C3 6699   7.461  11.511  10.420  0.0265  0.0158  0.0808
  431DPPI   PO4 6700   7.096  11.427   9.890  0.1254  0.0525  0.1212
  431DPPI   GL1 6701   7.037  11.473   9.559 -0.1936  0.0950 -0.0755
  431DPPI   GL2 6702   6.884  11.811   9.581  0.1017  0.1861  0.3273
  431DPPI   C1A 6703   7.059  11.622   9.126 -0.1443  0.1230  0.4329
  431DPPI   C2A 6704   6.991  11.665   8.740  0.0619  0.2334  0.1703
  431DPPI   C3A 6705   6.860  11.734   8.242 -0.3200  0.0090  0.3241
  431DPPI   C4A 6706   7.030  11.788   7.841  0.0161  0.2776  0.4458
  431DPPI   C1B 6707   6.606  11.875   9.278  0.0304 -0.1118 -0.0636
  431DPPI   C2B 6708   6.534  11.916   8.695 -0.0121 -0.1801 -0.1030
  431DPPI   C3B 6709   6.560  12.111   8.287  0.2262  0.0500  0.0134
  431DPPI   C4B 6710   6.566  12.107   7.836 -0.1032 -0.1630 -0.1378
  432DPPI    C1 6711   5.055   2.786  10.637 -0.2437 -0.2268  0.0788
  432DPPI    C2 6712   4.954   2.991  10.965  0.0158  0.0272  0.0040
  432DPPI    C3 6713   5.271   2.747  10.971  0.1228  0.1614 -0.1026
  432DPPI   PO4 6714   5.012   2.920  10.430 -0.0629  0.0921  0.1193
  432DPPI   GL1 6715   5.078   2.899   9.985  0.4678 -0.0607 -0.0213
  432DPPI   GL2 6716   4.946   3.247  10.053 -0.4105  0.0846  0.2469
  432DPPI   C1A 6717   5.030   2.718   9.599 -0.1548 -0.0352  0.1250
  432DPPI   C2A 6718   5.168   2.451   9.309  0.0082 -0.2981 -0.1502
  432DPPI   C3A 6719   5.120   2.278   8.944 -0.2389 -0.1180 -0.1481
  432DPPI   C4A 6720   4.996   2.136   8.506  0.0519  0.2547  0.1071
  432DPPI   C1B 6721   5.238   3.255   9.667  0.1232 -0.0734 -0.0121
  432DPPI   C2B 6722   5.100   3.127   9.270 -0.0963  0.0035 -0.1174
  432DPPI   C3B 6723   5.331   3.316   8.848  0.1622  0.4016 -0.0353
  432DPPI   C4B 6724   5.380   3.612   8.510  0.1650  0.0686  0.0212
  433DPPI    C1 6725  16.664  10.648  10.726 -0.0313  0.1012  0.0848
  433DPPI    C2 6726  16.489  10.476  10.410  0.0718  0.1683 -0.0093
  433DPPI    C3 6727  16.439  10.320  10.775  0.0903 -0.0083 -0.0812
  433DPPI   PO4 6728  16.908  10.651  10.642  0.0411 -0.0661  0.0546
  433DPPI   GL1 6729  17.234  10.865  10.350 -0.0558 -0.3582 -0.2408
  433DPPI   GL2 6730  17.307  11.150  10.250  0.1572 -0.2824  0.1870
  433DPPI   C1A 6731  17.299  10.513  10.059  0.1486  0.0416  0.1477
  433DPPI   C2A 6732  17.146  10.235   9.751  0.2610 -0.2147  0.1191
  433DPPI   C3A 6733  17.075  10.135   9.347  0.2707 -0.0429 -0.2488
  433DPPI   C4A 6734  16.914  10.052   8.829  0.0481  0.0479 -0.0555
  433DPPI   C1B 6735  17.592  11.048   9.943  0.0265 -0.0086 -0.1052
  433DPPI   C2B 6736  17.731  11.100   9.605 -0.2183  0.0599 -0.1358
  433DPPI   C3B 6737  17.616  10.943   9.257  0.0739  0.1027  0.1654
  433DPPI   C4B 6738  17.791  10.606   8.966  0.2110  0.0195 -0.1571
  434DPPI    C1 6739   6.879  16.487  10.630 -0.1184 -0.3078 -0.0091
  434DPPI    C2 6740   7.022  16.760  10.884 -0.0455 -0.0799 -0.2898
  434DPPI    C3 6741   7.224  16.420  10.822 -0.0211 -0.0996 -0.1089
  434DPPI   PO4 6742   6.655  16.602  10.529  0.2220 -0.2247  0.1083
  434DPPI   GL1 6743   6.450  16.426  10.139  0.1158  0.3560  0.0725
  434DPPI   GL2 6744   6.855  16.317  10.179 -0.0525  0.0434  0.2972
  434DPPI   C1A 6745   6.497  16.550   9.718  0.0974 -0.1409  0.0848
  434DPPI   C2A 6746   6.361  16.616   9.347 -0.0566  0.1715  0.0074
  434DPPI   C3A 6747   6.390  16.565   8.882 -0.1125 -0.0184 -0.0664
  434DPPI   C4A 6748   6.258  16.604   8.505 -0.2393 -0.1299  0.1466
  434DPPI   C1B 6749   6.859  16.239   9.726  0.2201  0.0033  0.2242
  434DPPI   C2B 6750   6.679  16.071   9.297  0.0450  0.0147 -0.0736
  434DPPI   C3B 6751   6.398  15.674   9.001  0.2325  0.2881 -0.2546
  434DPPI   C4B 6752   6.006  15.679   8.888 -0.0892 -0.1348  0.1425
  435DPPI    C1 6753  14.770  10.897  10.454  0.0010  0.0259 -0.0287
  435DPPI    C2 6754  14.774  11.167  10.749  0.1418 -0.0046 -0.0021
  435DPPI    C3 6755  15.101  10.949  10.673  0.0808 -0.0528 -0.1295
  435DPPI   PO4 6756  14.500  10.864  10.372  0.2939 -0.0798 -0.1207
  435DPPI   GL1 6757  14.509  10.711   9.957  0.1649 -0.0269 -0.0630
  435DPPI   GL2 6758  14.738  10.505  10.135  0.1025 -0.4535  0.0249
  435DPPI   C1A 6759  14.672  11.025   9.644  0.2143  0.0190 -0.0280
  435DPPI   C2A 6760  14.752  11.172   9.222  0.0579 -0.2415 -0.2008
  435DPPI   C3A 6761  14.896  11.220   8.847 -0.2258 -0.0668 -0.2341
  435DPPI   C4A 6762  14.929  11.390   8.443  0.0196 -0.0248 -0.1446
  435DPPI   C1B 6763  14.947  10.492   9.778 -0.3124 -0.0484 -0.1201
  435DPPI   C2B 6764  14.852  10.633   9.383  0.4256  0.2245 -0.0409
  435DPPI   C3B 6765  14.899  10.701   8.957  0.2809 -0.1308  0.0130
  435DPPI   C4B 6766  14.861  10.848   8.505 -0.0020  0.0447  0.0908
  436DPPI    C1 6767  10.379   4.881  10.786 -0.2056  0.1833 -0.1728
  436DPPI    C2 6768  10.575   4.579  10.960 -0.0690  0.1996 -0.2952
  436DPPI    C3 6769  10.342   4.819  11.179 -0.2890 -0.0773 -0.2196
  436DPPI   PO4 6770  10.267   4.743  10.559 -0.1656  0.0494  0.2149
  436DPPI   GL1 6771  10.258   4.632  10.118  0.1039  0.2381  0.0257
  436DPPI   GL2 6772  10.371   4.916   9.995  0.0486  0.3292 -0.1345
  436DPPI   C1A 6773   9.925   4.403  10.068  0.2555  0.1560  0.1308
  436DPPI   C2A 6774   9.678   4.165  10.098 -0.0482 -0.0999 -0.0172
  436DPPI   C3A 6775   9.473   3.891   9.760 -0.0751  0.0081 -0.1319
  436DPPI   C4A 6776   9.444   3.578   9.536 -0.1124  0.3717  0.1067
  436DPPI   C1B 6777  10.216   4.885   9.631  0.1520  0.0632 -0.2680
  436DPPI   C2B 6778  10.292   5.183   9.294  0.5140  0.2397 -0.0318
  436DPPI   C3B 6779  10.255   5.348   8.906  0.0519 -0.2972 -0.0682
  436DPPI   C4B 6780  10.119   5.315   8.350  0.2412 -0.2103  0.1050
  437DPPI    C1 6781  14.668   3.805  10.569  0.0363 -0.3358  0.0673
  437DPPI    C2 6782  14.386   3.569  10.413 -0.1868 -0.1009  0.1095
  437DPPI    C3 6783  14.283   3.875  10.649  0.1136 -0.1029  0.2474
  437DPPI   PO4 6784  14.796   3.885  10.399 -0.0450 -0.0971 -0.2395
  437DPPI   GL1 6785  14.856   3.670  10.002 -0.0906  0.2766 -0.2415
  437DPPI   GL2 6786  14.819   3.418  10.224 -0.2056  0.0880  0.1132
  437DPPI   C1A 6787  14.804   3.563   9.561  0.0858  0.3224  0.0520
  437DPPI   C2A 6788  14.748   3.559   9.102 -0.0771  0.1802  0.0820
  437DPPI   C3A 6789  14.677   3.713   8.583  0.1832 -0.1109  0.0185
  437DPPI   C4A 6790  14.776   4.001   8.224 -0.0780 -0.5166  0.2988
  437DPPI   C1B 6791  15.283   3.497   9.899 -0.0572  0.2216 -0.1651
  437DPPI   C2B 6792  15.573   3.361   9.538 -0.0791  0.1786 -0.2453
  437DPPI   C3B 6793  15.567   3.501   9.130  0.2742 -0.1108  0.2574
  437DPPI   C4B 6794  15.602   3.797   8.795  0.0150 -0.2797 -0.0203
  438DPPI    C1 6795   4.295  12.333  10.764 -0.1782  0.1611 -0.0467
  438DPPI    C2 6796   4.008  12.566  10.917  0.0598  0.2823  0.2252
  438DPPI    C3 6797   4.388  12.691  10.916  0.1295  0.0795 -0.0353
  438DPPI   PO4 6798   4.226  12.239  10.482 -0.0711 -0.0339 -0.1550
  438DPPI   GL1 6799   4.366  12.251  10.085 -0.0263 -0.5310 -0.0416
  438DPPI   GL2 6800   4.549  12.036   9.949  0.1643 -0.1570 -0.0352
  438DPPI   C1A 6801   4.224  12.363   9.681  0.1830  0.0953  0.1762
  438DPPI   C2A 6802   3.990  12.512   9.334 -0.0352  0.0807  0.0572
  438DPPI   C3A 6803   3.974  12.685   8.892  0.1989  0.1203 -0.0951
  438DPPI   C4A 6804   3.890  12.351   8.603  0.0036  0.1572 -0.1715
  438DPPI   C1B 6805   4.458  11.960   9.549 -0.2244 -0.2505  0.0234
  438DPPI   C2B 6806   4.643  11.955   9.169  0.1357  0.0724 -0.4522
  438DPPI   C3B 6807   4.714  11.608   8.779 -0.1088 -0.0924 -0.1303
  438DPPI   C4B 6808   4.488  11.525   8.451 -0.0338 -0.0672 -0.2488
  439DPPI    C1 6809  14.910  12.827  10.971  0.1681 -0.2576 -0.2410
  439DPPI    C2 6810  14.957  12.505  11.204 -0.0246 -0.1469 -0.0455
  439DPPI    C3 6811  14.613  12.562  11.008 -0.0803  0.0582  0.1079
  439DPPI   PO4 6812  15.201  12.839  10.860  0.2561 -0.1216  0.1149
  439DPPI   GL1 6813  15.287  13.078  10.603  0.3037  0.1084  0.0584
  439DPPI   GL2 6814  15.368  13.366  10.674 -0.0413  0.1629 -0.0335
  439DPPI   C1A 6815  15.359  13.083  10.168 -0.1653 -0.2608  0.0189
  439DPPI   C2A 6816  15.285  13.006   9.854 -0.1813  0.1855 -0.5591
  439DPPI   C3A 6817  15.193  13.087   9.448  0.3687 -0.0507  0.0675
  439DPPI   C4A 6818  15.292  12.971   9.053 -0.0880 -0.0308  0.4359
  439DPPI   C1B 6819  15.194  13.552  10.340 -0.0607 -0.2292  0.3198
  439DPPI   C2B 6820  15.194  13.589   9.942  0.2046 -0.0095  0.0694
  439DPPI   C3B 6821  15.304  13.608   9.452  0.0501  0.3154 -0.1152
  439DPPI   C4B 6822  15.183  13.650   9.088  0.3050 -0.1601  0.2725
  440DPPI    C1 6823  13.117   1.611  10.445 -0.0008 -0.0081  0.0324
  440DPPI    C2 6824  13.348   1.868  10.647 -0.3556  0.2544  0.1157
  440DPPI    C3 6825  12.970   1.806  10.762 -0.3007 -0.2526  0.0487
  440DPPI   PO4 6826  13.133   1.660  10.279 -0.0089  0.0701 -0.0270
  440DPPI   GL1 6827  13.312   1.603   9.804  0.4417 -0.0137 -0.1194
  440DPPI   GL2 6828  13.561   1.583   9.717  0.2523 -0.1201  0.4802
  440DPPI   C1A 6829  13.224   1.288   9.471  0.0194 -0.0234 -0.1724
  440DPPI   C2A 6830  13.223   1.236   9.119  0.0634  0.0051 -0.3287
  440DPPI   C3A 6831  13.246   1.006   8.732  0.1840 -0.1097  0.0863
  440DPPI   C4A 6832  13.153   0.796   8.383  0.1826 -0.2404  0.2846
  440DPPI   C1B 6833  13.592   1.668   9.310  0.1959  0.1049 -0.0422
  440DPPI   C2B 6834  13.646   1.513   8.885  0.1075  0.0213 -0.0248
  440DPPI   C3B 6835  13.343   1.494   8.740  0.0620  0.0735  0.2428
  440DPPI   C4B 6836  13.162   1.365   8.356  0.2263  0.0868 -0.0005
  441DPPI    C1 6837   1.790   4.936  10.441  0.2902 -0.1717 -0.0751
  441DPPI    C2 6838   2.039   5.200  10.271  0.0665  0.2064  0.1692
  441DPPI    C3 6839   1.644   5.231  10.213  0.0312 -0.0219  0.2750
  441DPPI   PO4 6840   1.853   4.722  10.365 -0.1547  0.1080 -0.1622
  441DPPI   GL1 6841   1.695   4.567   9.988  0.3300 -0.1387 -0.0693
  441DPPI   GL2 6842   1.519   4.829   9.858 -0.2263 -0.2548  0.0696
  441DPPI   C1A 6843   1.811   4.402   9.638  0.1475  0.2657 -0.1539
  441DPPI   C2A 6844   1.828   4.247   9.280  0.0544  0.0925  0.0843
  441DPPI   C3A 6845   1.795   4.249   8.865 -0.1846  0.1931  0.0499
  441DPPI   C4A 6846   1.541   4.376   8.524  0.3351  0.1970  0.2697
  441DPPI   C1B 6847   1.594   4.773   9.373  0.1897 -0.0971 -0.2096
  441DPPI   C2B 6848   1.628   4.703   8.967  0.1449  0.0559  0.0975
  441DPPI   C3B 6849   1.903   4.657   8.580 -0.0288  0.1292  0.1720
  441DPPI   C4B 6850   2.266   4.654   8.337 -0.0245  0.2000  0.0713
  442DPPI    C1 6851  13.123  16.531  10.543  0.1347 -0.0644  0.1147
  442DPPI    C2 6852  12.912  16.308  10.800  0.1873 -0.2350  0.0116
  442DPPI    C3 6853  12.835  16.699  10.765 -0.1380 -0.3020 -0.0520
  442DPPI   PO4 6854  13.165  16.368  10.293 -0.3501  0.2202  0.2959
  442DPPI   GL1 6855  13.200  16.322   9.847 -0.2512  0.2418  0.1801
  442DPPI   GL2 6856  12.849  16.220   9.867  0.0818  0.0096  0.2861
  442DPPI   C1A 6857  13.224  16.385   9.400 -0.2613 -0.1292  0.1224
  442DPPI   C2A 6858  13.331  16.266   8.960  0.1463 -0.1949 -0.1522
  442DPPI   C3A 6859  13.603  16.277   8.518 -0.2652 -0.1526  0.0463
  442DPPI   C4A 6860  13.949  16.254   8.186 -0.1474 -0.1351  0.0586
  442DPPI   C1B 6861  12.765  16.229   9.478  0.5781  0.0520  0.0970
  442DPPI   C2B 6862  12.507  16.090   9.294 -0.4681  0.1534 -0.1193
  442DPPI   C3B 6863  12.489  15.950   8.850 -0.0898  0.2362  0.1662
  442DPPI   C4B 6864  12.635  15.770   8.324  0.4999  0.1355 -0.2539
  443DPPI    C1 6865  16.095   9.892  11.174 -0.0884 -0.1157 -0.1560
  443DPPI    C2 6866  16.260   9.561  11.325 -0.0152 -0.0320 -0.0505
  443DPPI    C3 6867  15.909   9.691  11.466 -0.0879 -0.1138 -0.1545
  443DPPI   PO4 6868  16.204   9.863  10.913 -0.2220 -0.0765  0.0156
  443DPPI   GL1 6869  16.262   9.652  10.466 -0.1281  0.1181  0.1724
  443DPPI   GL2 6870  16.471   9.946  10.403  0.1028  0.0181 -0.3133
  443DPPI   C1A 6871  16.343   9.552   9.995 -0.0284 -0.0040 -0.0575
  443DPPI   C2A 6872  16.240   9.760   9.667  0.0990  0.0280  0.1478
  443DPPI   C3A 6873  16.170  10.088   9.323 -0.1782 -0.4027 -0.0830
  443DPPI   C4A 6874  16.159  10.211   8.939  0.1122  0.0772  0.0626
  443DPPI   C1B 6875  16.243  10.083  10.064  0.2920  0.1112  0.2617
  443DPPI   C2B 6876  15.914  10.335   9.767 -0.4271 -0.1605 -0.1499
  443DPPI   C3B 6877  15.775  10.365   9.385  0.1898  0.2714  0.3594
  443DPPI   C4B 6878  15.634  10.126   9.038 -0.1799 -0.0693 -0.1787
  444DPPI    C1 6879   3.713  13.996  10.805  0.0749 -0.0649 -0.0720
  444DPPI    C2 6880   3.999  14.271  10.754 -0.0009  0.0059 -0.1178
  444DPPI    C3 6881   3.762  14.286  11.076  0.1809 -0.1742  0.0269
  444DPPI   PO4 6882   3.643  13.940  10.527  0.0773  0.0656 -0.2917
  444DPPI   GL1 6883   3.644  13.946  10.148 -0.2236  0.4741  0.3400
  444DPPI   GL2 6884   3.953  14.023  10.138  0.0799 -0.1821 -0.1919
  444DPPI   C1A 6885   3.641  13.775   9.773  0.4082 -0.2240 -0.2053
  444DPPI   C2A 6886   3.543  13.722   9.423 -0.0730 -0.0886 -0.3251
  444DPPI   C3A 6887   3.478  13.646   8.974  0.1714 -0.1390  0.0914
  444DPPI   C4A 6888   3.459  13.509   8.634  0.2545 -0.2361  0.2642
  444DPPI   C1B 6889   3.972  14.317   9.794 -0.2420  0.2888 -0.1923
  444DPPI   C2B 6890   4.092  14.378   9.235  0.0704 -0.1182 -0.2717
  444DPPI   C3B 6891   3.997  14.306   8.805  0.3975 -0.1012 -0.0608
  444DPPI   C4B 6892   4.219  14.126   8.433 -0.1548 -0.2411 -0.1570
  445DPPI    C1 6893  15.386   0.267  10.637  0.0088 -0.3103 -0.0723
  445DPPI    C2 6894  15.712   0.172  10.425  0.2877  0.0558  0.1815
  445DPPI    C3 6895  15.718   0.145  10.824  0.1959  0.5797  0.2263
  445DPPI   PO4 6896  15.149   0.113  10.351 -0.0526  0.2598  0.0939
  445DPPI   GL1 6897  15.354  -0.069   9.944 -0.0726 -0.1623 -0.0886
  445DPPI   GL2 6898  15.092   0.147   9.780  0.1836  0.1085 -0.1912
  445DPPI   C1A 6899  15.384  -0.265   9.639  0.2746 -0.2170  0.0159
  445DPPI   C2A 6900  15.449  -0.344   9.174 -0.0459 -0.1116 -0.3401
  445DPPI   C3A 6901  15.527  -0.400   8.775 -0.1206 -0.0256  0.4225
  445DPPI   C4A 6902  15.557  -0.313   8.372 -0.1829 -0.1121  0.1689
  445DPPI   C1B 6903  15.057   0.032   9.402 -0.3549  0.0204  0.2269
  445DPPI   C2B 6904  15.156  -0.067   8.926  0.1516  0.2025 -0.0957
  445DPPI   C3B 6905  15.254   0.036   8.538  0.0614  0.0324 -0.1084
  445DPPI   C4B 6906  15.423   0.329   8.149  0.0322  0.1992 -0.0873
  446DPPI    C1 6907  11.754  14.902  10.621 -0.1551 -0.1586  0.0396
  446DPPI    C2 6908  11.583  15.257  10.559 -0.1557 -0.1748 -0.0525
  446DPPI    C3 6909  11.724  15.164  10.921  0.1719  0.0621 -0.1146
  446DPPI   PO4 6910  11.967  14.904  10.421 -0.0669 -0.1493 -0.0562
  446DPPI   GL1 6911  12.254  14.757  10.068 -0.2162 -0.1803  0.0330
  446DPPI   GL2 6912  12.525  14.875  10.177  0.0873 -0.1508  0.0361
  446DPPI   C1A 6913  11.936  14.624   9.643  0.0360 -0.0028  0.2829
  446DPPI   C2A 6914  11.842  14.485   9.273 -0.0890 -0.3049  0.1538
  446DPPI   C3A 6915  11.769  14.330   8.925 -0.1480  0.0661  0.1339
  446DPPI   C4A 6916  11.813  14.202   8.538  0.2150  0.2217 -0.1653
  446DPPI   C1B 6917  12.701  14.873   9.855  0.1709  0.0481 -0.1998
  446DPPI   C2B 6918  12.528  14.812   9.499 -0.1872  0.3041 -0.1545
  446DPPI   C3B 6919  12.330  14.603   9.154  0.1067  0.0466  0.0493
  446DPPI   C4B 6920  12.018  14.732   8.849 -0.0668 -0.3054  0.1715
  447DPPI    C1 6921  10.809   8.480  10.677  0.0122 -0.0441 -0.1151
  447DPPI    C2 6922  10.578   8.154  10.663 -0.0798  0.0200 -0.0979
  447DPPI    C3 6923  10.423   8.513  10.578 -0.0323  0.0877  0.0970
  447DPPI   PO4 6924  11.072   8.402  10.662  0.0017  0.0989 -0.1715
  447DPPI   GL1 6925  11.379   8.281  10.355  0.2338  0.1798 -0.2662
  447DPPI   GL2 6926  11.388   8.636  10.171  0.2108  0.1783 -0.1084
  447DPPI   C1A 6927  11.268   8.096   9.906 -0.1479 -0.0218  0.1313
  447DPPI   C2A 6928  11.177   7.985   9.482  0.1459 -0.3466 -0.0113
  447DPPI   C3A 6929  11.220   7.893   9.081  0.0054 -0.4358 -0.1248
  447DPPI   C4A 6930  11.141   7.807   8.655  0.1113 -0.2172 -0.0239
  447DPPI   C1B 6931  11.124   8.570   9.833  0.0530  0.1190  0.2450
  447DPPI   C2B 6932  11.156   8.514   9.367  0.0984  0.2415  0.1196
  447DPPI   C3B 6933  11.406   8.682   9.140 -0.0348  0.0871 -0.2465
  447DPPI   C4B 6934  11.410   9.066   8.910  0.0343  0.0074  0.0276
  448DPPI    C1 6935   3.193  14.691  10.552 -0.1191  0.3236  0.0451
  448DPPI    C2 6936   3.490  14.521  10.759 -0.0455  0.1410 -0.2064
  448DPPI    C3 6937   3.182  14.688  10.952 -0.0978 -0.2380  0.0488
  448DPPI   PO4 6938   3.334  14.780  10.317 -0.1118 -0.5038  0.0671
  448DPPI   GL1 6939   3.363  14.824   9.900  0.1485  0.0422 -0.0414
  448DPPI   GL2 6940   3.700  14.782   9.930 -0.2380  0.1568 -0.1588
  448DPPI   C1A 6941   3.330  14.826   9.458 -0.0864 -0.0468 -0.1275
  448DPPI   C2A 6942   3.217  14.697   9.004  0.2188  0.2375  0.0130
  448DPPI   C3A 6943   3.134  14.755   8.687  0.2627  0.0439  0.1129
  448DPPI   C4A 6944   3.187  14.756   8.204  0.2350  0.0615 -0.1595
  448DPPI   C1B 6945   3.836  14.684   9.564  0.2415  0.0131  0.1868
  448DPPI   C2B 6946   3.806  14.803   9.150  0.2818 -0.1483  0.1972
  448DPPI   C3B 6947   3.648  14.803   8.755  0.0711 -0.0363  0.0875
  448DPPI   C4B 6948   3.698  14.808   8.316 -0.1131  0.1304  0.3021
  449DPPI    C1 6949  11.893   0.287  10.647  0.0776 -0.0802 -0.2113
  449DPPI    C2 6950  11.621   0.562  10.750  0.2210 -0.1380  0.3580
  449DPPI    C3 6951  11.503   0.207  10.608  0.0233  0.0421  0.0587
  449DPPI   PO4 6952  12.088   0.294  10.347  0.0549  0.2557  0.4347
  449DPPI   GL1 6953  12.060   0.326   9.941 -0.1463  0.3279  0.0618
  449DPPI   GL2 6954  12.007   0.541   9.793 -0.3155 -0.1160 -0.0914
  449DPPI   C1A 6955  12.045  -0.085   9.782 -0.1971 -0.0671  0.2746
  449DPPI   C2A 6956  12.065  -0.200   9.372  0.0058 -0.0009  0.0929
  449DPPI   C3A 6957  11.974  -0.116   9.006 -0.0978 -0.1391 -0.0914
  449DPPI   C4A 6958  12.133  -0.170   8.670 -0.2315  0.1029  0.1338
  449DPPI   C1B 6959  12.130   0.286   9.398 -0.0566 -0.0343 -0.1144
  449DPPI   C2B 6960  12.244   0.292   8.884  0.1453  0.0016 -0.1073
  449DPPI   C3B 6961  12.467   0.400   8.445 -0.2964  0.3279 -0.2295
  449DPPI   C4B 6962  12.733   0.569   8.214  0.0022 -0.0602 -0.2121
  450DPPI    C1 6963   4.951   3.868  10.941 -0.0984 -0.1545  0.0240
  450DPPI    C2 6964   4.570   3.760  11.001 -0.1063 -0.3119 -0.2853
  450DPPI    C3 6965   4.863   3.489  11.034 -0.0149 -0.1842 -0.0166
  450DPPI   PO4 6966   4.972   4.004  10.599  0.0439  0.0907 -0.0756
  450DPPI   GL1 6967   4.800   4.018  10.166  0.1994 -0.0694 -0.3298
  450DPPI   GL2 6968   4.949   4.263  10.129 -0.1706 -0.0774  0.2225
  450DPPI   C1A 6969   4.673   3.621  10.002  0.4830  0.0987  0.0099
  450DPPI   C2A 6970   4.834   3.486   9.542  0.0762 -0.2618 -0.0193
  450DPPI   C3A 6971   5.122   3.641   9.298 -0.1021 -0.1893  0.0900
  450DPPI   C4A 6972   5.530   3.915   9.477  0.0093 -0.3218  0.0246
  450DPPI   C1B 6973   4.730   4.464   9.778 -0.2939 -0.0590 -0.0823
  450DPPI   C2B 6974   4.783   4.449   9.293  0.1827 -0.1445  0.0250
  450DPPI   C3B 6975   4.668   4.503   8.854  0.0366  0.2290  0.2798
  450DPPI   C4B 6976   4.888   4.586   8.462  0.0150  0.0051  0.2032
  451DPPI    C1 6977  12.145  15.808  10.906 -0.1201  0.0520 -0.0606
  451DPPI    C2 6978  12.442  15.540  10.910  0.0227  0.2098  0.0042
  451DPPI    C3 6979  12.095  15.457  11.091  0.1703  0.1857  0.2821
  451DPPI   PO4 6980  12.028  15.914  10.611 -0.0423  0.0958 -0.0793
  451DPPI   GL1 6981  11.984  15.771  10.159  0.0051  0.0945  0.1523
  451DPPI   GL2 6982  11.833  16.091  10.116  0.1656  0.2017 -0.0062
  451DPPI   C1A 6983  11.857  15.699   9.693  0.0664 -0.2796  0.0549
  451DPPI   C2A 6984  11.934  15.653   9.306  0.1670 -0.2222  0.1197
  451DPPI   C3A 6985  11.979  15.700   8.818 -0.2872  0.3196  0.2295
  451DPPI   C4A 6986  12.083  15.808   8.415 -0.0208 -0.0728 -0.0550
  451DPPI   C1B 6987  11.838  16.214   9.662 -0.1092  0.0149 -0.1525
  451DPPI   C2B 6988  12.007  16.152   9.321 -0.0109  0.1073  0.1513
  451DPPI   C3B 6989  11.900  16.205   8.995 -0.2113  0.1231 -0.2306
  451DPPI   C4B 6990  11.766  16.228   8.661  0.1689  0.1812 -0.0642
  452DPPI    C1 6991   0.103   4.605  10.779  0.2077  0.3553 -0.1156
  452DPPI    C2 6992   0.322   4.464  11.083  0.0023  0.2369 -0.0202
  452DPPI    C3 6993  -0.006   4.681  11.156 -0.1167  0.1045 -0.1541
  452DPPI   PO4 6994   0.145   4.374  10.649 -0.1926 -0.1242  0.0809
  452DPPI   GL1 6995   0.104   4.267  10.161 -0.2180 -0.1521 -0.1154
  452DPPI   GL2 6996  -0.087   4.122  10.055  0.0326  0.0232  0.1315
  452DPPI   C1A 6997   0.414   4.157   9.842 -0.0036  0.1642  0.1688
  452DPPI   C2A 6998   0.294   4.408   9.440  0.0484  0.2895 -0.2227
  452DPPI   C3A 6999   0.311   4.441   9.055 -0.0267  0.0588 -0.0503
  452DPPI   C4A 7000   0.271   4.766   8.823  0.1195 -0.2393 -0.0565
  452DPPI   C1B 7001  -0.134   4.249   9.679  0.0556  0.0382  0.3180
  452DPPI   C2B 7002  -0.181   4.278   9.280 -0.1154  0.0892  0.0507
  452DPPI   C3B 7003  -0.145   4.326   8.887  0.3869  0.1504 -0.2256
  452DPPI   C4B 7004  -0.277   4.441   8.453  0.0810 -0.1101 -0.4803
  453DPPI    C1 7005  15.407  14.296  11.177 -0.0710  0.1468  0.1091
  453DPPI    C2 7006  15.378  13.945  11.365  0.1700  0.0427 -0.0433
  453DPPI    C3 7007  15.108  14.231  11.434 -0.0023 -0.1548  0.1164
  453DPPI   PO4 7008  15.478  14.229  10.934 -0.2870  0.1969  0.0957
  453DPPI   GL1 7009  15.485  14.009  10.531  0.1438 -0.1135  0.0893
  453DPPI   GL2 7010  15.779  13.991  10.542 -0.2829 -0.0804 -0.3987
  453DPPI   C1A 7011  15.423  14.031  10.116  0.1205 -0.0656  0.1593
  453DPPI   C2A 7012  15.265  14.048   9.646  0.1026 -0.0756  0.3116
  453DPPI   C3A 7013  15.008  14.097   9.234 -0.0925 -0.3524  0.1712
  453DPPI   C4A 7014  14.799  14.269   8.809 -0.0373 -0.3552  0.1903
  453DPPI   C1B 7015  15.917  14.082  10.061 -0.1419 -0.1371  0.1751
  453DPPI   C2B 7016  15.807  14.109   9.649 -0.1274 -0.1202 -0.3288
  453DPPI   C3B 7017  15.923  14.329   9.334 -0.2761  0.0444  0.1042
  453DPPI   C4B 7018  16.119  14.459   8.919 -0.0327 -0.1850  0.1755
  454DPPI    C1 7019   9.057   6.715  10.699  0.1970 -0.1633  0.0596
  454DPPI    C2 7020   9.414   6.870  10.609  0.1032 -0.0728 -0.1636
  454DPPI    C3 7021   9.371   6.645  10.937  0.3478 -0.0251 -0.0963
  454DPPI   PO4 7022   8.895   6.745  10.502 -0.3360  0.3250 -0.3161
  454DPPI   GL1 7023   8.901   6.783  10.052 -0.1805 -0.0128 -0.1509
  454DPPI   GL2 7024   8.796   6.594   9.867  0.1989  0.2088 -0.0865
  454DPPI   C1A 7025   9.210   6.850   9.722  0.0797  0.2844 -0.2105
  454DPPI   C2A 7026   9.269   6.919   9.242 -0.0279  0.3343 -0.1294
  454DPPI   C3A 7027   9.403   7.016   8.848 -0.1145  0.0360  0.0390
  454DPPI   C4A 7028   9.360   7.270   8.403 -0.2430 -0.0747 -0.1430
  454DPPI   C1B 7029   8.922   6.549   9.455  0.0359 -0.3245 -0.0602
  454DPPI   C2B 7030   8.958   6.593   9.010 -0.3662  0.1334 -0.2077
  454DPPI   C3B 7031   8.943   6.771   8.587 -0.0592 -0.0143  0.1609
  454DPPI   C4B 7032   8.903   6.962   8.081 -0.1439 -0.1566 -0.0788
  455DPPI    C1 7033   6.721   9.302  10.564 -0.0222 -0.1785 -0.0845
  455DPPI    C2 7034   6.462   9.196  10.850 -0.0814  0.0572 -0.0486
  455DPPI    C3 7035   6.837   9.056  10.858 -0.1335 -0.0798  0.0435
  455DPPI   PO4 7036   6.474   9.232  10.382 -0.0608 -0.0591 -0.0171
  455DPPI   GL1 7037   6.452   9.344   9.929 -0.0390 -0.1956 -0.0987
  455DPPI   GL2 7038   6.521   9.380   9.576 -0.2230 -0.0813  0.0416
  455DPPI   C1A 7039   6.166   9.087   9.661  0.5229  0.0326 -0.1353
  455DPPI   C2A 7040   6.178   8.937   9.349  0.1063  0.1572 -0.2822
  455DPPI   C3A 7041   6.028   8.787   9.050  0.0364 -0.1591  0.1695
  455DPPI   C4A 7042   5.829   8.698   8.619  0.3204  0.0657  0.0836
  455DPPI   C1B 7043   6.549   9.287   9.197 -0.2284  0.0801 -0.1330
  455DPPI   C2B 7044   6.458   9.516   8.888  0.1145  0.2114  0.0141
  455DPPI   C3B 7045   6.353   9.361   8.608 -0.1266 -0.3204  0.0561
  455DPPI   C4B 7046   6.329   9.311   8.114  0.0509  0.0384 -0.1513
  456DPPI    C1 7047   6.193   9.811  10.209 -0.0439 -0.4201  0.1585
  456DPPI    C2 7048   5.800   9.864  10.255 -0.0529 -0.1672 -0.1762
  456DPPI    C3 7049   6.058  10.084  10.468 -0.0920 -0.1887 -0.1064
  456DPPI   PO4 7050   6.200   9.765   9.930 -0.0584 -0.0489 -0.1239
  456DPPI   GL1 7051   6.321  10.012   9.671 -0.0301  0.1153  0.3469
  456DPPI   GL2 7052   6.280  10.264   9.610  0.0640  0.0547  0.0601
  456DPPI   C1A 7053   6.354   9.788   9.280 -0.0472  0.2783 -0.0583
  456DPPI   C2A 7054   6.250  10.011   8.863 -0.0345  0.1818  0.2345
  456DPPI   C3A 7055   6.351   9.965   8.430  0.1202  0.1925 -0.2745
  456DPPI   C4A 7056   6.590  10.138   8.085  0.1127 -0.3246  0.0663
  456DPPI   C1B 7057   6.163  10.337   9.181 -0.1430  0.0391  0.2859
  456DPPI   C2B 7058   6.220  10.579   8.697  0.2248  0.1387 -0.0541
  456DPPI   C3B 7059   6.324  10.580   8.250  0.5718  0.1812 -0.2766
  456DPPI   C4B 7060   6.535  10.700   7.833  0.1209  0.0760 -0.4681
  457DPPI    C1 7061   8.697   2.842  10.452 -0.1763 -0.0385 -0.2797
  457DPPI    C2 7062   8.730   2.684  10.086  0.2367 -0.1449 -0.2007
  457DPPI    C3 7063   8.866   2.483  10.404 -0.0944 -0.0413  0.0109
  457DPPI   PO4 7064   8.871   3.107  10.402 -0.0130  0.1288 -0.3020
  457DPPI   GL1 7065   9.056   3.387  10.208 -0.0816 -0.0939 -0.2293
  457DPPI   GL2 7066   9.340   3.585  10.202  0.0731  0.0789 -0.4132
  457DPPI   C1A 7067   9.296   3.218   9.827 -0.1776 -0.2525  0.1089
  457DPPI   C2A 7068   9.365   3.082   9.402  0.0050  0.1209  0.1020
  457DPPI   C3A 7069   9.643   3.293   9.104 -0.0622  0.0239  0.0647
  457DPPI   C4A 7070   9.753   3.454   8.688 -0.2183  0.2588  0.0475
  457DPPI   C1B 7071   9.020   3.759   9.822  0.0289 -0.2189 -0.1749
  457DPPI   C2B 7072   8.961   3.951   9.485 -0.1714  0.1670  0.0020
  457DPPI   C3B 7073   9.058   3.947   9.079  0.2751 -0.4653  0.3518
  457DPPI   C4B 7074   9.350   3.654   8.848 -0.0044  0.1501  0.0398
  458DPPI    C1 7075  10.692   6.627  10.773  0.0759  0.0080  0.0306
  458DPPI    C2 7076  10.339   6.808  10.817  0.0218 -0.0109 -0.2965
  458DPPI    C3 7077  10.530   6.661  11.136 -0.1446  0.2225 -0.0851
  458DPPI   PO4 7078  10.808   6.811  10.564 -0.1587 -0.1704 -0.2990
  458DPPI   GL1 7079  11.058   6.755  10.202  0.3646 -0.0930  0.0803
  458DPPI   GL2 7080  10.692   6.547  10.194  0.2288  0.0988  0.0431
  458DPPI   C1A 7081  11.213   6.743   9.927  0.3226 -0.0210 -0.0089
  458DPPI   C2A 7082  11.359   6.648   9.597  0.1576 -0.0232 -0.2244
  458DPPI   C3A 7083  11.451   6.613   9.226  0.2347 -0.2267 -0.3227
  458DPPI   C4A 7084  11.256   6.430   8.880 -0.2694 -0.0035 -0.0144
  458DPPI   C1B 7085  10.721   6.697   9.804 -0.1385 -0.2322  0.2725
  458DPPI   C2B 7086  10.914   6.806   9.325 -0.1849 -0.2091 -0.2531
  458DPPI   C3B 7087  10.795   6.581   9.009  0.3315 -0.1690 -0.3286
  458DPPI   C4B 7088  10.687   6.718   8.646 -0.1084  0.2289  0.0684
  459DPPI    C1 7089   4.242   8.317  10.850 -0.3152 -0.1298 -0.0119
  459DPPI    C2 7090   3.995   8.289  11.164 -0.0878 -0.1444  0.1692
  459DPPI    C3 7091   4.350   8.468  11.205 -0.1049 -0.0408 -0.1123
  459DPPI   PO4 7092   4.098   8.420  10.668  0.2350 -0.0440 -0.0764
  459DPPI   GL1 7093   3.859   8.489  10.299  0.1237  0.4434  0.4541
  459DPPI   GL2 7094   4.063   8.530   9.918 -0.1689 -0.0251  0.2815
  459DPPI   C1A 7095   3.552   8.300   9.922 -0.0107 -0.2730 -0.0935
  459DPPI   C2A 7096   3.753   8.302   9.480  0.1968 -0.1437  0.1057
  459DPPI   C3A 7097   3.699   8.315   9.026  0.1303  0.0159 -0.2549
  459DPPI   C4A 7098   3.654   8.579   8.721  0.1634 -0.1991 -0.2248
  459DPPI   C1B 7099   4.192   8.577   9.435  0.2401 -0.0764  0.2944
  459DPPI   C2B 7100   4.126   8.604   8.961  0.2240  0.1608 -0.0275
  459DPPI   C3B 7101   4.149   8.587   8.559  0.3108 -0.2391 -0.0440
  459DPPI   C4B 7102   3.988   8.903   8.482 -0.0634 -0.0176  0.4230
  460DPPI    C1 7103   6.554  16.968  10.835 -0.0534 -0.0422  0.0536
  460DPPI    C2 7104   6.843  17.211  10.965 -0.0188  0.1294 -0.3286
  460DPPI    C3 7105   6.543  17.109  11.209  0.4230 -0.1552  0.1169
  460DPPI   PO4 7106   6.499  17.114  10.575 -0.2441 -0.3908  0.0422
  460DPPI   GL1 7107   6.327  17.211  10.251 -0.2218  0.3882  0.1803
  460DPPI   GL2 7108   6.368  17.529  10.080  0.1785 -0.1638  0.5130
  460DPPI   C1A 7109   6.314  17.039   9.907  0.0421 -0.0044 -0.2966
  460DPPI   C2A 7110   6.236  17.114   9.428  0.0124  0.3322 -0.0371
  460DPPI   C3A 7111   6.216  17.008   9.064  0.3864  0.1849 -0.0253
  460DPPI   C4A 7112   5.999  16.989   8.714 -0.2747  0.1492 -0.0823
  460DPPI   C1B 7113   6.354  17.663   9.629  0.0294 -0.1462  0.2137
  460DPPI   C2B 7114   6.231  17.590   9.249 -0.0379 -0.0362 -0.1698
  460DPPI   C3B 7115   6.295  17.448   8.820 -0.1211  0.3562 -0.2312
  460DPPI   C4B 7116   6.298  17.308   8.391  0.3193  0.1500 -0.0412
  461DPPI    C1 7117  12.470   5.549  10.667 -0.1900 -0.0349  0.2406
  461DPPI    C2 7118  12.486   5.773  10.336  0.1889 -0.2079  0.1361
  461DPPI    C3 7119  12.567   5.936  10.692 -0.1023 -0.0491  0.1326
  461DPPI   PO4 7120  12.459   5.338  10.575 -0.0479  0.2563 -0.0549
  461DPPI   GL1 7121  12.267   5.266  10.217  0.1401  0.0469  0.0180
  461DPPI   GL2 7122  12.079   5.553  10.168  0.2367  0.2839 -0.2180
  461DPPI   C1A 7123  12.413   5.457   9.755 -0.0645 -0.0831  0.1182
  461DPPI   C2A 7124  12.553   5.449   9.345 -0.0892  0.3194 -0.0094
  461DPPI   C3A 7125  12.827   5.345   9.036 -0.1680 -0.0971 -0.4943
  461DPPI   C4A 7126  13.024   5.461   8.618 -0.3307  0.0357 -0.1409
  461DPPI   C1B 7127  11.779   5.404   9.942  0.3914  0.0931  0.1480
  461DPPI   C2B 7128  11.579   5.071   9.597  0.0550 -0.1355  0.1151
  461DPPI   C3B 7129  11.720   5.191   9.132  0.1449 -0.1290 -0.0735
  461DPPI   C4B 7130  11.946   5.105   8.705 -0.1058  0.0930 -0.0092
  462DPPI    C1 7131   7.682   1.378  10.763 -0.1382  0.1140 -0.2074
  462DPPI    C2 7132   7.720   0.999  10.885  0.1160  0.2260  0.0745
  462DPPI    C3 7133   7.406   1.217  11.003  0.0275  0.1386  0.0022
  462DPPI   PO4 7134   7.849   1.287  10.497 -0.3425  0.2602  0.0412
  462DPPI   GL1 7135   7.769   1.014  10.192 -0.0866  0.1583  0.0108
  462DPPI   GL2 7136   7.577   0.937  10.042 -0.3465 -0.0214 -0.2727
  462DPPI   C1A 7137   8.022   1.007   9.867 -0.1674  0.0350  0.3499
  462DPPI   C2A 7138   8.119   1.080   9.477  0.3614 -0.1742 -0.0844
  462DPPI   C3A 7139   7.958   0.898   9.024  0.1318  0.0365  0.0921
  462DPPI   C4A 7140   7.790   0.689   8.638 -0.2313 -0.1378 -0.0228
  462DPPI   C1B 7141   7.667   0.746   9.689 -0.1498 -0.1416 -0.3921
  462DPPI   C2B 7142   7.720   0.616   9.335 -0.1382 -0.2595 -0.2637
  462DPPI   C3B 7143   7.653   0.302   8.951 -0.3035  0.2394 -0.2660
  462DPPI   C4B 7144   7.772  -0.074   8.727  0.1430  0.2102  0.1470
  463DPPI    C1 7145   7.833   3.573  10.560 -0.1941  0.1561 -0.1575
  463DPPI    C2 7146   8.038   3.867  10.737 -0.0574  0.0572 -0.1501
  463DPPI    C3 7147   7.644   3.835  10.797 -0.0748  0.2433 -0.1578
  463DPPI   PO4 7148   7.924   3.575  10.330  0.2373 -0.1064  0.0016
  463DPPI   GL1 7149   8.013   3.668   9.909 -0.0119  0.0658 -0.1884
  463DPPI   GL2 7150   8.159   3.379   9.760 -0.4310 -0.1828 -0.0455
  463DPPI   C1A 7151   7.978   3.825   9.516 -0.1433 -0.0469 -0.0577
  463DPPI   C2A 7152   8.056   3.764   9.040  0.3148  0.1677  0.2520
  463DPPI   C3A 7153   8.058   3.987   8.729  0.1276 -0.1565  0.0962
  463DPPI   C4A 7154   8.022   4.085   8.399 -0.0642 -0.2835 -0.0087
  463DPPI   C1B 7155   8.306   3.390   9.345  0.0464 -0.0804  0.1929
  463DPPI   C2B 7156   8.380   3.408   8.850  0.2937 -0.0656 -0.0457
  463DPPI   C3B 7157   8.080   3.437   8.508 -0.0686  0.2651  0.0725
  463DPPI   C4B 7158   7.854   3.267   8.151  0.1815  0.2179 -0.0864
  464DPPI    C1 7159   3.601   6.045  11.003  0.5396  0.4237 -0.0563
  464DPPI    C2 7160   3.384   6.362  10.892 -0.2138 -0.0864 -0.1217
  464DPPI    C3 7161   3.366   6.230  11.269  0.0894 -0.0658 -0.0969
  464DPPI   PO4 7162   3.804   6.121  10.758 -0.0711  0.2105  0.0975
  464DPPI   GL1 7163   3.814   6.312  10.275  0.2095  0.2089 -0.2409
  464DPPI   GL2 7164   4.007   6.726  10.241 -0.1193  0.3517 -0.1488
  464DPPI   C1A 7165   3.861   6.391   9.881 -0.1905 -0.0103 -0.1930
  464DPPI   C2A 7166   4.113   6.402   9.557  0.1073  0.0097  0.0741
  464DPPI   C3A 7167   4.538   6.106   9.574 -0.5086 -0.1111  0.0216
  464DPPI   C4A 7168   4.842   6.079   9.884 -0.3817 -0.3465 -0.1031
  464DPPI   C1B 7169   4.097   6.811   9.811  0.1726  0.0092  0.0791
  464DPPI   C2B 7170   4.055   6.980   9.427 -0.3312 -0.2998 -0.1315
  464DPPI   C3B 7171   4.139   6.992   8.971 -0.0638 -0.4061 -0.0600
  464DPPI   C4B 7172   4.094   6.519   8.729  0.3241 -0.0349 -0.1545
  465DPPI    C1 7173   0.706   5.101  10.387 -0.0010  0.0492  0.2107
  465DPPI    C2 7174   1.078   5.096  10.240 -0.1619 -0.2577 -0.2049
  465DPPI    C3 7175   0.980   4.856  10.545  0.0368 -0.0029  0.0655
  465DPPI   PO4 7176   0.600   5.292  10.195  0.0578  0.0854  0.1195
  465DPPI   GL1 7177   0.713   5.334   9.741 -0.1299 -0.1077  0.3973
  465DPPI   GL2 7178   0.390   5.355   9.738  0.1595 -0.2830  0.0192
  465DPPI   C1A 7179   0.878   5.472   9.354  0.2600  0.2109 -0.2438
  465DPPI   C2A 7180   1.037   5.450   8.987 -0.0058 -0.3489  0.1519
  465DPPI   C3A 7181   1.250   5.562   8.588  0.2519 -0.1294 -0.0232
  465DPPI   C4A 7182   1.503   5.740   8.237 -0.2129 -0.0975  0.1251
  465DPPI   C1B 7183  -0.036   5.227   9.606  0.0821 -0.2513 -0.0069
  465DPPI   C2B 7184  -0.260   5.267   9.352  0.1234 -0.0060 -0.0774
  465DPPI   C3B 7185  -0.669   5.431   9.292  0.4767  0.2258 -0.1455
  465DPPI   C4B 7186  -0.813   5.247   9.041  0.2131 -0.1864 -0.3138
  466DPPI    C1 7187   1.218  10.554  11.134 -0.0492 -0.1534  0.4265
  466DPPI    C2 7188   1.594  10.687  11.105 -0.1536  0.0815  0.0891
  466DPPI    C3 7189   1.366  10.800  11.413 -0.0155  0.1106  0.1816
  466DPPI   PO4 7190   1.260  10.451  10.804  0.1127  0.0202 -0.0386
  466DPPI   GL1 7191   1.454  10.325  10.463  0.3381 -0.1435 -0.3844
  466DPPI   GL2 7192   1.639  10.068  10.434 -0.0789  0.1108 -0.2500
  466DPPI   C1A 7193   1.125  10.356  10.074 -0.4168  0.3762  0.0499
  466DPPI   C2A 7194   1.294  10.433   9.673  0.1017 -0.2116  0.3484
  466DPPI   C3A 7195   1.435  10.555   9.242 -0.0103 -0.1277  0.0193
  466DPPI   C4A 7196   1.759  10.692   9.091  0.0093 -0.4576  0.0409
  466DPPI   C1B 7197   1.691  10.414  10.035 -0.0506  0.0748 -0.3063
  466DPPI   C2B 7198   1.766  10.654   9.589 -0.0275 -0.1767 -0.2633
  466DPPI   C3B 7199   1.961  10.990   9.419  0.1739 -0.0583 -0.0030
  466DPPI   C4B 7200   2.181  11.306   9.373 -0.1398 -0.0488 -0.1694
  467DPPI    C1 7201  11.361   2.963  10.144  0.0648 -0.1081 -0.0125
  467DPPI    C2 7202  11.260   2.721  10.447  0.0246 -0.0504  0.0203
  467DPPI    C3 7203  11.200   3.116  10.477  0.0790 -0.0375 -0.0379
  467DPPI   PO4 7204  11.628   2.819  10.027 -0.0834  0.0183 -0.1057
  467DPPI   GL1 7205  11.883   2.830   9.656 -0.0911 -0.4188 -0.2689
  467DPPI   GL2 7206  12.157   2.936   9.427  0.0910 -0.1037  0.0564
  467DPPI   C1A 7207  11.706   2.968   9.170 -0.0384  0.1146 -0.4007
  467DPPI   C2A 7208  11.745   3.269   8.877 -0.2856  0.0871  0.1117
  467DPPI   C3A 7209  11.932   3.291   8.387 -0.1832 -0.3087 -0.2683
  467DPPI   C4A 7210  12.128   2.960   8.124  0.1340 -0.3537  0.2134
  467DPPI   C1B 7211  12.202   2.973   9.025 -0.2173 -0.0609  0.1037
  467DPPI   C2B 7212  12.071   2.903   8.631 -0.0180 -0.0855  0.3247
  467DPPI   C3B 7213  11.579   2.893   8.609  0.0485  0.4952 -0.2784
  467DPPI   C4B 7214  11.075   2.789   8.568  0.1187  0.1967  0.0318
  468DPPI    C1 7215   7.321   8.045  10.208 -0.0125  0.2042 -0.1884
  468DPPI    C2 7216   7.255   8.411  10.356  0.1918  0.2118 -0.1115
  468DPPI    C3 7217   7.189   8.088  10.583  0.2042  0.2095 -0.1113
  468DPPI   PO4 7218   7.230   8.020   9.950 -0.1579 -0.1953 -0.2608
  468DPPI   GL1 7219   7.035   7.907   9.655  0.0517  0.0224 -0.1580
  468DPPI   GL2 7220   6.861   8.159   9.592  0.2046 -0.0957  0.0934
  468DPPI   C1A 7221   6.973   7.847   9.191 -0.4315 -0.1376 -0.0702
  468DPPI   C2A 7222   7.017   7.917   8.868 -0.3681  0.0909  0.0650
  468DPPI   C3A 7223   6.813   7.948   8.416  0.2341  0.0098 -0.2702
  468DPPI   C4A 7224   7.020   8.126   8.036 -0.0808  0.0010  0.2083
  468DPPI   C1B 7225   6.668   8.270   9.166 -0.2000  0.1154 -0.0776
  468DPPI   C2B 7226   6.551   8.021   8.853 -0.0512 -0.1678  0.2184
  468DPPI   C3B 7227   6.073   7.984   8.699 -0.1838  0.0139  0.1448
  468DPPI   C4B 7228   5.896   8.238   8.481  0.2675  0.0562  0.3661
  469DPPI    C1 7229   7.769   0.143  10.711 -0.1150 -0.0737  0.1358
  469DPPI    C2 7230   7.432   0.052  10.906 -0.1588 -0.0007  0.0946
  469DPPI    C3 7231   7.785   0.016  11.090 -0.1912 -0.0462  0.1483
  469DPPI   PO4 7232   7.737   0.058  10.447 -0.0301  0.0129 -0.1491
  469DPPI   GL1 7233   7.645  -0.011  10.032 -0.0681  0.0059  0.1983
  469DPPI   GL2 7234   7.996  -0.075  10.046  0.1123  0.1127  0.2657
  469DPPI   C1A 7235   7.489  -0.133   9.611  0.0879  0.1610  0.0823
  469DPPI   C2A 7236   7.435  -0.378   9.268  0.2337 -0.0471 -0.0061
  469DPPI   C3A 7237   7.319  -0.270   8.862 -0.1155 -0.1042 -0.0458
  469DPPI   C4A 7238   7.443  -0.391   8.447 -0.0717  0.1116 -0.0426
  469DPPI   C1B 7239   7.967  -0.303   9.722  0.1920 -0.0019 -0.2393
  469DPPI   C2B 7240   7.877  -0.626   9.582  0.2178  0.2739 -0.3079
  469DPPI   C3B 7241   7.811  -0.886   9.222 -0.3593 -0.1695 -0.2723
  469DPPI   C4B 7242   7.711  -1.162   8.916  0.1057  0.0293  0.1099
  470DPPI    C1 7243   4.329   4.654  11.109 -0.0160 -0.1542 -0.0113
  470DPPI    C2 7244   4.048   4.939  11.127  0.0797 -0.0698  0.1753
  470DPPI    C3 7245   3.969   4.571  11.263 -0.0683 -0.1560 -0.1329
  470DPPI   PO4 7246   4.504   4.724  10.811  0.1323  0.0958 -0.1704
  470DPPI   GL1 7247   4.622   4.366  10.485 -0.1709 -0.2380 -0.0770
  470DPPI   GL2 7248   4.844   4.677  10.399  0.1896 -0.0946 -0.0621
  470DPPI   C1A 7249   4.352   4.578  10.129 -0.0774  0.1106  0.0839
  470DPPI   C2A 7250   3.997   4.472   9.803 -0.0442  0.2283  0.4075
  470DPPI   C3A 7251   3.677   4.452   9.459 -0.0617 -0.2153 -0.3199
  470DPPI   C4A 7252   3.526   4.723   9.223  0.0048  0.1508  0.3141
  470DPPI   C1B 7253   4.796   4.910  10.074 -0.1392  0.3752  0.0463
  470DPPI   C2B 7254   4.395   5.141   9.954 -0.0692 -0.0828  0.0678
  470DPPI   C3B 7255   3.925   4.963   9.853 -0.1153  0.0526  0.2467
  470DPPI   C4B 7256   3.539   4.913   9.746 -0.0535 -0.2491 -0.1883
  471DPPI    C1 7257   6.853   8.666  10.401 -0.0938 -0.2166 -0.3194
  471DPPI    C2 7258   6.532   8.789  10.604  0.0069 -0.1708 -0.1868
  471DPPI    C3 7259   6.777   8.516  10.763  0.0220 -0.2219 -0.2968
  471DPPI   PO4 7260   6.789   8.866  10.105  0.1132  0.1853 -0.1821
  471DPPI   GL1 7261   6.756   8.941   9.710 -0.1246  0.3580  0.0508
  471DPPI   GL2 7262   6.511   8.720   9.594 -0.2003  0.2337 -0.0337
  471DPPI   C1A 7263   7.025   9.175   9.294 -0.1308 -0.0953 -0.2441
  471DPPI   C2A 7264   7.315   9.039   8.889 -0.0653  0.0970 -0.0255
  471DPPI   C3A 7265   7.195   8.838   8.413  0.0881 -0.3602 -0.1433
  471DPPI   C4A 7266   7.358   8.499   8.149  0.1607 -0.1825  0.0666
  471DPPI   C1B 7267   6.662   8.838   9.151 -0.0731 -0.3420  0.0379
  471DPPI   C2B 7268   6.698   8.938   8.712  0.1385 -0.0586 -0.1042
  471DPPI   C3B 7269   6.721   9.165   8.361  0.0039 -0.1134 -0.0217
  471DPPI   C4B 7270   7.003   9.271   8.089 -0.2752 -0.1526 -0.1654
  472DPPI    C1 7271   6.718   7.927  10.021  0.2701 -0.0679 -0.1187
  472DPPI    C2 7272   6.515   8.272  10.007 -0.1281 -0.3055 -0.4146
  472DPPI    C3 7273   6.781   8.208  10.299 -0.0972  0.2211 -0.3174
  472DPPI   PO4 7274   6.495   7.783  10.050 -0.3169 -0.4150 -0.1014
  472DPPI   GL1 7275   6.317   7.809   9.686  0.1726 -0.2562 -0.3404
  472DPPI   GL2 7276   6.523   7.860   9.468  0.2667  0.0231 -0.3286
  472DPPI   C1A 7277   6.020   7.512   9.452 -0.1405 -0.1791 -0.0464
  472DPPI   C2A 7278   5.656   7.469   9.319 -0.3978  0.1594  0.3593
  472DPPI   C3A 7279   5.490   7.349   8.857 -0.0727 -0.1233  0.1029
  472DPPI   C4A 7280   5.468   7.088   8.567 -0.1256  0.1650 -0.0497
  472DPPI   C1B 7281   6.191   7.776   9.098 -0.0911 -0.1566 -0.1303
  472DPPI   C2B 7282   6.018   7.453   8.895 -0.4093 -0.1710  0.0524
  472DPPI   C3B 7283   5.860   7.438   8.485  0.0083  0.1783  0.0722
  472DPPI   C4B 7284   5.649   7.519   8.114  0.1447 -0.1871  0.2614
  473PYPI    C1 7285   2.488  15.252  11.160 -0.0465 -0.0705 -0.3021
  473PYPI    C2 7286   2.795  14.999  11.207  0.0697  0.0733 -0.2813
  473PYPI    C3 7287   2.504  15.014  11.481  0.1027  0.0181 -0.2431
  473PYPI   PO4 7288   2.390  15.199  10.905 -0.3618  0.2603  0.0245
  473PYPI   GL1 7289   2.393  15.352  10.486 -0.0601 -0.2416 -0.1064
  473PYPI   GL2 7290   2.285  15.099  10.259  0.2350 -0.2732  0.3078
  473PYPI   C1A 7291   2.553  15.613  10.116  0.1072 -0.0103 -0.1049
  473PYPI   C2A 7292   2.695  15.511   9.753  0.0137  0.1705 -0.1843
  473PYPI   D3A 7293   2.999  15.339   9.383  0.2081  0.2654  0.1702
  473PYPI   C4A 7294   3.179  15.210   9.148  0.2798 -0.2309 -0.0417
  473PYPI   C1B 7295   2.290  15.216   9.802 -0.1272  0.0098  0.3351
  473PYPI   C2B 7296   2.504  15.256   9.385  0.0373 -0.0514  0.2041
  473PYPI   C3B 7297   2.672  15.317   9.057  0.0407  0.0754 -0.1049
  473PYPI   C4B 7298   2.710  15.042   8.624  0.0360  0.1456 -0.1798
  474PYPI    C1 7299   4.063   7.128  10.800  0.1627 -0.0100 -0.0038
  474PYPI    C2 7300   3.801   7.263  11.070  0.0342  0.1338 -0.1979
  474PYPI    C3 7301   4.193   7.311  11.131  0.0085  0.1097 -0.0081
  474PYPI   PO4 7302   3.884   7.092  10.570 -0.1764 -0.0468  0.1965
  474PYPI   GL1 7303   4.087   7.284  10.178  0.4321  0.3212 -0.3667
  474PYPI   GL2 7304   4.175   7.551  10.290  0.0392 -0.1555  0.0303
  474PYPI   C1A 7305   3.898   7.239   9.811  0.1589 -0.2074 -0.0251
  474PYPI   C2A 7306   3.662   7.312   9.405 -0.1614 -0.0288  0.1282
  474PYPI   D3A 7307   3.449   7.208   9.111  0.1687  0.1850  0.0788
  474PYPI   C4A 7308   3.594   7.304   8.707  0.2411 -0.0233 -0.1452
  474PYPI   C1B 7309   4.269   7.603   9.784 -0.3812 -0.0466 -0.2021
  474PYPI   C2B 7310   4.179   7.518   9.350  0.3661  0.2300 -0.1392
  474PYPI   C3B 7311   3.942   7.452   9.029  0.1261 -0.2245  0.0402
  474PYPI   C4B 7312   4.024   7.478   8.680 -0.2082 -0.0531 -0.0808
  475PYPI    C1 7313   0.273   1.850  10.390  0.0639  0.3533  0.1157
  475PYPI    C2 7314   0.592   2.075  10.302  0.2233  0.1685  0.2114
  475PYPI    C3 7315   0.270   2.242  10.470  0.3049  0.3402  0.1995
  475PYPI   PO4 7316   0.307   1.624  10.287 -0.1106  0.3232 -0.2535
  475PYPI   GL1 7317   0.349   1.503   9.844 -0.3045  0.0886 -0.1472
  475PYPI   GL2 7318   0.335   1.864   9.858 -0.0245 -0.0765 -0.4212
  475PYPI   C1A 7319   0.608   1.537   9.613 -0.0965  0.1618 -0.2283
  475PYPI   C2A 7320   0.778   1.446   9.268  0.0694 -0.1784 -0.2211
  475PYPI   D3A 7321   0.958   1.407   8.883 -0.1231  0.2991 -0.2833
  475PYPI   C4A 7322   1.140   1.005   8.805 -0.1142 -0.2992  0.2013
  475PYPI   C1B 7323   0.528   2.010   9.428 -0.2408 -0.0470 -0.1365
  475PYPI   C2B 7324   0.592   1.856   8.999 -0.0535 -0.1103 -0.0363
  475PYPI   C3B 7325   0.871   1.994   8.740  0.0629  0.0725 -0.2033
  475PYPI   C4B 7326   1.150   1.767   8.435  0.0810  0.1364  0.0189
  476PYPI    C1 7327  12.725   9.836  10.943  0.0815  0.1011 -0.2717
  476PYPI    C2 7328  12.859  10.211  10.984 -0.1431  0.1334  0.2499
  476PYPI    C3 7329  12.741  10.004  11.305 -0.0266 -0.3891 -0.0310
  476PYPI   PO4 7330  12.519   9.841  10.753  0.0661 -0.0908 -0.0334
  476PYPI   GL1 7331  12.323   9.815  10.406  0.0881  0.0978  0.2330
  476PYPI   GL2 7332  12.582   9.675  10.264  0.2696 -0.1270  0.4131
  476PYPI   C1A 7333  12.288   9.910   9.941 -0.0212  0.0510 -0.0374
  476PYPI   C2A 7334  12.456   9.909   9.495  0.2664  0.2127  0.0149
  476PYPI   D3A 7335  12.681   9.685   9.305  0.0999  0.0933  0.2699
  476PYPI   C4A 7336  12.803   9.752   8.849  0.4510  0.1170  0.4429
  476PYPI   C1B 7337  12.747   9.660   9.842  0.3483 -0.1986  0.0414
  476PYPI   C2B 7338  13.167   9.665   9.646  0.0202 -0.2157  0.1199
  476PYPI   C3B 7339  13.545   9.712   9.532 -0.0073 -0.2974  0.0394
  476PYPI   C4B 7340  13.692   9.740   9.094 -0.3428  0.0367 -0.2534
  477PYPI    C1 7341  10.525  17.227  11.003  0.2340  0.0047 -0.0834
  477PYPI    C2 7342  10.646  16.851  11.068  0.1239  0.0275  0.2752
  477PYPI    C3 7343  10.750  17.142  11.323 -0.0591  0.1821  0.1760
  477PYPI   PO4 7344  10.553  17.318  10.829 -0.4565  0.2423  0.1632
  477PYPI   GL1 7345  10.368  17.292  10.443  0.3586  0.0155  0.1777
  477PYPI   GL2 7346  10.453  17.549  10.415  0.1114 -0.1285  0.0086
  477PYPI   C1A 7347  10.172  17.340   9.967  0.0785 -0.0671  0.0803
  477PYPI   C2A 7348  10.019  17.513   9.557 -0.1020  0.1160 -0.3469
  477PYPI   D3A 7349  10.034  17.630   9.144 -0.0379  0.0746 -0.1514
  477PYPI   C4A 7350  10.147  17.531   8.737 -0.0371  0.0171  0.5507
  477PYPI   C1B 7351  10.556  17.530  10.063  0.1972 -0.2567 -0.3186
  477PYPI   C2B 7352  10.527  17.662   9.690 -0.1485  0.1987  0.1359
  477PYPI   C3B 7353  10.458  17.780   9.288  0.2737  0.0160 -0.1021
  477PYPI   C4B 7354  10.685  17.908   8.977  0.1616  0.2285  0.0952
  478PYPI    C1 7355   8.309   1.608  10.602 -0.3346  0.2423 -0.0916
  478PYPI    C2 7356   8.099   1.489  10.921 -0.1342  0.2546  0.0471
  478PYPI    C3 7357   8.426   1.714  10.970  0.1377 -0.0923 -0.1374
  478PYPI   PO4 7358   8.328   1.419  10.481  0.2776  0.0321  0.0459
  478PYPI   GL1 7359   8.319   1.171  10.163  0.0865 -0.0236  0.0972
  478PYPI   GL2 7360   8.580   0.980  10.318  0.0925  0.2690 -0.3314
  478PYPI   C1A 7361   8.480   1.341   9.726 -0.4596 -0.3425  0.2241
  478PYPI   C2A 7362   8.553   1.423   9.413 -0.2015  0.0145 -0.2365
  478PYPI   D3A 7363   8.782   1.434   9.172  0.3171  0.1896 -0.0100
  478PYPI   C4A 7364   9.007   1.122   9.225  0.1072  0.0261 -0.0508
  478PYPI   C1B 7365   8.747   0.850   9.957  0.2912  0.1206  0.2143
  478PYPI   C2B 7366   8.699   0.832   9.525  0.4051 -0.0586  0.1257
  478PYPI   C3B 7367   8.514   0.790   9.119  0.1333 -0.0643 -0.0974
  478PYPI   C4B 7368   8.612   0.955   8.777  0.2277  0.0353  0.0736
  479PYPI    C1 7369  11.546  12.072  10.917 -0.2036 -0.1665  0.2088
  479PYPI    C2 7370  11.570  12.463  10.999  0.0595 -0.0995 -0.1635
  479PYPI    C3 7371  11.696  12.194  11.267  0.1468  0.0813 -0.0213
  479PYPI   PO4 7372  11.695  12.092  10.647  0.0165  0.2628  0.0600
  479PYPI   GL1 7373  11.643  12.080  10.246  0.1468  0.1172 -0.1013
  479PYPI   GL2 7374  11.385  12.024   9.989 -0.0221  0.0674 -0.2417
  479PYPI   C1A 7375  11.934  12.234   9.983  0.1658  0.0228 -0.0999
  479PYPI   C2A 7376  12.249  12.265   9.692  0.4603 -0.0321  0.0129
  479PYPI   D3A 7377  12.244  12.480   9.479  0.1407 -0.1837  0.1284
  479PYPI   C4A 7378  12.064  12.375   9.138  0.0971  0.0590 -0.2245
  479PYPI   C1B 7379  11.331  12.095   9.545  0.1254 -0.2560  0.0953
  479PYPI   C2B 7380  11.152  12.125   9.165 -0.2733  0.1559 -0.2096
  479PYPI   C3B 7381  11.226  12.144   8.688 -0.0964  0.0106  0.0956
  479PYPI   C4B 7382  11.423  12.067   8.364  0.0759 -0.1361 -0.0690
  480PYPI    C1 7383  16.973   7.001  10.633 -0.0229 -0.0159 -0.1877
  480PYPI    C2 7384  17.276   7.203  10.797 -0.0058 -0.1856 -0.0060
  480PYPI    C3 7385  17.089   6.919  11.006 -0.4301  0.0600 -0.0394
  480PYPI   PO4 7386  17.045   6.960  10.420  0.2531  0.1895 -0.2031
  480PYPI   GL1 7387  17.054   6.908  10.012  0.0335 -0.2486  0.1083
  480PYPI   GL2 7388  17.393   7.028  10.143 -0.2424  0.0228  0.0804
  480PYPI   C1A 7389  17.026   7.046   9.657 -0.1417  0.2607 -0.1131
  480PYPI   C2A 7390  17.135   6.951   9.248  0.1908 -0.1976 -0.1722
  480PYPI   D3A 7391  17.353   6.871   8.906 -0.0155  0.0658 -0.2990
  480PYPI   C4A 7392  17.735   6.755   9.020  0.1349 -0.3466  0.1188
  480PYPI   C1B 7393  17.494   6.928   9.813 -0.0461 -0.1845 -0.1430
  480PYPI   C2B 7394  17.633   7.117   9.353  0.0490  0.1847 -0.0468
  480PYPI   C3B 7395  17.605   7.320   8.976 -0.0992 -0.2428  0.1452
  480PYPI   C4B 7396  17.651   7.675   8.668 -0.0572 -0.3542  0.0010
  481PYPI    C1 7397   9.156  11.744  10.616 -0.0979  0.6149 -0.0229
  481PYPI    C2 7398   9.484  11.789  10.841 -0.0295  0.4736 -0.0933
  481PYPI    C3 7399   9.122  11.812  11.009  0.0252 -0.0094  0.1056
  481PYPI   PO4 7400   9.258  11.544  10.380  0.4728 -0.0921  0.2804
  481PYPI   GL1 7401   9.168  11.600   9.976  0.1016  0.1357 -0.0721
  481PYPI   GL2 7402   8.910  11.458   9.862 -0.1663  0.4228 -0.1085
  481PYPI   C1A 7403   9.297  11.706   9.585 -0.1506 -0.1152  0.1003
  481PYPI   C2A 7404   9.547  11.752   9.111 -0.0347 -0.1358 -0.0589
  481PYPI   D3A 7405   9.807  11.883   8.704 -0.0711 -0.0091 -0.4398
  481PYPI   C4A 7406  10.026  11.673   8.432 -0.4136 -0.0010  0.0159
  481PYPI   C1B 7407   8.880  11.311   9.360 -0.2665 -0.1140 -0.0831
  481PYPI   C2B 7408   8.911  11.005   9.065  0.0676  0.0400  0.1900
  481PYPI   C3B 7409   9.095  10.856   8.717 -0.1225 -0.1649  0.3536
  481PYPI   C4B 7410   9.426  10.951   8.561 -0.0338 -0.0638 -0.1349
  482PYPI    C1 7411  15.481   0.594  10.172  0.1468  0.2090  0.0179
  482PYPI    C2 7412  15.185   0.817  10.021 -0.0121 -0.0656 -0.0845
  482PYPI    C3 7413  15.200   0.743  10.414 -0.0717 -0.0400 -0.0772
  482PYPI   PO4 7414  15.568   0.379   9.966 -0.0095  0.0854 -0.0881
  482PYPI   GL1 7415  15.527   0.502   9.613 -0.0796 -0.0673  0.2938
  482PYPI   GL2 7416  15.591   0.172   9.496 -0.4249  0.3583  0.1585
  482PYPI   C1A 7417  15.130   0.667   9.410  0.3335 -0.1734  0.0122
  482PYPI   C2A 7418  15.344   0.553   9.097 -0.0543  0.1578 -0.2753
  482PYPI   D3A 7419  15.445   0.501   8.695  0.0911  0.0350  0.0185
  482PYPI   C4A 7420  15.589   0.777   8.432  0.0907 -0.1619  0.0151
  482PYPI   C1B 7421  15.563   0.154   9.153 -0.2593 -0.1172 -0.0259
  482PYPI   C2B 7422  15.633   0.067   8.881  0.0680  0.1522  0.1935
  482PYPI   C3B 7423  15.825   0.096   8.432 -0.1179 -0.0918 -0.0398
  482PYPI   C4B 7424  15.894  -0.047   8.039  0.1272 -0.0368 -0.4591
  483PYPI    C1 7425   7.568   8.627  10.042  0.2207  0.1697 -0.0094
  483PYPI    C2 7426   7.271   8.848  10.195  0.0275 -0.0664 -0.0368
  483PYPI    C3 7427   7.591   8.760  10.419  0.0121  0.0705  0.0401
  483PYPI   PO4 7428   7.526   8.402   9.888 -0.3506  0.0222  0.2363
  483PYPI   GL1 7429   7.673   8.166   9.540  0.0044  0.1547 -0.2643
  483PYPI   GL2 7430   7.447   8.323   9.411 -0.0636 -0.3705 -0.1484
  483PYPI   C1A 7431   7.828   8.162   9.086 -0.3351  0.6822 -0.2446
  483PYPI   C2A 7432   7.860   8.065   8.794  0.0160 -0.1308  0.0761
  483PYPI   D3A 7433   8.075   7.711   8.808 -0.0421 -0.3470  0.1358
  483PYPI   C4A 7434   8.015   7.581   9.223 -0.1434 -0.5249 -0.1834
  483PYPI   C1B 7435   7.376   8.216   8.974  0.2713 -0.1072  0.1807
  483PYPI   C2B 7436   7.320   8.161   8.522  0.0784 -0.1105  0.0699
  483PYPI   C3B 7437   7.453   8.022   8.177 -0.1155 -0.0969 -0.1149
  483PYPI   C4B 7438   7.698   8.001   7.834 -0.2337 -0.1345 -0.2460
  484PYPI    C1 7439   0.375  13.050  10.645  0.1351  0.1223 -0.0473
  484PYPI    C2 7440   0.760  13.144  10.594  0.1448  0.1469  0.0686
  484PYPI    C3 7441   0.658  12.775  10.710  0.1259  0.1056 -0.0772
  484PYPI   PO4 7442   0.301  13.091  10.432 -0.1993 -0.0565 -0.0465
  484PYPI   GL1 7443   0.341  12.699  10.188 -0.2118  0.0910  0.0768
  484PYPI   GL2 7444   0.494  12.924   9.984 -0.1619  0.0537  0.3223
  484PYPI   C1A 7445   0.062  12.416   9.982  0.0329  0.0942 -0.1803
  484PYPI   C2A 7446   0.059  12.005   9.740  0.1027  0.0040  0.1314
  484PYPI   D3A 7447   0.082  11.869   9.312 -0.0198  0.1772  0.2588
  484PYPI   C4A 7448   0.084  12.199   9.010  0.1985  0.1826  0.0535
  484PYPI   C1B 7449   0.371  12.621   9.677  0.0608 -0.2022  0.0213
  484PYPI   C2B 7450  -0.012  12.458   9.481 -0.0212  0.1888 -0.1511
  484PYPI   C3B 7451  -0.299  12.225   9.290  0.0250  0.2764 -0.1599
  484PYPI   C4B 7452  -0.348  11.893   8.970  0.4933 -0.0368 -0.0016
  485PYPI    C1 7453  13.207   9.817  10.835  0.0671  0.1419 -0.2629
  485PYPI    C2 7454  13.219   9.426  10.919 -0.1618  0.1352 -0.2560
  485PYPI    C3 7455  13.559   9.636  10.896 -0.0411 -0.0527 -0.2086
  485PYPI   PO4 7456  13.108   9.819  10.559 -0.0318  0.1586 -0.3023
  485PYPI   GL1 7457  13.142   9.754  10.184  0.0162 -0.1348  0.3556
  485PYPI   GL2 7458  13.165   9.397  10.221  0.1482 -0.0026  0.0578
  485PYPI   C1A 7459  13.373  10.040   9.940 -0.2767  0.1097  0.2094
  485PYPI   C2A 7460  13.460  10.219   9.524  0.1258 -0.4722 -0.0796
  485PYPI   D3A 7461  13.533  10.238   9.108 -0.2868  0.1268 -0.1868
  485PYPI   C4A 7462  13.818  10.138   8.709 -0.0061  0.0391  0.0261
  485PYPI   C1B 7463  13.586   9.519  10.000 -0.4465  0.1062 -0.0324
  485PYPI   C2B 7464  13.829   9.832   9.887 -0.2153  0.0130 -0.2990
  485PYPI   C3B 7465  14.008   9.948   9.542 -0.1687 -0.1258  0.1253
  485PYPI   C4B 7466  14.048  10.252   9.189 -0.1496 -0.2023  0.1147
  486PYPI    C1 7467   7.700  11.848  10.157 -0.0952 -0.0989  0.0677
  486PYPI    C2 7468   7.524  11.981  10.491  0.1320  0.1314  0.0993
  486PYPI    C3 7469   7.543  12.216  10.168  0.1234 -0.0019  0.0008
  486PYPI   PO4 7470   7.928  11.795  10.208 -0.2631  0.2546  0.2580
  486PYPI   GL1 7471   7.989  11.483   9.894  0.1405 -0.3607  0.1384
  486PYPI   GL2 7472   8.052  11.153   9.852  0.1287 -0.3753 -0.0781
  486PYPI   C1A 7473   7.687  11.552   9.528  0.0569  0.2833 -0.2561
  486PYPI   C2A 7474   7.470  11.366   9.155  0.3028 -0.1831 -0.1430
  486PYPI   D3A 7475   7.588  11.015   8.979  0.1225  0.1233  0.2025
  486PYPI   C4A 7476   7.317  10.765   8.866 -0.1696  0.3333 -0.0531
  486PYPI   C1B 7477   8.476  11.355   9.633 -0.1855  0.0850 -0.2964
  486PYPI   C2B 7478   8.463  11.448   9.250 -0.2535 -0.1827  0.2162
  486PYPI   C3B 7479   8.417  11.300   8.892 -0.1969  0.1030  0.2221
  486PYPI   C4B 7480   8.697  11.249   8.640  0.2660 -0.1283 -0.0676
  487PYPI    C1 7481   7.257  10.529  10.343  0.0719 -0.0352 -0.1609
  487PYPI    C2 7482   7.003  10.220  10.335  0.0321 -0.0102  0.0639
  487PYPI    C3 7483   7.214  10.297  10.666  0.1738  0.0981 -0.0501
  487PYPI   PO4 7484   7.359  10.499  10.096  0.2497  0.1501  0.1673
  487PYPI   GL1 7485   7.074  10.475   9.760  0.2011 -0.1634 -0.3421
  487PYPI   GL2 7486   6.767  10.266   9.668  0.3710  0.0209 -0.2533
  487PYPI   C1A 7487   7.065  10.555   9.296 -0.0735 -0.1074 -0.0757
  487PYPI   C2A 7488   6.867  10.520   8.856  0.0402 -0.3173  0.0055
  487PYPI   D3A 7489   6.736  10.350   8.588  0.1250  0.0052  0.2084
  487PYPI   C4A 7490   7.014  10.113   8.320 -0.1441 -0.0345  0.0714
  487PYPI   C1B 7491   6.646  10.232   9.196  0.4120 -0.0413  0.3037
  487PYPI   C2B 7492   6.921   9.993   8.854  0.3658  0.0749  0.0346
  487PYPI   C3B 7493   6.776   9.669   8.459 -0.0073 -0.6755  0.1142
  487PYPI   C4B 7494   6.743   9.648   8.109  0.2538  0.1212 -0.0495
  488PYPI    C1 7495   6.495   7.348  10.323  0.1203 -0.1987  0.0353
  488PYPI    C2 7496   6.449   7.028  10.558  0.0267 -0.1309  0.1099
  488PYPI    C3 7497   6.411   7.396  10.711  0.1037 -0.0844  0.0179
  488PYPI   PO4 7498   6.709   7.273  10.233 -0.1827 -0.0759 -0.0235
  488PYPI   GL1 7499   6.802   7.036   9.846 -0.1767  0.0845  0.3262
  488PYPI   GL2 7500   6.612   7.356   9.687  0.1453 -0.0954 -0.0458
  488PYPI   C1A 7501   6.716   6.949   9.302 -0.1887 -0.0621  0.4420
  488PYPI   C2A 7502   6.709   6.980   8.873  0.1472 -0.3043  0.0314
  488PYPI   D3A 7503   6.705   6.669   8.534 -0.1603 -0.0124  0.0918
  488PYPI   C4A 7504   6.703   6.840   8.099 -0.2076  0.1495 -0.0748
  488PYPI   C1B 7505   6.534   7.412   9.210  0.0566 -0.1759 -0.4067
  488PYPI   C2B 7506   6.509   7.530   8.778 -0.1444 -0.0920  0.1922
  488PYPI   C3B 7507   6.296   7.608   8.403  0.0953 -0.3067 -0.2991
  488PYPI   C4B 7508   6.165   7.543   8.018  0.1675  0.0420  0.1407
  489PYPI    C1 7509   5.549   4.245  10.896 -0.0119  0.2485  0.0022
  489PYPI    C2 7510   5.154   4.305  10.913 -0.1029 -0.2547 -0.1794
  489PYPI    C3 7511   5.325   4.029  11.147  0.1608  0.0316 -0.0273
  489PYPI   PO4 7512   5.559   4.185  10.629  0.3395 -0.0257  0.2032
  489PYPI   GL1 7513   5.432   4.161  10.320 -0.2067 -0.0442  0.0790
  489PYPI   GL2 7514   5.258   3.870  10.208 -0.2675  0.2295  0.2826
  489PYPI   C1A 7515   5.457   4.278   9.843  0.3360  0.1256 -0.1016
  489PYPI   C2A 7516   5.199   4.294   9.602  0.0214  0.3652 -0.1837
  489PYPI   D3A 7517   5.171   4.135   9.211  0.0467  0.2361  0.1055
  489PYPI   C4A 7518   5.013   4.168   8.759  0.0085 -0.1377  0.1811
  489PYPI   C1B 7519   5.099   3.853   9.772 -0.0095  0.0121 -0.0524
  489PYPI   C2B 7520   4.736   3.966   9.453  0.1419  0.0819 -0.0018
  489PYPI   C3B 7521   4.591   4.003   8.957  0.1815 -0.5070  0.0974
  489PYPI   C4B 7522   4.617   4.100   8.468  0.0965 -0.1775 -0.0911
  490PYPI    C1 7523  14.201   9.667  10.786  0.2286 -0.0030 -0.0172
  490PYPI    C2 7524  14.100   9.281  10.770  0.2321  0.0014 -0.1615
  490PYPI    C3 7525  14.131   9.465  11.124 -0.1090 -0.0412 -0.1058
  490PYPI   PO4 7526  14.071   9.725  10.534  0.1142 -0.0876 -0.0841
  490PYPI   GL1 7527  14.252   9.873  10.108 -0.4293 -0.1012 -0.1480
  490PYPI   GL2 7528  14.320  10.160   9.995 -0.0603 -0.1013 -0.3222
  490PYPI   C1A 7529  14.328   9.634   9.691 -0.3318 -0.0574  0.0608
  490PYPI   C2A 7530  14.308   9.644   9.292  0.1154 -0.3010 -0.1192
  490PYPI   D3A 7531  14.123   9.813   8.917 -0.0464  0.0968  0.2270
  490PYPI   C4A 7532  13.808   9.628   8.598  0.1599  0.2054  0.1010
  490PYPI   C1B 7533  14.367  10.332   9.587  0.1835 -0.1572 -0.1126
  490PYPI   C2B 7534  14.367  10.686   9.259 -0.0846 -0.1358 -0.1502
  490PYPI   C3B 7535  14.473  10.946   8.939  0.2414 -0.1899  0.1782
  490PYPI   C4B 7536  14.439  11.106   8.556 -0.2204  0.2202  0.1709
  491PYPI    C1 7537  17.926  11.648  11.227 -0.0592 -0.0027 -0.2322
  491PYPI    C2 7538  17.610  11.539  11.446  0.0442  0.0681 -0.0459
  491PYPI    C3 7539  17.959  11.349  11.490  0.1004  0.1679 -0.0550
  491PYPI   PO4 7540  17.885  11.657  10.935 -0.2933  0.0787 -0.0518
  491PYPI   GL1 7541  17.770  11.788  10.569 -0.0657 -0.1237  0.0729
  491PYPI   GL2 7542  17.447  11.829  10.471  0.0015  0.1496 -0.4450
  491PYPI   C1A 7543  17.956  11.419  10.221 -0.0598  0.0453 -0.3066
  491PYPI   C2A 7544  18.168  11.096   9.925  0.4090  0.1435 -0.2327
  491PYPI   D3A 7545  18.158  10.706   9.810 -0.0610 -0.2203  0.1056
  491PYPI   C4A 7546  18.031  10.512   9.454 -0.1050  0.0929 -0.0022
  491PYPI   C1B 7547  17.504  11.617  10.203  0.2521 -0.2387 -0.2058
  491PYPI   C2B 7548  17.731  11.730   9.873  0.0221  0.0199 -0.2401
  491PYPI   C3B 7549  17.802  11.578   9.453 -0.1457 -0.1464  0.0141
  491PYPI   C4B 7550  17.552  11.419   9.137  0.1352 -0.1021  0.1322
  492PYPI    C1 7551   1.798  12.698  10.669  0.2915  0.0476 -0.0255
  492PYPI    C2 7552   1.679  13.054  10.806 -0.1205 -0.0297 -0.1676
  492PYPI    C3 7553   1.575  12.720  11.000  0.2963 -0.0764 -0.0134
  492PYPI   PO4 7554   1.724  12.712  10.445  0.0998  0.1843  0.0897
  492PYPI   GL1 7555   1.358  12.623  10.121 -0.1226  0.2650 -0.0016
  492PYPI   GL2 7556   1.471  12.912   9.988 -0.0579 -0.2200  0.0622
  492PYPI   C1A 7557   1.510  12.648   9.624  0.1661 -0.0692  0.0432
  492PYPI   C2A 7558   1.504  12.614   9.135  0.1211  0.0775 -0.1125
  492PYPI   D3A 7559   1.120  12.548   8.885 -0.0324 -0.0135  0.0177
  492PYPI   C4A 7560   0.758  12.842   8.792 -0.0976  0.2885  0.1115
  492PYPI   C1B 7561   1.869  13.023   9.640  0.0207 -0.0039  0.0732
  492PYPI   C2B 7562   1.870  12.868   9.266 -0.1369  0.0780  0.3238
  492PYPI   C3B 7563   1.640  12.874   8.740  0.1069  0.3597 -0.0665
  492PYPI   C4B 7564   1.317  12.675   8.480  0.1669 -0.1991 -0.1462
  493PYPI    C1 7565  16.191   0.340  10.603  0.0517  0.2142 -0.2959
  493PYPI    C2 7566  16.272   0.730  10.571  0.0863  0.2202 -0.1439
  493PYPI    C3 7567  16.520   0.491  10.773 -0.0912  0.1746  0.0239
  493PYPI   PO4 7568  16.225   0.265  10.425  0.2784  0.1540  0.0831
  493PYPI   GL1 7569  16.460   0.146   9.933  0.0527  0.3452  0.1470
  493PYPI   GL2 7570  16.487   0.433  10.035  0.1301 -0.1287 -0.1297
  493PYPI   C1A 7571  16.667   0.376   9.558  0.0717 -0.0532 -0.1758
  493PYPI   C2A 7572  16.944   0.559   9.218 -0.2468  0.0171 -0.0734
  493PYPI   D3A 7573  16.985   0.629   8.885 -0.2486 -0.1681 -0.2114
  493PYPI   C4A 7574  17.217   0.531   8.536  0.1138  0.1797  0.3700
  493PYPI   C1B 7575  16.555   0.791   9.759 -0.3037 -0.3258 -0.1041
  493PYPI   C2B 7576  16.517   0.754   9.236  0.0959 -0.1336 -0.0574
  493PYPI   C3B 7577  16.437   0.905   8.789  0.0409 -0.3671  0.1771
  493PYPI   C4B 7578  16.480   1.052   8.299  0.0330 -0.1327 -0.2563
  494PYPI    C1 7579  11.670  13.142  11.275  0.2528  0.3781  0.0397
  494PYPI    C2 7580  11.940  12.852  11.216  0.0844  0.2264  0.0050
  494PYPI    C3 7581  11.895  13.012  11.580  0.0924  0.1229  0.0518
  494PYPI   PO4 7582  11.442  13.020  11.058 -0.1722 -0.0885 -0.2329
  494PYPI   GL1 7583  11.434  12.930  10.539  0.0847  0.1119  0.0346
  494PYPI   GL2 7584  11.469  12.595  10.437 -0.0420 -0.0920  0.1751
  494PYPI   C1A 7585  11.262  13.007  10.093 -0.2953 -0.1546 -0.2275
  494PYPI   C2A 7586  11.170  13.146   9.683  0.4248 -0.1641  0.0492
  494PYPI   D3A 7587  11.456  13.456   9.512  0.0280 -0.0044  0.1583
  494PYPI   C4A 7588  11.458  13.870   9.215  0.1933 -0.0161  0.0851
  494PYPI   C1B 7589  11.523  12.573  10.033 -0.2485  0.1732 -0.4959
  494PYPI   C2B 7590  11.724  12.552   9.620  0.0481 -0.0574 -0.0979
  494PYPI   C3B 7591  11.609  12.546   9.113 -0.1526  0.0372 -0.0992
  494PYPI   C4B 7592  11.586  12.678   8.719  0.1830  0.3094  0.0736
  495PYPI    C1 7593  12.535   2.449  10.512 -0.0731  0.3618 -0.0128
  495PYPI    C2 7594  12.148   2.348  10.536 -0.0627  0.3071 -0.0717
  495PYPI    C3 7595  12.282   2.675  10.725 -0.1085  0.2441  0.0712
  495PYPI   PO4 7596  12.551   2.416  10.249  0.2143 -0.0393 -0.3794
  495PYPI   GL1 7597  12.557   2.548   9.899  0.1803  0.0435 -0.2255
  495PYPI   GL2 7598  12.559   2.864   9.916 -0.4459  0.3495  0.1847
  495PYPI   C1A 7599  12.450   2.530   9.394  0.2240  0.0022 -0.0256
  495PYPI   C2A 7600  12.357   2.513   9.097 -0.2121  0.1882 -0.0674
  495PYPI   D3A 7601  12.490   2.668   8.776  0.1836  0.1973  0.2193
  495PYPI   C4A 7602  12.420   2.688   8.341 -0.1860  0.1851  0.2184
  495PYPI   C1B 7603  12.736   2.931   9.499  0.4424 -0.0085  0.0749
  495PYPI   C2B 7604  12.815   2.873   9.080  0.4088  0.0975  0.2188
  495PYPI   C3B 7605  12.913   2.850   8.595  0.0937 -0.1763 -0.0227
  495PYPI   C4B 7606  13.030   2.908   8.147  0.0994  0.2346 -0.2509
  496PYPI    C1 7607   8.626   5.242  10.595 -0.0505  0.1755  0.0181
  496PYPI    C2 7608   8.795   5.424  10.909 -0.1157  0.0914  0.1026
  496PYPI    C3 7609   8.575   5.095  10.963  0.1749 -0.1359 -0.0710
  496PYPI   PO4 7610   8.983   5.157  10.397  0.2046 -0.4036  0.4424
  496PYPI   GL1 7611   9.305   4.906  10.391 -0.0909  0.2161 -0.1461
  496PYPI   GL2 7612   9.376   5.113  10.045 -0.2679  0.1558 -0.0453
  496PYPI   C1A 7613   9.389   4.636  10.147 -0.1053  0.1673  0.1644
  496PYPI   C2A 7614   9.378   4.459   9.835 -0.2723  0.0693 -0.0364
  496PYPI   D3A 7615   9.372   4.316   9.448 -0.0020  0.0367  0.1365
  496PYPI   C4A 7616   9.574   3.992   9.179  0.1381  0.2704 -0.1467
  496PYPI   C1B 7617   9.333   4.942   9.611 -0.0171 -0.2101 -0.0724
  496PYPI   C2B 7618   9.312   4.815   9.166 -0.1661 -0.2642  0.2315
  496PYPI   C3B 7619   9.435   4.508   8.942 -0.0713  0.0687  0.0546
  496PYPI   C4B 7620   9.435   4.164   8.641 -0.0018  0.1274  0.2133
  497PYPI    C1 7621   7.904   6.171  10.405 -0.0902 -0.4436  0.3533
  497PYPI    C2 7622   8.125   6.324  10.701 -0.0093  0.1211  0.0163
  497PYPI    C3 7623   7.728   6.303  10.739  0.0010  0.1847  0.1663
  497PYPI   PO4 7624   8.147   6.034  10.285 -0.3936 -0.1252 -0.2038
  497PYPI   GL1 7625   8.326   5.825   9.884 -0.0482 -0.0358 -0.0090
  497PYPI   GL2 7626   8.569   5.966   9.956  0.0533  0.1011  0.0188
  497PYPI   C1A 7627   8.222   5.765   9.432  0.0357  0.0993 -0.3952
  497PYPI   C2A 7628   8.345   5.750   8.967 -0.1233 -0.5239 -0.3471
  497PYPI   D3A 7629   8.398   5.815   8.502 -0.0364 -0.2098  0.4535
  497PYPI   C4A 7630   8.518   6.019   8.085  0.2905 -0.1337 -0.3456
  497PYPI   C1B 7631   8.599   6.122   9.456  0.2531  0.1689  0.2113
  497PYPI   C2B 7632   8.595   6.156   9.084 -0.1890 -0.0791 -0.1770
  497PYPI   C3B 7633   8.810   6.203   8.718 -0.1919  0.0213 -0.1972
  497PYPI   C4B 7634   8.957   6.261   8.349  0.0892  0.1092  0.1430
  498PYPI    C1 7635  14.272  11.188  10.640 -0.3485 -0.2723 -0.4128
  498PYPI    C2 7636  14.123  10.828  10.731 -0.2798 -0.1546  0.2083
  498PYPI    C3 7637  14.041  11.143  10.963  0.1258  0.1162 -0.0029
  498PYPI   PO4 7638  14.235  11.324  10.420 -0.1364 -0.2394 -0.0693
  498PYPI   GL1 7639  14.117  11.003  10.090  0.0174 -0.1594  0.0507
  498PYPI   GL2 7640  13.999  10.704  10.245 -0.0328  0.4287 -0.6121
  498PYPI   C1A 7641  14.129  11.016   9.695  0.3526  0.1306 -0.1852
  498PYPI   C2A 7642  14.001  11.115   9.282 -0.1492 -0.0976 -0.1443
  498PYPI   D3A 7643  14.021  11.241   8.924 -0.1308  0.0763 -0.0589
  498PYPI   C4A 7644  13.586  11.238   8.766 -0.0442  0.0173 -0.1187
  498PYPI   C1B 7645  13.967  10.513   9.809  0.2030 -0.1012  0.0888
  498PYPI   C2B 7646  13.753  10.593   9.402  0.3680 -0.1806 -0.0944
  498PYPI   C3B 7647  13.822  10.747   8.997  0.2739  0.3126  0.0537
  498PYPI   C4B 7648  13.950  10.941   8.533 -0.2076  0.0914  0.2555
  499PYPI    C1 7649  14.639  16.295  10.908 -0.0365 -0.0261  0.0109
  499PYPI    C2 7650  14.955  16.158  11.113 -0.0566  0.0740  0.1094
  499PYPI    C3 7651  14.584  16.073  11.236 -0.0688 -0.0500 -0.0108
  499PYPI   PO4 7652  14.717  16.594  10.852  0.2048  0.2251 -0.0492
  499PYPI   GL1 7653  14.630  16.803  10.349 -0.4531 -0.0782 -0.1359
  499PYPI   GL2 7654  14.456  16.552  10.315  0.0228 -0.3128 -0.0442
  499PYPI   C1A 7655  14.762  17.088  10.040 -0.2409  0.2870 -0.3674
  499PYPI   C2A 7656  14.747  16.991   9.598 -0.0528 -0.1766  0.0416
  499PYPI   D3A 7657  14.835  16.898   9.150 -0.3028 -0.3317  0.1594
  499PYPI   C4A 7658  14.561  16.593   8.844  0.0527 -0.1400  0.2774
  499PYPI   C1B 7659  14.367  16.301   9.963 -0.2558  0.0534 -0.1034
  499PYPI   C2B 7660  14.350  16.190   9.532  0.1369 -0.0637  0.1444
  499PYPI   C3B 7661  14.254  16.290   9.142 -0.0711  0.1908  0.1582
  499PYPI   C4B 7662  14.214  16.192   8.699  0.2041 -0.3121  0.5335
  500PYPI    C1 7663  10.007  17.236  10.927  0.0952  0.1503  0.1559
  500PYPI    C2 7664  10.209  16.935  10.758 -0.0264  0.2298 -0.1367
  500PYPI    C3 7665  10.104  16.913  11.143  0.0477 -0.0592 -0.1307
  500PYPI   PO4 7666   9.837  17.360  10.786 -0.2519  0.0718 -0.3286
  500PYPI   GL1 7667   9.775  17.432  10.332 -0.0345 -0.1104  0.0972
  500PYPI   GL2 7668   9.972  17.661  10.422 -0.2573 -0.0206  0.2510
  500PYPI   C1A 7669   9.650  17.315   9.957 -0.1557  0.1856 -0.0984
  500PYPI   C2A 7670   9.562  17.339   9.644 -0.1064  0.1948  0.0906
  500PYPI   D3A 7671   9.359  17.343   9.276  0.1746  0.1225  0.0444
  500PYPI   C4A 7672   9.244  17.703   9.075  0.0754 -0.0705  0.1480
  500PYPI   C1B 7673  10.211  17.930  10.118 -0.1230 -0.1866  0.2212
  500PYPI   C2B 7674  10.223  18.057   9.643 -0.1701 -0.1990 -0.2004
  500PYPI   C3B 7675  10.439  18.395   9.409  0.0619 -0.2481  0.2302
  500PYPI   C4B 7676  10.567  18.882   9.325  0.0436  0.3458  0.0998
  501PYPI    C1 7677  15.766   9.275  10.951 -0.4686 -0.1375 -0.1751
  501PYPI    C2 7678  15.963   9.079  11.238 -0.0684  0.3021 -0.1376
  501PYPI    C3 7679  15.629   9.280  11.327 -0.0557  0.2727 -0.0220
  501PYPI   PO4 7680  15.765   9.119  10.772 -0.2300  0.3721  0.0547
  501PYPI   GL1 7681  16.096   9.118  10.396 -0.1630 -0.0089  0.3648
  501PYPI   GL2 7682  15.871   9.379  10.215  0.1560  0.1406 -0.2048
  501PYPI   C1A 7683  16.406   9.058  10.057 -0.0374 -0.1296  0.1020
  501PYPI   C2A 7684  16.489   9.288   9.621  0.0767 -0.0446 -0.1006
  501PYPI   D3A 7685  16.591   9.365   9.260 -0.1472  0.1456 -0.0559
  501PYPI   C4A 7686  16.382   9.285   8.904  0.0371 -0.0114  0.4775
  501PYPI   C1B 7687  15.931   9.344   9.751 -0.1058  0.4759  0.1993
  501PYPI   C2B 7688  16.088   9.340   9.372 -0.0877 -0.0555 -0.0588
  501PYPI   C3B 7689  15.903   9.208   8.925 -0.0091  0.0982 -0.2353
  501PYPI   C4B 7690  16.024   9.136   8.554  0.1329 -0.1542 -0.3015
  502PYPI    C1 7691   9.208  13.136  10.913 -0.3651 -0.0454 -0.2159
  502PYPI    C2 7692   9.498  12.896  10.779 -0.1549 -0.0713  0.2645
  502PYPI    C3 7693   9.148  12.741  10.892 -0.1198 -0.1192  0.3079
  502PYPI   PO4 7694   9.328  13.394  10.675  0.0355  0.0892  0.0082
  502PYPI   GL1 7695   9.248  13.650  10.297 -0.2337 -0.0692 -0.2365
  502PYPI   GL2 7696   9.609  13.663  10.240  0.1296 -0.1937 -0.0848
  502PYPI   C1A 7697   9.010  13.595   9.974  0.3352 -0.1890 -0.1443
  502PYPI   C2A 7698   9.029  13.802   9.641  0.1165 -0.0172  0.3171
  502PYPI   D3A 7699   8.972  14.161   9.428  0.2399 -0.2896 -0.0052
  502PYPI   C4A 7700   8.754  14.197   9.056  0.0047  0.1483 -0.1759
  502PYPI   C1B 7701   9.686  13.748   9.780  0.1233  0.2876 -0.2088
  502PYPI   C2B 7702   9.675  13.622   9.406  0.0941 -0.1094 -0.1347
  502PYPI   C3B 7703   9.786  13.567   8.876  0.0152  0.2652 -0.0616
  502PYPI   C4B 7704   9.808  13.706   8.415 -0.0509  0.0959 -0.0174
  503PYPI    C1 7705  11.818  13.554  11.056  0.1262  0.0949 -0.1897
  503PYPI    C2 7706  12.123  13.298  11.088 -0.0114 -0.0649 -0.1371
  503PYPI    C3 7707  11.984  13.484  11.413 -0.0586 -0.0968 -0.1392
  503PYPI   PO4 7708  11.681  13.429  10.828  0.2454  0.1315  0.0889
  503PYPI   GL1 7709  11.743  13.317  10.413  0.1015 -0.0247 -0.0124
  503PYPI   GL2 7710  11.798  13.073  10.260  0.1374 -0.0072 -0.0717
  503PYPI   C1A 7711  11.501  13.484  10.086 -0.0293  0.1755 -0.1212
  503PYPI   C2A 7712  11.612  13.896   9.861 -0.1351 -0.1472 -0.1242
  503PYPI   D3A 7713  11.952  14.112   9.798  0.1018 -0.1084  0.1134
  503PYPI   C4A 7714  12.165  14.007  10.054  0.0777  0.0543 -0.2533
  503PYPI   C1B 7715  11.679  13.054   9.839 -0.2169 -0.0687  0.1687
  503PYPI   C2B 7716  11.570  12.963   9.373 -0.0202 -0.0745 -0.0110
  503PYPI   C3B 7717  12.017  12.860   9.085  0.0976 -0.2470 -0.2535
  503PYPI   C4B 7718  12.051  12.686   8.694  0.1584 -0.3162 -0.2979
  504PYPI    C1 7719  13.811  12.484  10.643  0.0316  0.1504 -0.0041
  504PYPI    C2 7720  14.094  12.632  10.884 -0.0434  0.0742  0.1319
  504PYPI    C3 7721  13.716  12.759  10.918 -0.0441  0.1037  0.0169
  504PYPI   PO4 7722  13.886  12.301  10.588 -0.1593 -0.0598 -0.1420
  504PYPI   GL1 7723  13.808  12.041  10.138 -0.0424  0.3300  0.1958
  504PYPI   GL2 7724  13.977  12.341  10.148  0.0238 -0.2070  0.3187
  504PYPI   C1A 7725  13.710  11.945   9.691  0.2000 -0.1146 -0.0921
  504PYPI   C2A 7726  13.727  12.179   9.383 -0.3248 -0.0578  0.1520
  504PYPI   D3A 7727  13.872  12.346   9.029 -0.0937  0.2365  0.1912
  504PYPI   C4A 7728  13.719  12.104   8.508 -0.1146  0.0743 -0.0579
  504PYPI   C1B 7729  14.067  12.407   9.763  0.2103  0.1347  0.0238
  504PYPI   C2B 7730  13.921  12.694   9.434  0.1733  0.0174 -0.2662
  504PYPI   C3B 7731  13.799  13.147   9.172  0.0737 -0.2236  0.1361
  504PYPI   C4B 7732  13.461  13.425   8.992 -0.0880 -0.4679  0.1492
  505PYPI    C1 7733  14.923   1.193  10.561 -0.2773  0.3158 -0.0211
  505PYPI    C2 7734  14.760   0.857  10.706 -0.0106  0.1151 -0.1773
  505PYPI    C3 7735  14.798   1.179  10.941 -0.0968 -0.0239  0.0295
  505PYPI   PO4 7736  14.816   1.078  10.249 -0.1693  0.0720 -0.0822
  505PYPI   GL1 7737  14.837   1.201   9.930 -0.1951  0.3558 -0.1747
  505PYPI   GL2 7738  14.714   1.025   9.775  0.1670  0.1121 -0.0887
  505PYPI   C1A 7739  15.196   1.304   9.688  0.0352 -0.1733 -0.0543
  505PYPI   C2A 7740  15.292   1.355   9.152  0.0820  0.0174 -0.1255
  505PYPI   D3A 7741  15.500   1.669   8.801  0.1957 -0.4405  0.1679
  505PYPI   C4A 7742  15.550   1.445   8.508  0.1122 -0.0434 -0.1607
  505PYPI   C1B 7743  14.844   1.095   9.410  0.1124 -0.1793  0.3216
  505PYPI   C2B 7744  15.027   0.911   9.013  0.3859  0.2317  0.1983
  505PYPI   C3B 7745  14.754   0.871   8.655 -0.1619 -0.0751 -0.2494
  505PYPI   C4B 7746  14.490   0.583   8.388 -0.2281 -0.2110  0.0993
  506ERGO   ROH 7747  14.550  11.260  10.071 -0.2261 -0.1601 -0.0643
  506ERGO    R1 7748  14.421  11.400   9.862 -0.2950 -0.1567 -0.0196
  506ERGO    R2 7749  14.558  11.560   9.683 -0.3792  0.0048  0.0602
  506ERGO    R3 7750  14.435  11.403   9.498 -0.2607  0.0016 -0.0181
  506ERGO    R4 7751  14.565  11.614   9.342 -0.2726  0.0819  0.0739
  506ERGO    R5 7752  14.355  11.558   9.334 -0.2530  0.0123 -0.0137
  506ERGO    C1 7753  14.453  11.499   8.970 -0.0992  0.1239  0.0084
  506ERGO    C2 7754  14.545  11.637   8.676 -0.1293 -0.0640  0.4900
  507ERGO   ROH 7755  15.486  11.654  10.304 -0.1792  0.2558  0.0723
  507ERGO    R1 7756  15.357  11.751  10.071 -0.0284  0.2409 -0.0196
  507ERGO    R2 7757  15.441  11.978   9.939  0.2089  0.0992 -0.1248
  507ERGO    R3 7758  15.448  11.812   9.724  0.1279 -0.0297 -0.0281
  507ERGO    R4 7759  15.441  12.081   9.609 -0.1106 -0.1064 -0.1934
  507ERGO    R5 7760  15.306  11.917   9.562 -0.0582 -0.2092  0.0169
  507ERGO    C1 7761  15.448  11.985   9.215 -0.3726 -0.3470 -0.1425
  507ERGO    C2 7762  15.483  11.888   9.007 -0.2310  0.2871 -0.1389
  508ERGO   ROH 7763   0.861  14.823   6.509  0.0197  0.0981  0.2079
  508ERGO    R1 7764   0.816  14.649   6.727  0.1134  0.0655  0.2013
  508ERGO    R2 7765   0.976  14.429   6.777  0.1641  0.0864  0.1278
  508ERGO    R3 7766   0.999  14.543   7.023  0.2190  0.0609  0.1349
  508ERGO    R4 7767   1.079  14.263   7.062 -0.2518 -0.0745  0.1923
  508ERGO    R5 7768   0.927  14.372   7.174 -0.1398  0.1791  0.1070
  508ERGO    C1 7769   1.161  14.273   7.458 -0.4424 -0.1921  0.2365
  508ERGO    C2 7770   1.491  14.120   7.652  0.3368 -0.3657  0.1863
  509ERGO   ROH 7771   9.724  14.532   6.311 -0.1617  0.0549  0.1504
  509ERGO    R1 7772   9.894  14.524   6.537 -0.0477  0.0785  0.0654
  509ERGO    R2 7773   9.906  14.728   6.722 -0.0115  0.0621  0.0768
  509ERGO    R3 7774   9.854  14.528   6.899  0.1315  0.0326  0.0877
  509ERGO    R4 7775   9.902  14.765   7.066 -0.1431  0.1074  0.0720
  509ERGO    R5 7776  10.002  14.572   7.083  0.0418  0.2021  0.1248
  509ERGO    C1 7777   9.852  14.599   7.432 -0.0853  0.1061  0.0794
  509ERGO    C2 7778   9.621  14.730   7.637  0.3188 -0.4593  0.0416
  510ERGO   ROH 7779  12.262   0.857   6.334  0.1013  0.0895 -0.1428
  510ERGO    R1 7780  12.286   0.725   6.584  0.0451  0.0785 -0.1431
  510ERGO    R2 7781  12.480   0.790   6.768 -0.0071  0.0819 -0.0889
  510ERGO    R3 7782  12.267   0.818   6.935 -0.0524  0.0595 -0.1428
  510ERGO    R4 7783  12.502   0.848   7.109 -0.0983  0.0176 -0.0719
  510ERGO    R5 7784  12.336   0.710   7.137 -0.1126  0.0188 -0.1437
  510ERGO    C1 7785  12.314   0.907   7.463 -0.1939 -0.0407 -0.1127
  510ERGO    C2 7786  12.286   0.929   7.743 -0.1894 -0.2324 -0.1131
  511ERGO   ROH 7787   8.014  11.195   5.998  0.0026 -0.1351  0.0558
  511ERGO    R1 7788   8.157  11.122   6.232 -0.0160 -0.1170  0.0734
  511ERGO    R2 7789   8.354  11.282   6.341  0.0389 -0.1483  0.0270
  511ERGO    R3 7790   8.203  11.258   6.566  0.0323 -0.0387  0.0342
  511ERGO    R4 7791   8.462  11.356   6.661  0.0678 -0.1268  0.0121
  511ERGO    R5 7792   8.357  11.180   6.733 -0.0021 -0.0656  0.0497
  511ERGO    C1 7793   8.384  11.377   7.058  0.0783 -0.0115  0.0102
  511ERGO    C2 7794   8.237  11.607   7.291  0.0497 -0.0773  0.2455
  512ERGO   ROH 7795  16.598   9.272  10.454 -0.0010 -0.0331  0.1021
  512ERGO    R1 7796  16.734   9.367  10.224 -0.1357  0.0371  0.0505
  512ERGO    R2 7797  16.981   9.269  10.147  0.0194  0.3654  0.1232
  512ERGO    R3 7798  16.854   9.226   9.911  0.0933  0.0255  0.1404
  512ERGO    R4 7799  17.137   9.243   9.840  0.0927  0.2597  0.1686
  512ERGO    R5 7800  16.974   9.359   9.752 -0.0204  0.0175  0.0423
  512ERGO    C1 7801  17.109   9.187   9.439  0.2047 -0.1210  0.2113
  512ERGO    C2 7802  17.249   8.968   9.193 -0.1484  0.1744  0.0456
  513ERGO   ROH 7803   2.996  16.442   6.485  0.1709  0.1753  0.0089
  513ERGO    R1 7804   3.005  16.519   6.757  0.1158  0.1066  0.0298
  513ERGO    R2 7805   2.782  16.611   6.893  0.1009  0.1187 -0.0074
  513ERGO    R3 7806   2.847  16.412   7.067  0.0135  0.0638 -0.0361
  513ERGO    R4 7807   2.745  16.629   7.236 -0.1476 -0.0156 -0.0242
  513ERGO    R5 7808   2.936  16.527   7.257 -0.1414  0.0111  0.0726
  513ERGO    C1 7809   2.784  16.454   7.599 -0.3743 -0.1451 -0.0608
  513ERGO    C2 7810   2.755  16.451   7.940  0.3565  0.2091  0.0056
  514ERGO   ROH 7811  12.969   5.463  10.408  0.2046 -0.0357  0.0176
  514ERGO    R1 7812  12.935   5.478  10.128  0.2889  0.0317  0.0109
  514ERGO    R2 7813  12.816   5.694  10.004  0.1160 -0.0426  0.0501
  514ERGO    R3 7814  13.046   5.697   9.859  0.1655  0.2421  0.1282
  514ERGO    R4 7815  12.832   5.731   9.660  0.1830 -0.0432  0.0527
  514ERGO    R5 7816  12.990   5.581   9.657  0.3802  0.1551  0.1151
  514ERGO    C1 7817  13.058   5.755   9.324  0.2684  0.2237  0.1274
  514ERGO    C2 7818  13.082   5.731   9.045 -0.2382 -0.0211  0.0346
  515ERGO   ROH 7819   9.195   1.733   6.614  0.0951  0.0377  0.0105
  515ERGO    R1 7820   9.213   1.732   6.897  0.0534  0.1427  0.0144
  515ERGO    R2 7821   9.072   1.910   7.055 -0.0709  0.1187 -0.0644
  515ERGO    R3 7822   8.985   1.682   7.176  0.0386  0.1091 -0.0041
  515ERGO    R4 7823   8.995   1.881   7.391  0.1877  0.1029 -0.0050
  515ERGO    R5 7824   9.090   1.685   7.391  0.2029  0.1109 -0.0835
  515ERGO    C1 7825   8.868   1.650   7.699  0.4411  0.0846  0.0863
  515ERGO    C2 7826   8.718   1.792   7.915  0.3757  0.1167  0.1104
  516ERGO   ROH 7827   8.590   9.017   6.183 -0.0589  0.0729  0.0621
  516ERGO    R1 7828   8.671   8.992   6.453  0.0982 -0.0021  0.0100
  516ERGO    R2 7829   8.491   8.970   6.660  0.2103  0.2156  0.1369
  516ERGO    R3 7830   8.634   8.747   6.719 -0.0018  0.0538  0.0475
  516ERGO    R4 7831   8.563   8.859   6.980  0.3352  0.1693  0.0927
  516ERGO    R5 7832   8.763   8.807   6.911  0.2229 -0.0726 -0.0605
  516ERGO    C1 7833   8.739   8.585   7.220  0.2088 -0.0095 -0.0170
  516ERGO    C2 7834   8.844   8.387   7.465 -0.2610  0.1291 -0.0882
  517ERGO   ROH 7835   0.176   3.672  10.089 -0.1243 -0.0414  0.3190
  517ERGO    R1 7836   0.144   3.678   9.808 -0.1064 -0.2345  0.3131
  517ERGO    R2 7837  -0.053   3.535   9.678 -0.3530 -0.0114  0.4437
  517ERGO    R3 7838  -0.116   3.778   9.574  0.0667  0.0132  0.2192
  517ERGO    R4 7839  -0.145   3.591   9.350 -0.4648 -0.2005  0.4393
  517ERGO    R5 7840  -0.025   3.773   9.353 -0.0849 -0.4249  0.1514
  517ERGO    C1 7841  -0.258   3.853   9.061 -0.1360 -0.2876  0.2259
  517ERGO    C2 7842  -0.345   3.840   8.660 -0.0410 -0.3817 -0.1109
  518ERGO   ROH 7843  18.051   3.445   6.099 -0.1038 -0.0888  0.0601
  518ERGO    R1 7844  17.988   3.532   6.361 -0.1660 -0.1491  0.0659
  518ERGO    R2 7845  17.931   3.356   6.567 -0.1001 -0.2020  0.0428
  518ERGO    R3 7846  18.129   3.491   6.694 -0.1725 -0.1230  0.0711
  518ERGO    R4 7847  17.953   3.398   6.909 -0.3222  0.0647  0.0272
  518ERGO    R5 7848  18.018   3.603   6.875 -0.2802  0.0298 -0.0890
  518ERGO    C1 7849  18.152   3.550   7.228 -0.5196  0.2943  0.0446
  518ERGO    C2 7850  18.380   3.473   7.527 -0.3075 -0.0393  0.2629
  519ERGO   ROH 7851  17.846   1.067   6.227  0.3038  0.0538  0.0148
  519ERGO    R1 7852  17.940   0.949   6.467  0.2177  0.0872  0.0650
  519ERGO    R2 7853  18.115   1.078   6.638  0.1055  0.1363  0.1422
  519ERGO    R3 7854  17.923   1.025   6.823  0.0307  0.0988  0.0552
  519ERGO    R4 7855  18.135   1.162   6.972 -0.0725  0.1643  0.1469
  519ERGO    R5 7856  18.046   0.969   7.021 -0.0464  0.1431  0.1173
  519ERGO    C1 7857  17.966   1.160   7.341 -0.2461  0.1455  0.0680
  519ERGO    C2 7858  18.036   1.364   7.635 -0.3876  0.1941 -0.0572
  520ERGO   ROH 7859  11.729  12.221   6.825  0.0658 -0.1885  0.0274
  520ERGO    R1 7860  11.549  12.291   7.033  0.0074 -0.2520 -0.0020
  520ERGO    R2 7861  11.627  12.310   7.297 -0.0399 -0.2140  0.0075
  520ERGO    R3 7862  11.519  12.559   7.277 -0.1346 -0.2561 -0.0139
  520ERGO    R4 7863  11.631  12.548   7.548  0.1167 -0.0940 -0.1052
  520ERGO    R5 7864  11.426  12.600   7.494  0.0483 -0.1832  0.0536
  520ERGO    C1 7865  11.531  12.919   7.676  0.1189 -0.0636 -0.1907
  520ERGO    C2 7866  11.536  13.154   7.979 -0.2253 -0.0177  0.2248
  521ERGO   ROH 7867   3.879   8.964  10.155  0.1462  0.5195 -0.2425
  521ERGO    R1 7868   3.674   8.830  10.014  0.2691  0.0685 -0.0098
  521ERGO    R2 7869   3.510   8.957   9.832 -0.2895 -0.2533  0.2426
  521ERGO    R3 7870   3.594   8.759   9.666 -0.0266 -0.0055  0.0699
  521ERGO    R4 7871   3.391   8.905   9.512 -0.5006 -0.3571  0.3353
  521ERGO    R5 7872   3.395   8.691   9.550 -0.0042 -0.3764  0.2385
  521ERGO    C1 7873   3.401   8.689   9.169 -0.3766 -0.1851  0.2273
  521ERGO    C2 7874   3.220   8.768   8.926 -0.1487  0.0554 -0.3018
  522ERGO   ROH 7875   8.122  10.017   9.689  0.0167 -0.1247 -0.0298
  522ERGO    R1 7876   8.223  10.172   9.475  0.0915 -0.1824 -0.0371
  522ERGO    R2 7877   8.294  10.061   9.232 -0.0950 -0.2094 -0.0839
  522ERGO    R3 7878   8.123  10.248   9.133  0.0452 -0.0293  0.0106
  522ERGO    R4 7879   8.286  10.165   8.903 -0.0787 -0.0956 -0.0481
  522ERGO    R5 7880   8.255  10.369   8.974  0.1134 -0.0922  0.0220
  522ERGO    C1 7881   8.121  10.402   8.618  0.0625  0.1398  0.0615
  522ERGO    C2 7882   8.138  10.463   8.359  0.1722  0.3467 -0.0275
  523ERGO   ROH 7883   6.358  13.763   9.945  0.3140  0.0992  0.2374
  523ERGO    R1 7884   6.537  13.717   9.731  0.1932  0.0791  0.1381
  523ERGO    R2 7885   6.451  13.672   9.473  0.0427  0.0016  0.1945
  523ERGO    R3 7886   6.619  13.878   9.415 -0.0301  0.0198  0.0498
  523ERGO    R4 7887   6.622  13.708   9.174 -0.1655 -0.0021  0.0742
  523ERGO    R5 7888   6.796  13.775   9.288 -0.1011  0.0393 -0.0582
  523ERGO    C1 7889   6.878  13.922   8.946 -0.3550  0.0129 -0.1316
  523ERGO    C2 7890   6.746  13.953   8.677 -0.0971 -0.0457  0.0326
  524ERGO   ROH 7891  14.760  16.084   6.469 -0.0262  0.3463  0.0285
  524ERGO    R1 7892  14.748  15.949   6.717  0.0199  0.2597 -0.0150
  524ERGO    R2 7893  14.965  15.933   6.888  0.0275  0.2831 -0.0141
  524ERGO    R3 7894  14.790  16.036   7.068 -0.0162  0.1636  0.0119
  524ERGO    R4 7895  15.007  15.924   7.231  0.0399  0.2552 -0.0169
  524ERGO    R5 7896  14.794  15.881   7.250  0.0687  0.1432 -0.0129
  524ERGO    C1 7897  14.867  16.015   7.600  0.0062  0.1267  0.0060
  524ERGO    C2 7898  15.091  16.043   7.750 -0.0225 -0.0567 -0.2605
  525ERGO   ROH 7899   5.301   7.254   9.709  0.0271 -0.1010 -0.0862
  525ERGO    R1 7900   5.301   7.107   9.467 -0.0792 -0.0670 -0.1071
  525ERGO    R2 7901   5.077   6.975   9.374 -0.1690  0.0876 -0.1140
  525ERGO    R3 7902   5.123   7.121   9.150 -0.0884  0.0905 -0.0959
  525ERGO    R4 7903   5.019   6.865   9.052 -0.1551  0.1309 -0.1314
  525ERGO    R5 7904   5.204   6.962   8.991 -0.1148  0.0767 -0.0959
  525ERGO    C1 7905   5.028   6.939   8.653 -0.0714  0.1589 -0.1245
  525ERGO    C2 7906   4.923   6.860   8.279 -0.0509 -0.0902 -0.0259
  526ERGO   ROH 7907  10.759  17.050  10.052  0.0489  0.1204 -0.1348
  526ERGO    R1 7908  10.704  17.003   9.779 -0.3157  0.0525 -0.0543
  526ERGO    R2 7909  10.487  17.116   9.649 -0.1275  0.5569  0.0542
  526ERGO    R3 7910  10.677  17.204   9.476 -0.0148 -0.0987 -0.1874
  526ERGO    R4 7911  10.429  17.203   9.320 -0.1892  0.4727  0.0421
  526ERGO    R5 7912  10.617  17.106   9.267 -0.4880 -0.1032 -0.0654
  526ERGO    C1 7913  10.574  17.337   8.966 -0.1193 -0.1919 -0.1916
  526ERGO    C2 7914  10.676  17.482   8.666  0.0148 -0.2441  0.0331
  527ERGO   ROH 7915  17.997   2.092  10.173 -0.0550 -0.0247  0.0216
  527ERGO    R1 7916  17.966   2.206   9.916 -0.0463 -0.1698 -0.0443
  527ERGO    R2 7917  18.154   2.376   9.805 -0.1450 -0.0626 -0.0406
  527ERGO    R3 7918  18.145   2.198   9.599  0.0921 -0.1641  0.0323
  527ERGO    R4 7919  18.291   2.428   9.492 -0.1239 -0.0477 -0.0299
  527ERGO    R5 7920  18.116   2.333   9.404 -0.0075 -0.2745 -0.0337
  527ERGO    C1 7921  18.363   2.292   9.117  0.1110 -0.1343  0.0450
  527ERGO    C2 7922  18.621   2.350   8.909  0.0358 -0.2366 -0.1661
  528ERGO   ROH 7923  14.578   5.653   6.410  0.0774  0.3118 -0.0143
  528ERGO    R1 7924  14.400   5.737   6.614  0.0216  0.2232 -0.0256
  528ERGO    R2 7925  14.274   5.560   6.784  0.0324  0.1518 -0.0868
  528ERGO    R3 7926  14.385   5.716   6.977 -0.0341  0.1350 -0.0342
  528ERGO    R4 7927  14.144   5.605   7.101 -0.0226  0.0659 -0.0962
  528ERGO    R5 7928  14.198   5.816   7.088 -0.0662  0.0747 -0.0422
  528ERGO    C1 7929  14.173   5.778   7.467 -0.1170  0.0001 -0.0524
  528ERGO    C2 7930  14.105   5.900   7.745  0.2178 -0.1316 -0.0926
  529ERGO   ROH 7931  11.844   8.974  10.167  0.1610 -0.2000 -0.1082
  529ERGO    R1 7932  11.786   8.995   9.890  0.0862  0.1080 -0.0716
  529ERGO    R2 7933  11.556   8.893   9.779  0.1824  0.0020 -0.1557
  529ERGO    R3 7934  11.527   9.147   9.685 -0.1225  0.1021  0.1774
  529ERGO    R4 7935  11.303   8.996   9.567  0.3789 -0.1987 -0.4984
  529ERGO    R5 7936  11.450   9.117   9.459  0.3786  0.2679 -0.0369
  529ERGO    C1 7937  11.129   9.295   9.355  0.2071 -0.2216 -0.3853
  529ERGO    C2 7938  10.797   9.392   9.197  0.3140  0.2271 -0.0109
  530ERGO   ROH 7939  12.735   9.206  10.172  0.1509 -0.1493 -0.0296
  530ERGO    R1 7940  12.855   9.194   9.916  0.0869 -0.1220 -0.0607
  530ERGO    R2 7941  12.764   9.025   9.717 -0.0234 -0.0302 -0.0873
  530ERGO    R3 7942  12.752   9.255   9.573  0.0308  0.0158 -0.0203
  530ERGO    R4 7943  12.801   9.045   9.374  0.0054  0.0646 -0.0795
  530ERGO    R5 7944  12.918   9.227   9.402  0.0385  0.0348 -0.0168
  530ERGO    C1 7945  12.810   9.272   9.039  0.0731  0.1629 -0.0120
  530ERGO    C2 7946  12.906   9.323   8.701 -0.0157  0.1044  0.1004
  531ERGO   ROH 7947   5.840   5.716   6.201 -0.1254  0.0354 -0.0232
  531ERGO    R1 7948   5.763   5.680   6.470 -0.1058 -0.0032 -0.0236
  531ERGO    R2 7949   5.935   5.581   6.662 -0.0626  0.0674 -0.0314
  531ERGO    R3 7950   5.867   5.808   6.795 -0.1576  0.0335 -0.0202
  531ERGO    R4 7951   5.983   5.635   7.000  0.0837  0.1330 -0.0611
  531ERGO    R5 7952   5.788   5.731   7.008  0.0118 -0.0064  0.0329
  531ERGO    C1 7953   5.946   5.880   7.321  0.0797  0.1394 -0.0679
  531ERGO    C2 7954   6.012   6.018   7.702  0.0764 -0.2655  0.0665
  532ERGO   ROH 7955   3.832  13.181   9.911 -0.2652  0.0239  0.0379
  532ERGO    R1 7956   3.734  13.248   9.654 -0.0693  0.0551 -0.0305
  532ERGO    R2 7957   3.894  13.359   9.458  0.1203 -0.0619  0.0511
  532ERGO    R3 7958   3.804  13.149   9.311  0.0823 -0.0269  0.0242
  532ERGO    R4 7959   3.878  13.351   9.113  0.1626 -0.0456  0.0484
  532ERGO    R5 7960   3.686  13.250   9.129  0.1364  0.0098  0.0141
  532ERGO    C1 7961   3.784  13.150   8.774  0.1515 -0.0033  0.0216
  532ERGO    C2 7962   3.780  12.842   8.455 -0.1483 -0.0236 -0.1270
  533ERGO   ROH 7963   3.552   7.021  10.217  0.0838  0.3226 -0.1918
  533ERGO    R1 7964   3.592   6.821  10.020  0.2827  0.2956 -0.1259
  533ERGO    R2 7965   3.432   6.800   9.796  0.1215 -0.1072  0.0202
  533ERGO    R3 7966   3.670   6.812   9.665 -0.0053  0.2703 -0.1921
  533ERGO    R4 7967   3.471   6.777   9.453 -0.1399 -0.2223 -0.0045
  533ERGO    R5 7968   3.648   6.655   9.486  0.1283  0.1228 -0.0845
  533ERGO    C1 7969   3.717   6.776   9.131 -0.4112  0.0651 -0.2182
  533ERGO    C2 7970   3.567   6.751   8.707  0.3097  0.0696 -0.1517
  534ERGO   ROH 7971  17.347  16.749   9.844 -0.1602 -0.1852 -0.0526
  534ERGO    R1 7972  17.440  16.726   9.577 -0.2230  0.1354 -0.1069
  534ERGO    R2 7973  17.521  16.486   9.468  0.1518  0.3289 -0.2861
  534ERGO    R3 7974  17.339  16.549   9.276 -0.0413  0.1377 -0.1690
  534ERGO    R4 7975  17.540  16.387   9.137 -0.0088  0.2870 -0.2830
  534ERGO    R5 7976  17.470  16.585   9.079 -0.2186  0.2134 -0.2712
  534ERGO    C1 7977  17.380  16.389   8.765 -0.2834  0.0830 -0.1712
  534ERGO    C2 7978  17.372  16.371   8.345 -0.2177  0.1293 -0.0551
  535ERGO   ROH 7979  15.976   8.819   6.686  0.0272  0.1843  0.0386
  535ERGO    R1 7980  15.926   8.945   6.935 -0.0092 -0.0222  0.1370
  535ERGO    R2 7981  15.930   8.807   7.174  0.1314 -0.1868  0.0404
  535ERGO    R3 7982  16.108   9.000   7.245  0.0145 -0.1137  0.1403
  535ERGO    R4 7983  16.034   8.870   7.498  0.2102 -0.3989  0.0581
  535ERGO    R5 7984  16.025   9.083   7.454  0.0310 -0.3623  0.2511
  535ERGO    C1 7985  16.262   9.088   7.752  0.1463 -0.4538  0.1622
  535ERGO    C2 7986  16.511   8.975   7.963  0.2303 -0.0022  0.1699
  536ERGO   ROH 7987   5.633  11.203   9.353  0.0688  0.0993 -0.1581
  536ERGO    R1 7988   5.483  11.226   9.114 -0.0132  0.0414 -0.1120
  536ERGO    R2 7989   5.595  11.307   8.874 -0.1332  0.1574 -0.1287
  536ERGO    R3 7990   5.488  11.074   8.783 -0.0053  0.1018 -0.1400
  536ERGO    R4 7991   5.486  11.251   8.551 -0.0649  0.0998 -0.1423
  536ERGO    R5 7992   5.316  11.142   8.631 -0.0213  0.0149 -0.1623
  536ERGO    C1 7993   5.323  11.000   8.278  0.0948  0.0141 -0.1609
  536ERGO    C2 7994   5.519  10.797   8.028 -0.0039  0.1819  0.0639
  537ERGO   ROH 7995   5.125  11.103   6.115 -0.2508 -0.0592  0.1214
  537ERGO    R1 7996   5.228  11.240   6.340 -0.0201 -0.1278  0.0618
  537ERGO    R2 7997   5.077  11.415   6.490  0.2475  0.1561  0.0268
  537ERGO    R3 7998   5.156  11.256   6.696  0.0408  0.1007  0.0631
  537ERGO    R4 7999   5.124  11.523   6.815  0.1115  0.0941  0.0662
  537ERGO    R5 8000   5.301  11.396   6.826  0.0329  0.0056  0.1638
  537ERGO    C1 8001   5.226  11.436   7.198 -0.1618  0.0060  0.1231
  537ERGO    C2 8002   5.357  11.476   7.455  0.1157  0.1747  0.0907
  538ERGO   ROH 8003   5.055  12.154   9.972  0.0745 -0.5353 -0.3053
  538ERGO    R1 8004   4.911  12.355   9.834  0.0468 -0.3926 -0.0728
  538ERGO    R2 8005   4.964  12.422   9.571 -0.0198 -0.1384 -0.0201
  538ERGO    R3 8006   4.698  12.372   9.539 -0.0310 -0.0920 -0.0041
  538ERGO    R4 8007   4.782  12.492   9.286 -0.0031 -0.1502 -0.0338
  538ERGO    R5 8008   4.617  12.558   9.412  0.0083 -0.0927 -0.0382
  538ERGO    C1 8009   4.427  12.487   9.090 -0.0040 -0.1136 -0.0267
  538ERGO    C2 8010   4.503  12.644   8.795  0.7248  0.1157 -0.0948
  539ERGO   ROH 8011  14.947   2.973  10.029  0.0185  0.1043  0.0721
  539ERGO    R1 8012  14.906   3.083   9.771 -0.1557  0.0911  0.0922
  539ERGO    R2 8013  15.114   3.147   9.601 -0.2480  0.4152  0.0820
  539ERGO    R3 8014  14.979   2.987   9.428 -0.0415  0.2444  0.0757
  539ERGO    R4 8015  15.100   3.194   9.259  0.0978  0.0909  0.0162
  539ERGO    R5 8016  14.889   3.138   9.265  0.1075  0.0738 -0.1597
  539ERGO    C1 8017  14.964   3.071   8.897  0.4930 -0.2584 -0.0280
  539ERGO    C2 8018  14.759   3.228   8.614 -0.0542 -0.1491 -0.4690
  540ERGO   ROH 8019  11.444  17.246   6.382  0.3357  0.0149  0.0258
  540ERGO    R1 8020  11.544  17.156   6.631  0.0896 -0.1262  0.0758
  540ERGO    R2 8021  11.380  17.103   6.846 -0.0997  0.0026 -0.0375
  540ERGO    R3 8022  11.504  16.861   6.840 -0.3364 -0.1231  0.0084
  540ERGO    R4 8023  11.419  16.895   7.120  0.0793  0.2213  0.1079
  540ERGO    R5 8024  11.621  16.849   7.050 -0.0537 -0.0339 -0.1369
  540ERGO    C1 8025  11.558  16.547   7.273 -0.0387  0.2309  0.2355
  540ERGO    C2 8026  11.624  16.290   7.516  0.4667 -0.0645  0.4897
  541ERGO   ROH 8027  16.942  10.258  10.248 -0.0300  0.0041  0.0336
  541ERGO    R1 8028  16.728  10.271  10.064 -0.0015 -0.2515 -0.0206
  541ERGO    R2 8029  16.698  10.477   9.884 -0.3345 -0.1514  0.1387
  541ERGO    R3 8030  16.690  10.275   9.702  0.1059 -0.0297 -0.0302
  541ERGO    R4 8031  16.675  10.521   9.542 -0.0587  0.0757  0.1458
  541ERGO    R5 8032  16.536  10.353   9.535  0.1648 -0.1052 -0.1187
  541ERGO    C1 8033  16.654  10.357   9.172  0.5155  0.3221 -0.0088
  541ERGO    C2 8034  16.669  10.480   8.839  0.2456  0.2159 -0.1212
  542ERGO   ROH 8035  13.560  16.795   6.475 -0.2185 -0.4970 -0.2962
  542ERGO    R1 8036  13.599  16.615   6.690 -0.1314 -0.2660 -0.1158
  542ERGO    R2 8037  13.629  16.701   6.952 -0.1403  0.0103 -0.2048
  542ERGO    R3 8038  13.424  16.528   6.997 -0.0700 -0.0254 -0.0085
  542ERGO    R4 8039  13.596  16.501   7.232  0.2031 -0.0433 -0.1983
  542ERGO    R5 8040  13.526  16.340   7.103  0.0801 -0.0316 -0.1542
  542ERGO    C1 8041  13.384  16.222   7.437  0.4690 -0.1079 -0.0103
  542ERGO    C2 8042  13.392  15.913   7.660  0.0502  0.2722  0.1321
  543ERGO   ROH 8043  12.490   3.968  10.133  0.0608  0.0361 -0.0684
  543ERGO    R1 8044  12.576   3.965   9.864  0.0047  0.0468 -0.0873
  543ERGO    R2 8045  12.469   3.796   9.675  0.0458 -0.0317 -0.0468
  543ERGO    R3 8046  12.428   4.027   9.538 -0.0985 -0.0651 -0.0604
  543ERGO    R4 8047  12.432   3.818   9.332 -0.0145 -0.0688 -0.0426
  543ERGO    R5 8048  12.553   3.999   9.336 -0.1150 -0.0067 -0.0743
  543ERGO    C1 8049  12.372   4.047   9.003 -0.1850 -0.1217 -0.0529
  543ERGO    C2 8050  12.230   4.119   8.676  0.0700  0.2017  0.1309
  544ERGO   ROH 8051   5.357  14.981   6.289  0.0518 -0.0037  0.0371
  544ERGO    R1 8052   5.483  15.056   6.531  0.0856  0.0508  0.0028
  544ERGO    R2 8053   5.364  15.226   6.715  0.1029  0.0772 -0.0097
  544ERGO    R3 8054   5.414  15.022   6.887  0.1450  0.1124  0.0203
  544ERGO    R4 8055   5.403  15.260   7.056  0.0552  0.1273 -0.0089
  544ERGO    R5 8056   5.564  15.114   7.048  0.0991  0.1752  0.0265
  544ERGO    C1 8057   5.472  15.087   7.417  0.0671  0.1895  0.0196
  544ERGO    C2 8058   5.437  15.031   7.828  0.1677  0.2395  0.3835
  545ERGO   ROH 8059   2.454  13.884  10.023 -0.1465 -0.1247 -0.1051
  545ERGO    R1 8060   2.365  14.097   9.860 -0.3074 -0.1420 -0.0407
  545ERGO    R2 8061   2.516  14.198   9.651 -0.3325  0.1085  0.0636
  545ERGO    R3 8062   2.291  14.148   9.507 -0.2276 -0.0574 -0.0472
  545ERGO    R4 8063   2.473  14.278   9.317 -0.2323  0.1155  0.0518
  545ERGO    R5 8064   2.269  14.338   9.363 -0.3090 -0.0525 -0.0349
  545ERGO    C1 8065   2.237  14.277   8.988 -0.0754 -0.0362 -0.0592
  545ERGO    C2 8066   2.293  14.401   8.642 -0.0426  0.3626 -0.0486
  546ERGO   ROH 8067   9.882  16.949  10.433  0.1916  0.2147 -0.0893
  546ERGO    R1 8068   9.756  16.787  10.238  0.0385  0.1523  0.0600
  546ERGO    R2 8069   9.577  16.888  10.054 -0.0007  0.1192  0.0817
  546ERGO    R3 8070   9.744  16.770   9.875 -0.1283 -0.0548  0.0725
  546ERGO    R4 8071   9.512  16.852   9.716  0.0469  0.4044  0.0393
  546ERGO    R5 8072   9.599  16.653   9.726 -0.2734  0.2548 -0.0389
  546ERGO    C1 8073   9.631  16.721   9.352 -0.0450  0.4073  0.0060
  546ERGO    C2 8074   9.556  16.750   8.987  0.1847 -0.0531 -0.0038
  547ERGO   ROH 8075   3.985  10.624   9.976  0.4643  0.2772  0.0102
  547ERGO    R1 8076   3.890  10.765   9.749  0.2477  0.2336  0.0710
  547ERGO    R2 8077   4.057  10.912   9.584  0.0897  0.2272 -0.1037
  547ERGO    R3 8078   3.947  10.757   9.390 -0.0696  0.1829  0.0199
  547ERGO    R4 8079   4.028  11.002   9.252  0.0141  0.0569 -0.1438
  547ERGO    R5 8080   3.831  10.911   9.249 -0.0350  0.1671 -0.0208
  547ERGO    C1 8081   3.909  10.908   8.876 -0.1795 -0.0837 -0.0511
  547ERGO    C2 8082   3.848  10.818   8.558  0.0549 -0.0522  0.2961
  548ERGO   ROH 8083   1.677  12.220  10.129  0.4875 -0.2101  0.0284
  548ERGO    R1 8084   1.768  12.139   9.874  0.3610 -0.1107 -0.0501
  548ERGO    R2 8085   1.612  11.989   9.701  0.3126 -0.1352  0.0105
  548ERGO    R3 8086   1.667  12.191   9.528  0.1186 -0.0679  0.0260
  548ERGO    R4 8087   1.582  11.968   9.358  0.1435 -0.0704  0.0211
  548ERGO    R5 8088   1.766  12.082   9.339  0.0750  0.0273 -0.0512
  548ERGO    C1 8089   1.616  12.145   8.995 -0.1372  0.0305  0.0417
  548ERGO    C2 8090   1.523  12.261   8.668 -0.3723 -0.0029 -0.0552
  549ERGO   ROH 8091   4.252   4.259   6.306 -0.1774  0.0543  0.0171
  549ERGO    R1 8092   4.373   4.182   6.550 -0.1436 -0.2606 -0.0958
  549ERGO    R2 8093   4.390   4.351   6.768  0.4972 -0.2933 -0.1056
  549ERGO    R3 8094   4.268   4.145   6.897  0.0755  0.0105  0.0029
  549ERGO    R4 8095   4.381   4.311   7.111  0.7056 -0.2604 -0.0944
  549ERGO    R5 8096   4.413   4.097   7.082  0.1318 -0.3578 -0.1274
  549ERGO    C1 8097   4.261   4.094   7.432  0.4310  0.0442  0.0140
  549ERGO    C2 8098   4.385   4.152   7.812  0.2300  0.3046 -0.0973
  550ERGO   ROH 8099   7.230  14.822   6.489 -0.2379  0.1061  0.0186
  550ERGO    R1 8100   7.242  14.658   6.720 -0.3102  0.0941  0.0128
  550ERGO    R2 8101   7.439  14.684   6.911 -0.2724 -0.0318 -0.0152
  550ERGO    R3 8102   7.227  14.707   7.080 -0.2349  0.0923  0.0178
  550ERGO    R4 8103   7.463  14.709   7.255 -0.2041 -0.3292  0.0047
  550ERGO    R5 8104   7.289  14.577   7.271 -0.3684 -0.1392 -0.0868
  550ERGO    C1 8105   7.277  14.745   7.614 -0.1291 -0.3859  0.0473
  550ERGO    C2 8106   7.399  14.656   7.897 -0.0229  0.0640 -0.0161
  551ERGO   ROH 8107   0.851   2.744   9.961 -0.2135 -0.2276 -0.1089
  551ERGO    R1 8108   0.947   2.946   9.786 -0.1585 -0.2295 -0.0806
  551ERGO    R2 8109   0.914   2.934   9.512 -0.1141 -0.2089 -0.0868
  551ERGO    R3 8110   0.803   3.179   9.547 -0.0887 -0.1965 -0.0906
  551ERGO    R4 8111   0.921   3.189   9.279 -0.2316 -0.2665 -0.1549
  551ERGO    R5 8112   0.956   3.330   9.442 -0.1412 -0.2263 -0.2100
  551ERGO    C1 8113   0.821   3.568   9.177 -0.2760 -0.2883 -0.1983
  551ERGO    C2 8114   0.634   3.733   8.993 -0.2184 -0.3347 -0.2025
  552ERGO   ROH 8115   1.903   5.261   9.804  0.0681  0.1358  0.0443
  552ERGO    R1 8116   1.906   5.120   9.558  0.2193 -0.1056  0.1822
  552ERGO    R2 8117   1.879   5.246   9.314 -0.2267 -0.4028  0.0731
  552ERGO    R3 8118   2.112   5.117   9.258  0.0341  0.0569  0.0488
  552ERGO    R4 8119   1.997   5.179   8.996 -0.4047 -0.6076  0.0476
  552ERGO    R5 8120   2.062   4.983   9.067  0.1359 -0.3676  0.2991
  552ERGO    C1 8121   2.284   5.019   8.759 -0.2635 -0.2954  0.0100
  552ERGO    C2 8122   2.426   5.118   8.426  0.2755 -0.2705 -0.0154
  553ERGO   ROH 8123   7.465   6.848   5.553  0.0333 -0.0879 -0.2380
  553ERGO    R1 8124   7.498   6.781   5.826 -0.0487 -0.1258 -0.2379
  553ERGO    R2 8125   7.649   6.565   5.910  0.1332  0.0123 -0.2164
  553ERGO    R3 8126   7.776   6.753   6.060 -0.1457  0.1066 -0.0885
  553ERGO    R4 8127   7.769   6.516   6.230  0.2239 -0.0411 -0.2575
  553ERGO    R5 8128   7.699   6.715   6.283 -0.0828 -0.1774 -0.1085
  553ERGO    C1 8129   7.959   6.663   6.557  0.0148  0.0162 -0.1615
  553ERGO    C2 8130   8.089   6.650   6.940  0.1296  0.0624  0.0066
  554ERGO   ROH 8131  10.392  12.056   6.405 -0.3034 -0.1605  0.0955
  554ERGO    R1 8132  10.488  12.191   6.635 -0.1885 -0.0799  0.0018
  554ERGO    R2 8133  10.347  12.394   6.757 -0.1636 -0.0879  0.0452
  554ERGO    R3 8134  10.377  12.239   6.978  0.0221 -0.0280  0.0637
  554ERGO    R4 8135  10.318  12.507   7.083 -0.1463 -0.0550  0.0355
  554ERGO    R5 8136  10.488  12.381   7.136 -0.0351  0.0819  0.0047
  554ERGO    C1 8137  10.329  12.427   7.480  0.0381  0.0202  0.0471
  554ERGO    C2 8138  10.196  12.586   7.669  0.1009  0.0963  0.0262
  555ERGO   ROH 8139  14.302   0.220   6.690 -0.0259 -0.1136 -0.1494
  555ERGO    R1 8140  14.352   0.333   6.945  0.1027  0.0244 -0.2349
  555ERGO    R2 8141  14.307   0.194   7.179 -0.1445  0.2823 -0.1293
  555ERGO    R3 8142  14.567   0.258   7.229 -0.0497 -0.0648 -0.1405
  555ERGO    R4 8143  14.458   0.180   7.490 -0.2196  0.3110 -0.0898
  555ERGO    R5 8144  14.561   0.367   7.443  0.0720  0.1242 -0.2283
  555ERGO    C1 8145  14.789   0.233   7.718 -0.1743  0.0019 -0.0775
  555ERGO    C2 8146  14.950   0.120   8.037  0.0033  0.2612  0.0283
  556ERGO   ROH 8147   2.967   3.053   6.067 -0.1916  0.1394  0.0957
  556ERGO    R1 8148   3.002   2.845   6.255 -0.1775  0.0358 -0.0220
  556ERGO    R2 8149   3.173   2.866   6.471 -0.2202 -0.0542  0.0152
  556ERGO    R3 8150   2.951   2.800   6.613 -0.2261 -0.1906 -0.0544
  556ERGO    R4 8151   3.160   2.839   6.815 -0.2854 -0.1277  0.0079
  556ERGO    R5 8152   3.033   2.663   6.791 -0.1979 -0.1891 -0.0606
  556ERGO    C1 8153   2.943   2.760   7.149 -0.3289 -0.2986 -0.0618
  556ERGO    C2 8154   2.988   2.753   7.497 -0.0419  0.0062  0.3167
  557ERGO   ROH 8155   1.267  17.886   6.223 -0.4240  0.3189 -0.0690
  557ERGO    R1 8156   1.377  17.912   6.482 -0.2514  0.2274 -0.1331
  557ERGO    R2 8157   1.489  18.148   6.573 -0.3752  0.2501 -0.0591
  557ERGO    R3 8158   1.313  18.114   6.778 -0.1926 -0.0281  0.0607
  557ERGO    R4 8159   1.570  18.167   6.909 -0.1690  0.4130 -0.1149
  557ERGO    R5 8160   1.438  17.997   6.945  0.1267  0.1848 -0.0104
  557ERGO    C1 8161   1.452  18.146   7.296  0.1225  0.2468 -0.0348
  557ERGO    C2 8162   1.343  18.043   7.564  0.0520  0.1437 -0.1138
  558ERGO   ROH 8163   9.147  15.902  10.287 -0.0814 -0.0042 -0.0553
  558ERGO    R1 8164   9.271  15.697  10.136  0.0011 -0.0172  0.0288
  558ERGO    R2 8165   9.166  15.603   9.898  0.0463 -0.1477  0.0573
  558ERGO    R3 8166   9.413  15.664   9.803  0.0285 -0.0911  0.0483
  558ERGO    R4 8167   9.277  15.534   9.578  0.0349 -0.0677  0.0360
  558ERGO    R5 8168   9.470  15.478   9.662  0.0482 -0.0529  0.0087
  558ERGO    C1 8169   9.575  15.551   9.303  0.0115  0.0319  0.0153
  558ERGO    C2 8170   9.741  15.527   8.969  0.3383  0.2345  0.0169
  559ERGO   ROH 8171  16.823   7.837  10.212 -0.0922 -0.1144  0.0268
  559ERGO    R1 8172  16.931   7.855   9.951 -0.1516 -0.1413 -0.0005
  559ERGO    R2 8173  16.880   7.667   9.755 -0.3227 -0.0822 -0.0179
  559ERGO    R3 8174  16.800   7.884   9.613 -0.2286 -0.0091  0.0405
  559ERGO    R4 8175  16.811   7.667   9.417 -0.2611  0.0571 -0.0308
  559ERGO    R5 8176  16.910   7.861   9.401 -0.1987  0.0303  0.0531
  559ERGO    C1 8177  16.696   7.871   9.086 -0.1370  0.2068  0.0165
  559ERGO    C2 8178  16.606   7.629   8.859  0.0031 -0.5334  0.3861
  560ERGO   ROH 8179   9.601   9.703   5.981 -0.0739  0.1976  0.1071
  560ERGO    R1 8180   9.690   9.699   6.250 -0.0673  0.1599  0.1038
  560ERGO    R2 8181   9.768   9.927   6.384 -0.2146  0.1615  0.1813
  560ERGO    R3 8182   9.583   9.845   6.566 -0.1566 -0.0217  0.1603
  560ERGO    R4 8183   9.763  10.021   6.717 -0.4297  0.2934  0.1433
  560ERGO    R5 8184   9.708   9.816   6.769 -0.1652  0.2300  0.2082
  560ERGO    C1 8185   9.587   9.998   7.081 -0.5004  0.1982  0.1015
  560ERGO    C2 8186   9.622  10.022   7.442  0.2577  0.2987  0.0489
  561ERGO   ROH 8187   1.039   5.847   9.726 -0.1179 -0.0907  0.0878
  561ERGO    R1 8188   1.148   5.974   9.498  0.0187 -0.1485  0.1216
  561ERGO    R2 8189   1.246   5.833   9.282 -0.1402 -0.1980  0.0883
  561ERGO    R3 8190   1.072   5.990   9.142  0.0310  0.0322  0.1243
  561ERGO    R4 8191   1.259   5.888   8.941 -0.3039 -0.4638  0.0346
  561ERGO    R5 8192   1.208   6.097   8.977  0.1106 -0.3310 -0.0624
  561ERGO    C1 8193   1.104   6.067   8.612 -0.2384 -0.4025  0.0370
  561ERGO    C2 8194   1.200   6.137   8.162  0.2667  0.0953 -0.2666
  562ERGO   ROH 8195   2.315   1.717   5.880  0.3326  0.0531  0.0190
  562ERGO    R1 8196   2.328   1.929   6.067  0.1984  0.0094  0.0791
  562ERGO    R2 8197   2.163   1.942   6.289  0.0846 -0.0781  0.0034
  562ERGO    R3 8198   2.398   1.963   6.423  0.0158 -0.0669  0.1230
  562ERGO    R4 8199   2.193   2.021   6.624 -0.0754  0.1490 -0.0335
  562ERGO    R5 8200   2.364   2.146   6.574 -0.0045  0.0518 -0.0252
  562ERGO    C1 8201   2.432   2.087   6.945 -0.2332  0.2918  0.0572
  562ERGO    C2 8202   2.570   1.949   7.237  0.1470 -0.0168 -0.0063
  563ERGO   ROH 8203  13.820   2.951   9.968 -0.0180  0.4828 -0.1098
  563ERGO    R1 8204  13.740   2.903   9.701  0.0279  0.1660 -0.0710
  563ERGO    R2 8205  13.693   3.107   9.520 -0.2519 -0.0311 -0.2357
  563ERGO    R3 8206  13.874   2.971   9.370 -0.0767  0.0823 -0.1297
  563ERGO    R4 8207  13.725   3.132   9.177 -0.0435  0.0003 -0.2143
  563ERGO    R5 8208  13.757   2.917   9.169  0.0868  0.0229 -0.2068
  563ERGO    C1 8209  13.913   3.018   8.836  0.2424  0.1250 -0.1024
  563ERGO    C2 8210  14.282   2.924   8.615  0.1813 -0.1456  0.0449
  564ERGO   ROH 8211   9.273  13.103   6.545  0.2517  0.1186 -0.0309
  564ERGO    R1 8212   9.355  13.064   6.813  0.0634  0.1034  0.0256
  564ERGO    R2 8213   9.494  13.255   6.956  0.1358  0.0174  0.0667
  564ERGO    R3 8214   9.292  13.222   7.135  0.0037  0.2168 -0.0405
  564ERGO    R4 8215   9.524  13.298   7.297 -0.0336  0.1092  0.0716
  564ERGO    R5 8216   9.398  13.123   7.325 -0.1749  0.2037  0.0559
  564ERGO    C1 8217   9.352  13.292   7.664 -0.2561  0.3498 -0.0262
  564ERGO    C2 8218   9.424  13.441   7.956  0.1308 -0.0560  0.1784
  565ERGO   ROH 8219   4.964   2.106   6.436  0.0803  0.0021  0.0126
  565ERGO    R1 8220   4.870   2.233   6.670  0.0687  0.0224 -0.0034
  565ERGO    R2 8221   4.605   2.221   6.751  0.0815 -0.0365  0.0256
  565ERGO    R3 8222   4.714   2.130   6.982  0.1303  0.0411  0.0342
  565ERGO    R4 8223   4.441   2.206   7.055  0.0586 -0.1772  0.0073
  565ERGO    R5 8224   4.624   2.273   7.152 -0.0027 -0.0344  0.0298
  565ERGO    C1 8225   4.448   2.112   7.449  0.0911 -0.1862  0.0048
  565ERGO    C2 8226   4.436   1.951   7.753  0.3377  0.3992  0.1222
  566ERGO   ROH 8227  15.758  10.050   6.632  0.1856  0.3877 -0.1700
  566ERGO    R1 8228  15.780   9.977   6.905  0.0167  0.2154 -0.1995
  566ERGO    R2 8229  16.023   9.913   7.022 -0.0620  0.0624 -0.1092
  566ERGO    R3 8230  15.950  10.105   7.200 -0.0924 -0.0148 -0.0329
  566ERGO    R4 8231  16.198   9.994   7.309  0.0779  0.1739 -0.2242
  566ERGO    R5 8232  16.008  10.014   7.414  0.1344  0.0071 -0.0831
  566ERGO    C1 8233  16.231  10.222   7.643  0.1307  0.1662 -0.2195
  566ERGO    C2 8234  16.211  10.403   7.967 -0.0492 -0.0427 -0.0392
  567ERGO   ROH 8235  10.417   0.208   6.222  0.0277  0.1433  0.1140
  567ERGO    R1 8236  10.351   0.086   6.469  0.0260  0.0317  0.0589
  567ERGO    R2 8237  10.542  -0.023   6.636  0.0369  0.0679  0.0670
  567ERGO    R3 8238  10.429   0.143   6.820 -0.0848 -0.0463  0.0971
  567ERGO    R4 8239  10.622  -0.016   6.972  0.0384  0.0667  0.0669
  567ERGO    R5 8240  10.411   0.009   7.018  0.0171 -0.0976  0.0745
  567ERGO    C1 8241  10.563   0.144   7.340 -0.0750 -0.0412  0.0951
  567ERGO    C2 8242  10.699   0.082   7.622 -0.3149  0.1173  0.1425
  568ERGO   ROH 8243   7.186  15.794   6.576 -0.2100  0.0682  0.0701
  568ERGO    R1 8244   7.324  15.864   6.813 -0.2176  0.0133  0.0911
  568ERGO    R2 8245   7.251  15.768   7.062 -0.1695 -0.1164  0.0556
  568ERGO    R3 8246   7.512  15.690   7.072 -0.1428 -0.0350  0.0050
  568ERGO    R4 8247   7.435  15.730   7.352 -0.1065 -0.0712  0.0217
  568ERGO    R5 8248   7.606  15.819   7.250 -0.1523 -0.0124 -0.0057
  568ERGO    C1 8249   7.786  15.635   7.530 -0.0448  0.0316 -0.0455
  568ERGO    C2 8250   7.989  15.661   7.816 -0.2118 -0.0169 -0.2910
  569ERGO   ROH 8251  10.517  10.840   6.369  0.0333 -0.0045 -0.0050
  569ERGO    R1 8252  10.698  10.840   6.586 -0.0233 -0.0187  0.0425
  569ERGO    R2 8253  10.696  11.035   6.782 -0.1095 -0.0606  0.0849
  569ERGO    R3 8254  10.676  10.822   6.949 -0.1155 -0.1009  0.0326
  569ERGO    R4 8255  10.714  11.051   7.127 -0.2296 -0.1338  0.0955
  569ERGO    R5 8256  10.833  10.868   7.124 -0.1866 -0.1040  0.0956
  569ERGO    C1 8257  10.707  10.860   7.484 -0.3052 -0.2144  0.0526
  569ERGO    C2 8258  10.925  10.983   7.781 -0.0850  0.2656  0.1518
  570ERGO   ROH 8259   5.182   8.660   9.842  0.2265  0.1622 -0.2061
  570ERGO    R1 8260   5.163   8.735   9.570  0.1227  0.0806 -0.2213
  570ERGO    R2 8261   5.240   8.568   9.364  0.0000  0.0030 -0.2010
  570ERGO    R3 8262   4.988   8.616   9.274 -0.0295  0.0233 -0.1107
  570ERGO    R4 8263   5.156   8.625   9.034 -0.1294 -0.1504 -0.1962
  570ERGO    R5 8264   5.017   8.779   9.101 -0.0594 -0.0739 -0.2120
  570ERGO    C1 8265   4.870   8.702   8.757 -0.2324 -0.2207 -0.1084
  570ERGO    C2 8266   4.732   8.700   8.376 -0.1489  0.0416  0.1316
  571ERGO   ROH 8267  16.136  12.596  10.104 -0.2746  0.3288 -0.0767
  571ERGO    R1 8268  16.200  12.711   9.854 -0.3722  0.0931 -0.2110
  571ERGO    R2 8269  16.419  12.633   9.705 -0.2056  0.2281 -0.0267
  571ERGO    R3 8270  16.233  12.595   9.510 -0.0848 -0.3167 -0.0546
  571ERGO    R4 8271  16.490  12.603   9.368 -0.0456  0.2876 -0.0005
  571ERGO    R5 8272  16.314  12.724   9.325 -0.3645 -0.1624 -0.0819
  571ERGO    C1 8273  16.357  12.549   8.989  0.1610 -0.1891 -0.0118
  571ERGO    C2 8274  16.479  12.405   8.718  0.1003  0.3062  0.1463
  572ERGO   ROH 8275  14.264   1.160   9.672 -0.3445 -0.0604  0.0342
  572ERGO    R1 8276  14.241   1.141   9.391 -0.4244  0.0719  0.0301
  572ERGO    R2 8277  14.395   0.967   9.240 -0.1793  0.4175 -0.1415
  572ERGO    R3 8278  14.153   0.884   9.150 -0.0811  0.0586 -0.0841
  572ERGO    R4 8279  14.324   0.881   8.913 -0.1211  0.2280 -0.1044
  572ERGO    R5 8280  14.133   0.981   8.933 -0.2546 -0.0314 -0.1052
  572ERGO    C1 8281  14.055   0.752   8.638  0.0051 -0.2193 -0.0291
  572ERGO    C2 8282  13.975   0.647   8.328 -0.2137 -0.1204  0.2756
  573ERGO   ROH 8283  10.793   4.539   9.993  0.0286 -0.0420  0.0950
  573ERGO    R1 8284  10.636   4.552   9.758  0.0038  0.0469  0.1174
  573ERGO    R2 8285  10.708   4.705   9.539  0.0847 -0.0338  0.0939
  573ERGO    R3 8286  10.679   4.470   9.406 -0.1118 -0.0265  0.1179
  573ERGO    R4 8287  10.592   4.673   9.215  0.1024  0.0459  0.0787
  573ERGO    R5 8288  10.480   4.498   9.277 -0.0734  0.1498  0.0849
  573ERGO    C1 8289  10.497   4.434   8.902 -0.0720  0.0991  0.0925
  573ERGO    C2 8290  10.303   4.277   8.603  0.1641  0.2882 -0.2600
  574ERGO   ROH 8291   7.459   7.985   5.973 -0.0044 -0.0350 -0.1950
  574ERGO    R1 8292   7.472   8.265   6.014 -0.1890 -0.0391 -0.0953
  574ERGO    R2 8293   7.309   8.397   6.194 -0.0951 -0.2491  0.1496
  574ERGO    R3 8294   7.546   8.488   6.292 -0.0536 -0.0957 -0.0847
  574ERGO    R4 8295   7.346   8.680   6.389 -0.1359 -0.3963  0.3752
  574ERGO    R5 8296   7.528   8.727   6.278 -0.3300 -0.0951  0.1672
  574ERGO    C1 8297   7.590   8.931   6.594 -0.1207 -0.3381  0.2866
  574ERGO    C2 8298   7.515   9.056   6.889  0.0491 -0.2327 -0.2855
  575ERGO   ROH 8299  13.955   4.486   6.290  0.0484 -0.3424 -0.0002
  575ERGO    R1 8300  14.135   4.432   6.502 -0.0008 -0.1062  0.1032
  575ERGO    R2 8301  14.081   4.504   6.763 -0.2730 -0.2242  0.0805
  575ERGO    R3 8302  14.129   4.241   6.812  0.0939 -0.1654  0.0697
  575ERGO    R4 8303  14.149   4.370   7.075 -0.3945 -0.1775  0.1281
  575ERGO    R5 8304  14.299   4.242   6.981 -0.0820  0.0742  0.2553
  575ERGO    C1 8305  14.234   4.046   7.301 -0.1208 -0.0951  0.1455
  575ERGO    C2 8306  14.144   3.928   7.557  0.1175 -0.1521 -0.3420
  576ERGO   ROH 8307  15.074  10.117  10.224  0.0424 -0.1380  0.0157
  576ERGO    R1 8308  15.222  10.087   9.985  0.0008 -0.2282  0.0005
  576ERGO    R2 8309  15.180   9.878   9.809 -0.2481 -0.1257 -0.0695
  576ERGO    R3 8310  15.148  10.078   9.628 -0.0256 -0.0248 -0.0005
  576ERGO    R4 8311  15.203   9.840   9.467 -0.0055  0.0277 -0.0718
  576ERGO    R5 8312  15.309  10.031   9.458  0.0838 -0.0118  0.0980
  576ERGO    C1 8313  15.187  10.006   9.097  0.3445  0.2118 -0.0083
  576ERGO    C2 8314  15.058  10.041   8.755  0.0751 -0.3881  0.3246
  577ERGO   ROH 8315  12.360   9.648   6.192  0.1885  0.0440  0.2012
  577ERGO    R1 8316  12.233   9.723   6.434  0.1006  0.0424  0.1551
  577ERGO    R2 8317  12.062   9.554   6.570  0.1260  0.0079  0.1397
  577ERGO    R3 8318  12.230   9.606   6.778  0.0528  0.1036  0.1764
  577ERGO    R4 8319  11.974   9.537   6.904  0.1107 -0.2381  0.1253
  577ERGO    R5 8320  12.092   9.717   6.939 -0.0896 -0.1181  0.2144
  577ERGO    C1 8321  12.079   9.576   7.293  0.0330 -0.2916  0.1513
  577ERGO    C2 8322  11.874   9.433   7.411  0.1529 -0.1794  0.1719
  578ERGO   ROH 8323  13.193  17.784   9.619  0.1988  0.0428  0.1669
  578ERGO    R1 8324  13.180  17.713   9.346  0.3945  0.0056  0.1658
  578ERGO    R2 8325  13.007  17.836   9.169  0.0215 -0.4788  0.1759
  578ERGO    R3 8326  13.234  17.879   9.026 -0.0896  0.1859  0.1680
  578ERGO    R4 8327  13.033  17.808   8.825  0.1473 -0.7022  0.2012
  578ERGO    R5 8328  13.228  17.714   8.852  0.4941 -0.0148  0.3131
  578ERGO    C1 8329  13.262  17.832   8.491  0.1163 -0.2083  0.2084
  578ERGO    C2 8330  13.364  17.653   8.181  0.0059  0.3450  0.0099
  579ERGO   ROH 8331   2.790   5.596   9.882 -0.1532  0.0373 -0.0117
  579ERGO    R1 8332   2.739   5.602   9.604 -0.0992  0.0905 -0.0198
  579ERGO    R2 8333   2.650   5.829   9.474  0.1398  0.1775 -0.0305
  579ERGO    R3 8334   2.866   5.785   9.316  0.1256 -0.0253  0.0025
  579ERGO    R4 8335   2.664   5.898   9.136  0.2919  0.2835 -0.0045
  579ERGO    R5 8336   2.773   5.711   9.107  0.0781  0.1574 -0.0454
  579ERGO    C1 8337   2.875   5.896   8.790  0.3671  0.1547  0.0416
  579ERGO    C2 8338   3.015   5.950   8.445  0.0260  0.2581 -0.0242
  580ERGO   ROH 8339  12.615  15.252   6.293 -0.0341  0.1612 -0.0668
  580ERGO    R1 8340  12.549  15.306   6.563 -0.1019  0.1131 -0.0730
  580ERGO    R2 8341  12.317  15.213   6.680 -0.0779 -0.0057 -0.1135
  580ERGO    R3 8342  12.489  15.111   6.864 -0.0560  0.0645 -0.0956
  580ERGO    R4 8343  12.227  15.107   6.997 -0.0302  0.1605 -0.0436
  580ERGO    R5 8344  12.410  15.197   7.073 -0.0056  0.1764 -0.1229
  580ERGO    C1 8345  12.337  14.949   7.353  0.0183  0.3233  0.0141
  580ERGO    C2 8346  12.096  14.825   7.585  0.0962  0.1943 -0.0626
  581ERGO   ROH 8347  11.243   6.842   6.127 -0.0444  0.3431 -0.0798
  581ERGO    R1 8348  11.213   6.809   6.406  0.0365  0.1339 -0.0950
  581ERGO    R2 8349  11.261   7.013   6.586 -0.0194  0.0289  0.0326
  581ERGO    R3 8350  11.009   6.955   6.670  0.0280 -0.1473  0.0609
  581ERGO    R4 8351  11.165   6.980   6.916 -0.0084  0.2573  0.0613
  581ERGO    R5 8352  11.040   6.811   6.858  0.1650  0.0647  0.2105
  581ERGO    C1 8353  10.872   6.906   7.187  0.0422  0.2250  0.1046
  581ERGO    C2 8354  10.902   6.928   7.477  0.0958 -0.0366  0.0924
  582ERGO   ROH 8355   9.743   5.194   9.430  0.2295 -0.0527 -0.0003
  582ERGO    R1 8356   9.656   5.151   9.164  0.0536  0.0110  0.0439
  582ERGO    R2 8357   9.832   5.140   8.950 -0.0926  0.1878 -0.1006
  582ERGO    R3 8358   9.710   4.901   8.906 -0.0025  0.1427 -0.0925
  582ERGO    R4 8359   9.878   4.942   8.670 -0.0465  0.1905 -0.0935
  582ERGO    R5 8360   9.665   4.899   8.671 -0.0184  0.1114 -0.0806
  582ERGO    C1 8361   9.791   4.603   8.466  0.0650  0.1499 -0.0817
  582ERGO    C2 8362   9.784   4.208   8.260 -0.2015 -0.1107 -0.1567
  583ERGO   ROH 8363  10.294   2.852   6.249 -0.0821  0.0935 -0.2020
  583ERGO    R1 8364  10.215   2.929   6.510  0.0291  0.1449 -0.1843
  583ERGO    R2 8365  10.224   2.756   6.725  0.1132  0.1890 -0.1615
  583ERGO    R3 8366  10.372   2.955   6.837  0.1633  0.2049 -0.2504
  583ERGO    R4 8367  10.267   2.802   7.065  0.2585  0.2210 -0.1821
  583ERGO    R5 8368  10.248   3.017   7.033  0.2418  0.2240 -0.2001
  583ERGO    C1 8369  10.430   3.016   7.368  0.3899  0.2546 -0.2776
  583ERGO    C2 8370  10.556   2.890   7.630  0.2903  0.1683 -0.1377
  584ERGO   ROH 8371  12.544  14.046   6.139 -0.0097  0.2612 -0.2454
  584ERGO    R1 8372  12.561  14.080   6.420 -0.0749  0.1263 -0.2251
  584ERGO    R2 8373  12.793  14.034   6.561 -0.0902  0.1260 -0.2045
  584ERGO    R3 8374  12.751  14.288   6.650 -0.1829  0.0696 -0.0824
  584ERGO    R4 8375  12.863  14.145   6.881  0.0847  0.0516 -0.2149
  584ERGO    R5 8376  12.677  14.260   6.876  0.0051 -0.0609 -0.0327
  584ERGO    C1 8377  12.864  14.448   7.151  0.0995 -0.0447 -0.1064
  584ERGO    C2 8378  13.040  14.508   7.496  0.0451 -0.1950 -0.0532
  585ERGO   ROH 8379  18.028   1.130   9.803  0.0727 -0.0859  0.1708
  585ERGO    R1 8380  18.137   1.087   9.545  0.1774 -0.1362  0.2236
  585ERGO    R2 8381  18.057   1.231   9.323  0.0945 -0.3422  0.1190
  585ERGO    R3 8382  18.323   1.282   9.301  0.0545 -0.1045  0.1550
  585ERGO    R4 8383  18.218   1.315   9.029  0.0405 -0.0524  0.1680
  585ERGO    R5 8384  18.384   1.188   9.090  0.1462  0.0562  0.1080
  585ERGO    C1 8385  18.561   1.412   8.837 -0.0287  0.3396  0.2302
  585ERGO    C2 8386  18.678   1.563   8.555 -0.0923  0.0676 -0.0312
  586ERGO   ROH 8387  17.294   5.748   6.242 -0.2900  0.1259 -0.0307
  586ERGO    R1 8388  17.347   5.652   6.503 -0.1686  0.0546 -0.0812
  586ERGO    R2 8389  17.498   5.793   6.686 -0.1246  0.0258 -0.0976
  586ERGO    R3 8390  17.279   5.759   6.844 -0.0554 -0.0657 -0.0190
  586ERGO    R4 8391  17.504   5.776   7.032  0.0048  0.0755 -0.0966
  586ERGO    R5 8392  17.355   5.617   7.021  0.0806 -0.0046 -0.0246
  586ERGO    C1 8393  17.302   5.734   7.381  0.1451  0.0185 -0.0222
  586ERGO    C2 8394  17.317   5.799   7.697  0.2419  0.0114 -0.0387
  587ERGO   ROH 8395   9.092  17.691   6.148  0.0004 -0.2584  0.1745
  587ERGO    R1 8396   8.999  17.630   6.408 -0.0529 -0.2596  0.1528
  587ERGO    R2 8397   9.159  17.512   6.600 -0.0601 -0.1363  0.2238
  587ERGO    R3 8398   9.083  17.726   6.749 -0.2228 -0.1566  0.1673
  587ERGO    R4 8399   9.156  17.521   6.945  0.3540  0.0889  0.2310
  587ERGO    R5 8400   8.968  17.631   6.935  0.1584 -0.2222  0.3815
  587ERGO    C1 8401   9.082  17.728   7.286  0.4424  0.2012  0.1822
  587ERGO    C2 8402   8.927  17.720   7.619  0.1060 -0.0404 -0.0920
  588ERGO   ROH 8403  11.210   3.443   6.132  0.1626 -0.0955  0.0621
  588ERGO    R1 8404  11.243   3.317   6.384  0.1577 -0.1515  0.0352
  588ERGO    R2 8405  11.421   3.110   6.424  0.1865 -0.1334  0.0025
  588ERGO    R3 8406  11.514   3.271   6.623  0.1417 -0.1669  0.0506
  588ERGO    R4 8407  11.454   3.017   6.755  0.2078 -0.2238 -0.0252
  588ERGO    R5 8408  11.380   3.214   6.813  0.1545 -0.2595  0.0325
  588ERGO    C1 8409  11.559   3.113   7.135  0.1781 -0.3079  0.0039
  588ERGO    C2 8410  11.517   3.228   7.460 -0.0113  0.0101 -0.0029
  589ERGO   ROH 8411   8.860   2.953   6.474  0.1142  0.0144 -0.0809
  589ERGO    R1 8412   8.844   3.165   6.661  0.0609  0.0431 -0.1168
  589ERGO    R2 8413   8.728   3.136   6.910 -0.0160  0.0827 -0.1454
  589ERGO    R3 8414   8.967   3.231   6.997 -0.0397  0.0900 -0.0891
  589ERGO    R4 8415   8.792   3.250   7.230 -0.0818  0.0449 -0.1193
  589ERGO    R5 8416   8.911   3.410   7.144 -0.0796  0.0649 -0.0754
  589ERGO    C1 8417   9.053   3.405   7.498 -0.1426  0.0298 -0.0512
  589ERGO    C2 8418   9.256   3.490   7.727  0.0068 -0.1741 -0.1098
  590ERGO   ROH 8419   9.770   7.793   6.091 -0.0503 -0.0433  0.1118
  590ERGO    R1 8420   9.826   7.743   6.364  0.0350  0.0284  0.1076
  590ERGO    R2 8421  10.062   7.823   6.484 -0.0208  0.2511  0.0667
  590ERGO    R3 8422   9.893   7.941   6.661 -0.1019  0.1116  0.0846
  590ERGO    R4 8423  10.112   7.838   6.826 -0.0936  0.1111  0.0846
  590ERGO    R5 8424   9.900   7.800   6.854 -0.0903  0.0217  0.0223
  590ERGO    C1 8425   9.983   7.959   7.191 -0.2122 -0.1014  0.1118
  590ERGO    C2 8426  10.065   8.056   7.508 -0.4121 -0.1368  0.0280
  591ERGO   ROH 8427  16.602  11.454   6.464  0.0479  0.3160 -0.0390
  591ERGO    R1 8428  16.644  11.501   6.740 -0.0025  0.2925 -0.0273
  591ERGO    R2 8429  16.450  11.610   6.903 -0.0888  0.1288 -0.0194
  591ERGO    R3 8430  16.496  11.388   7.053  0.0535  0.1314 -0.0575
  591ERGO    R4 8431  16.474  11.606   7.248  0.1807  0.1290 -0.0357
  591ERGO    R5 8432  16.639  11.464   7.230  0.1848  0.1468 -0.1665
  591ERGO    C1 8433  16.531  11.394   7.589  0.4709  0.1315 -0.0811
  591ERGO    C2 8434  16.428  11.369   7.972 -0.0482 -0.1244  0.0394
  592ERGO   ROH 8435  12.686   5.019   6.170  0.0929  0.0996  0.1596
  592ERGO    R1 8436  12.660   4.885   6.419 -0.0087  0.0967  0.1484
  592ERGO    R2 8437  12.657   5.019   6.660 -0.0046  0.0862  0.1556
  592ERGO    R3 8438  12.424   4.884   6.695 -0.0645  0.1755  0.1010
  592ERGO    R4 8439  12.474   5.014   6.953 -0.0709  0.1465  0.1150
  592ERGO    R5 8440  12.435   4.802   6.920 -0.1457  0.1632  0.1000
  592ERGO    C1 8441  12.148   4.885   7.156 -0.1657  0.2653  0.0401
  592ERGO    C2 8442  12.073   5.010   7.329 -0.0064  0.1654  0.3100
  593ERGO   ROH 8443  15.301   8.099   6.410 -0.2584  0.1876 -0.0058
  593ERGO    R1 8444  15.167   8.093   6.659 -0.0740 -0.0001  0.0919
  593ERGO    R2 8445  15.274   7.972   6.882  0.2521  0.1370  0.0149
  593ERGO    R3 8446  15.229   8.215   6.996  0.0047  0.0772  0.0495
  593ERGO    R4 8447  15.232   8.027   7.221  0.2186  0.0524  0.0249
  593ERGO    R5 8448  15.074   8.170   7.173  0.0642 -0.1068  0.0553
  593ERGO    C1 8449  15.165   8.287   7.525 -0.0333 -0.0532  0.0633
  593ERGO    C2 8450  15.176   8.435   7.916  0.2707 -0.0190  0.0071
  594ERGO   ROH 8451   8.712   1.639   6.590 -0.2383  0.1477 -0.1972
  594ERGO    R1 8452   8.736   1.589   6.868 -0.0472 -0.0571 -0.2473
  594ERGO    R2 8453   8.587   1.724   7.057  0.2445 -0.0319 -0.0277
  594ERGO    R3 8454   8.518   1.473   7.135  0.0678 -0.0191 -0.1361
  594ERGO    R4 8455   8.555   1.622   7.385  0.1196 -0.1382 -0.0721
  594ERGO    R5 8456   8.650   1.434   7.330  0.0081 -0.1800 -0.1267
  594ERGO    C1 8457   8.471   1.326   7.650 -0.1189 -0.1880 -0.1997
  594ERGO    C2 8458   8.438   1.207   7.817 -0.0539  0.1365  0.1570
  595ERGO   ROH 8459   6.033  14.256   6.630 -0.2143 -0.2929 -0.1263
  595ERGO    R1 8460   5.863  14.191   6.846 -0.1500 -0.1478 -0.0300
  595ERGO    R2 8461   5.924  13.993   7.030 -0.1544 -0.1145  0.0124
  595ERGO    R3 8462   5.884  14.193   7.210  0.0096 -0.0332 -0.0403
  595ERGO    R4 8463   5.859  13.946   7.366  0.0148  0.0427  0.0687
  595ERGO    R5 8464   5.714  14.109   7.356  0.0642  0.0824  0.0877
  595ERGO    C1 8465   5.784  14.107   7.731  0.2674  0.2105  0.0520
  595ERGO    C2 8466   5.858  13.998   8.100  0.0451  0.1596  0.0853
  596ERGO   ROH 8467  11.624   0.392  10.190 -0.3882  0.1097  0.1868
  596ERGO    R1 8468  11.592   0.229   9.961 -0.0839  0.0935  0.1531
  596ERGO    R2 8469  11.416   0.290   9.757 -0.0797 -0.1072  0.0885
  596ERGO    R3 8470  11.638   0.265   9.602  0.0207  0.1932  0.1757
  596ERGO    R4 8471  11.414   0.247   9.414  0.1136 -0.1282  0.0886
  596ERGO    R5 8472  11.577   0.104   9.436  0.3079  0.0961  0.1580
  596ERGO    C1 8473  11.621   0.198   9.069  0.3204  0.1416  0.1706
  596ERGO    C2 8474  11.632   0.345   8.753  0.0628  0.0942  0.2431
  597ERGO   ROH 8475  10.123   3.270   6.189  0.1934 -0.0477 -0.0893
  597ERGO    R1 8476  10.095   3.430   6.420  0.1725 -0.0726 -0.0747
  597ERGO    R2 8477   9.897   3.386   6.609  0.1060 -0.0460 -0.1356
  597ERGO    R3 8478  10.108   3.379   6.780  0.0582 -0.1289 -0.0789
  597ERGO    R4 8479   9.878   3.439   6.950  0.0447 -0.0437 -0.1388
  597ERGO    R5 8480  10.063   3.553   6.938  0.0883 -0.1164 -0.0881
  597ERGO    C1 8481  10.065   3.464   7.309 -0.0357 -0.1203 -0.0874
  597ERGO    C2 8482  10.064   3.309   7.537  0.1251  0.0109  0.0144
  598ERGO   ROH 8483   8.815   4.790   5.761  0.0390  0.1509  0.1372
  598ERGO    R1 8484   8.735   4.668   6.004  0.0505  0.1011  0.1163
  598ERGO    R2 8485   8.763   4.791   6.249 -0.0208  0.0885  0.1323
  598ERGO    R3 8486   8.497   4.740   6.270 -0.0063 -0.0028  0.0939
  598ERGO    R4 8487   8.582   4.804   6.543 -0.0756  0.0567  0.0999
  598ERGO    R5 8488   8.475   4.626   6.479 -0.0018  0.0126  0.1019
  598ERGO    C1 8489   8.227   4.763   6.734 -0.0940 -0.0476  0.0450
  598ERGO    C2 8490   7.967   4.679   6.944  0.0903  0.0037  0.0273
  599ERGO   ROH 8491   4.494   5.298   6.451  0.1150  0.0002  0.1664
  599ERGO    R1 8492   4.525   5.177   6.705  0.0877  0.0029  0.1711
  599ERGO    R2 8493   4.715   5.260   6.887  0.0805 -0.0063  0.1840
  599ERGO    R3 8494   4.500   5.280   7.053  0.0689  0.0121  0.1666
  599ERGO    R4 8495   4.734   5.298   7.230  0.0534  0.1022  0.1736
  599ERGO    R5 8496   4.566   5.161   7.250  0.0746  0.0836  0.2072
  599ERGO    C1 8497   4.543   5.341   7.585  0.0266  0.1827  0.1513
  599ERGO    C2 8498   4.535   5.429   7.853 -0.1414 -0.0410 -0.0567
  600ERGO   ROH 8499  17.255   3.951  10.259 -0.2619 -0.2382  0.2786
  600ERGO    R1 8500  17.077   4.006  10.045 -0.2389 -0.2677  0.2509
  600ERGO    R2 8501  17.140   4.181   9.841 -0.3474 -0.0349  0.4080
  600ERGO    R3 8502  17.080   3.968   9.683 -0.0485  0.0136  0.2205
  600ERGO    R4 8503  17.051   4.200   9.507 -0.0929  0.0978  0.3452
  600ERGO    R5 8504  16.902   4.045   9.543  0.0025 -0.0458  0.1257
  600ERGO    C1 8505  16.942   4.010   9.166  0.3360  0.2206  0.1325
  600ERGO    C2 8506  16.885   3.960   8.876  0.2599 -0.1162  0.1290
  601ERGO   ROH 8507  10.517  14.354  10.249 -0.3370 -0.2335  0.1268
  601ERGO    R1 8508  10.419  14.328   9.984 -0.2283 -0.1607  0.0775
  601ERGO    R2 8509  10.470  14.514   9.787 -0.1840 -0.0800  0.1577
  601ERGO    R3 8510  10.562  14.297   9.651 -0.0883 -0.0183  0.1249
  601ERGO    R4 8511  10.410  14.449   9.453 -0.1926 -0.0895  0.1620
  601ERGO    R5 8512  10.383  14.239   9.503 -0.0727 -0.1035  0.1454
  601ERGO    C1 8513  10.460  14.207   9.131 -0.1078 -0.0371  0.1336
  601ERGO    C2 8514  10.581  14.404   8.818  0.0742 -0.2809 -0.1192
  602ERGO   ROH 8515  14.346   7.129  10.345  0.1796  0.4233  0.0372
  602ERGO    R1 8516  14.438   7.149  10.078  0.1648  0.1564  0.0101
  602ERGO    R2 8517  14.619   6.971   9.969 -0.0053 -0.0756  0.1129
  602ERGO    R3 8518  14.427   6.943   9.778 -0.0494 -0.0449  0.1510
  602ERGO    R4 8519  14.681   6.918   9.633 -0.0714 -0.1390  0.1097
  602ERGO    R5 8520  14.518   7.055   9.587 -0.0441 -0.0932  0.1198
  602ERGO    C1 8521  14.537   6.861   9.258 -0.1513 -0.1471  0.1436
  602ERGO    C2 8522  14.418   6.844   8.919  0.0384  0.2041  0.0187
  603ERGO   ROH 8523   7.759  16.777  10.245 -0.0305 -0.0392  0.0704
  603ERGO    R1 8524   7.895  16.592  10.080  0.0269  0.1600 -0.1107
  603ERGO    R2 8525   7.795  16.340  10.024  0.3477 -0.0166  0.0795
  603ERGO    R3 8526   7.830  16.419   9.766 -0.1715  0.0134  0.0096
  603ERGO    R4 8527   7.804  16.127   9.752  0.2326 -0.0317  0.0878
  603ERGO    R5 8528   7.966  16.247   9.669 -0.0665  0.2013 -0.1841
  603ERGO    C1 8529   7.841  16.077   9.352 -0.3218 -0.0122  0.0270
  603ERGO    C2 8530   7.637  16.148   9.069 -0.1443  0.1095 -0.1283
  604ERGO   ROH 8531   2.801   1.035   8.407 -0.0983 -0.3171 -0.0412
  604ERGO    R1 8532   2.520   1.057   8.385 -0.1002 -0.2898  0.0046
  604ERGO    R2 8533   2.346   0.888   8.519 -0.1024 -0.1257  0.2177
  604ERGO    R3 8534   2.241   1.121   8.610 -0.0351 -0.0145  0.0078
  604ERGO    R4 8535   2.010   0.965   8.523 -0.0714  0.0225  0.0611
  604ERGO    R5 8536   2.060   1.167   8.461  0.0295 -0.0497 -0.0766
  604ERGO    C1 8537   1.715   1.229   8.611  0.0100  0.2132 -0.2271
  604ERGO    C2 8538   1.400   1.294   8.533  0.0604  0.0114 -0.1428
  605ERGO   ROH 8539  14.886  17.697  10.215  0.1133 -0.0545  0.1558
  605ERGO    R1 8540  14.820  17.601   9.957 -0.0118  0.0891  0.1317
  605ERGO    R2 8541  14.862  17.749   9.728  0.1135  0.1204  0.1684
  605ERGO    R3 8542  14.999  17.527   9.649 -0.1143  0.0047  0.0935
  605ERGO    R4 8543  14.922  17.660   9.399 -0.1012  0.0802  0.1396
  605ERGO    R5 8544  14.883  17.453   9.453 -0.2594  0.1149  0.1406
  605ERGO    C1 8545  15.085  17.401   9.133 -0.4402 -0.0516  0.0525
  605ERGO    C2 8546  15.226  17.230   8.808 -0.3681 -0.3453  0.1277
  606ERGO   ROH 8547  11.631  14.402   6.449 -0.1976 -0.0884 -0.0632
  606ERGO    R1 8548  11.588  14.325   6.717 -0.1707 -0.1406 -0.0737
  606ERGO    R2 8549  11.786  14.338   6.910 -0.1192 -0.2879 -0.1171
  606ERGO    R3 8550  11.601  14.486   7.044 -0.0164 -0.2356 -0.0315
  606ERGO    R4 8551  11.812  14.435   7.241  0.1101 -0.2152 -0.1552
  606ERGO    R5 8552  11.600  14.393   7.265  0.1178 -0.1863 -0.0075
  606ERGO    C1 8553  11.654  14.630   7.559  0.3398 -0.1239 -0.0970
  606ERGO    C2 8554  11.524  14.667   7.804  0.3238 -0.1071  0.1420
  607ERGO   ROH 8555   9.007   9.642   9.737 -0.0333  0.2983  0.0758
  607ERGO    R1 8556   9.049   9.523   9.484 -0.0362  0.2469  0.1010
  607ERGO    R2 8557   9.167   9.658   9.274  0.0780  0.1596  0.1183
  607ERGO    R3 8558   9.336   9.445   9.273 -0.0281  0.0717  0.1704
  607ERGO    R4 8559   9.301   9.514   8.990 -0.0049  0.0300  0.1427
  607ERGO    R5 8560   9.270   9.318   9.081 -0.1045  0.0592  0.1959
  607ERGO    C1 8561   9.538   9.230   8.824 -0.1528 -0.1279  0.2057
  607ERGO    C2 8562   9.877   9.268   8.645  0.0332 -0.1923  0.2742
  608ERGO   ROH 8563  17.724  13.084   6.142  0.1243  0.0212 -0.0023
  608ERGO    R1 8564  17.771  13.154   6.412  0.0401  0.0365  0.0092
  608ERGO    R2 8565  17.669  13.385   6.526  0.0167  0.0523 -0.0380
  608ERGO    R3 8566  17.568  13.211   6.709 -0.0549  0.0694 -0.0618
  608ERGO    R4 8567  17.578  13.469   6.848 -0.2805  0.1189 -0.1371
  608ERGO    R5 8568  17.665  13.281   6.917 -0.2529  0.1800 -0.0057
  608ERGO    C1 8569  17.430  13.355   7.208 -0.5206  0.1738 -0.2172
  608ERGO    C2 8570  17.321  13.421   7.530  0.2157  0.1224 -0.2162
  609ERGO   ROH 8571  17.498  16.643   6.302  0.0700  0.0537 -0.0429
  609ERGO    R1 8572  17.317  16.610   6.517  0.0881 -0.0292 -0.0395
  609ERGO    R2 8573  17.356  16.422   6.716  0.1765 -0.0143 -0.0386
  609ERGO    R3 8574  17.330  16.638   6.880  0.0830 -0.0248 -0.0400
  609ERGO    R4 8575  17.284  16.406   7.054  0.1001 -0.0395 -0.0565
  609ERGO    R5 8576  17.153  16.578   7.029  0.0631 -0.0728 -0.0838
  609ERGO    C1 8577  17.219  16.599   7.405 -0.0320 -0.0644 -0.0682
  609ERGO    C2 8578  17.330  16.417   7.801 -0.1774  0.2221  0.0662
  610ERGO   ROH 8579   6.282   3.902   9.891 -0.1466  0.0009 -0.1904
  610ERGO    R1 8580   6.284   3.804   9.625 -0.0631 -0.0885 -0.1572
  610ERGO    R2 8581   6.054   3.735   9.490 -0.0441  0.1080 -0.2944
  610ERGO    R3 8582   6.150   3.909   9.304  0.2677 -0.0499 -0.2870
  610ERGO    R4 8583   6.076   3.670   9.151 -0.0653  0.0462 -0.2838
  610ERGO    R5 8584   6.269   3.770   9.149  0.0939 -0.2485 -0.2478
  610ERGO    C1 8585   6.179   3.794   8.779  0.2151 -0.1381 -0.2707
  610ERGO    C2 8586   6.331   3.789   8.433  0.1535  0.3832 -0.0256
  611ERGO   ROH 8587  12.575   6.080   6.431  0.1182  0.0676 -0.0666
  611ERGO    R1 8588  12.486   5.947   6.664 -0.1713  0.1635 -0.1185
  611ERGO    R2 8589  12.650   5.905   6.883 -0.2611 -0.2563 -0.1271
  611ERGO    R3 8590  12.449   6.029   7.017 -0.0172  0.1189 -0.0902
  611ERGO    R4 8591  12.605   5.896   7.225 -0.3037 -0.3143 -0.1335
  611ERGO    R5 8592  12.391   5.876   7.192 -0.3546  0.1543 -0.1613
  611ERGO    C1 8593  12.390   6.007   7.551 -0.0994  0.0042 -0.1025
  611ERGO    C2 8594  12.457   5.984   8.012 -0.0090  0.2896 -0.3032
  612ERGO   ROH 8595  16.725   8.448   6.416  0.2180  0.1671  0.0797
  612ERGO    R1 8596  16.567   8.398   6.645  0.1628  0.1878  0.0467
  612ERGO    R2 8597  16.592   8.167   6.795  0.0433  0.1463  0.0053
  612ERGO    R3 8598  16.627   8.342   7.000  0.0883  0.0919  0.0440
  612ERGO    R4 8599  16.689   8.080   7.115 -0.0954  0.0403  0.0195
  612ERGO    R5 8600  16.546   8.225   7.193 -0.0319  0.1088  0.0029
  612ERGO    C1 8601  16.778   8.194   7.494 -0.1341 -0.0723  0.0640
  612ERGO    C2 8602  17.044   8.292   7.716 -0.1195  0.0766 -0.0349
  613ERGO   ROH 8603   4.432  14.094  10.353  0.0362  0.1555  0.1342
  613ERGO    R1 8604   4.452  14.158  10.078 -0.0139  0.0311  0.1010
  613ERGO    R2 8605   4.651  14.057   9.916  0.0295  0.0560  0.1411
  613ERGO    R3 8606   4.441  13.977   9.763  0.0627 -0.1303  0.1892
  613ERGO    R4 8607   4.639  14.078   9.571 -0.0311 -0.0377  0.1367
  613ERGO    R5 8608   4.430  14.140   9.587 -0.0747 -0.1791  0.1493
  613ERGO    C1 8609   4.435  14.016   9.227 -0.0353 -0.2673  0.1793
  613ERGO    C2 8610   4.434  14.073   8.862  0.2677 -0.0840 -0.1147
  614ERGO   ROH 8611  14.255  15.148   9.961  0.2008  0.2169  0.1773
  614ERGO    R1 8612  14.222  15.090   9.686  0.1130  0.0955  0.2124
  614ERGO    R2 8613  14.042  15.227   9.526  0.0469  0.0122  0.2122
  614ERGO    R3 8614  14.262  15.269   9.371 -0.0073 -0.0355  0.1219
  614ERGO    R4 8615  14.057  15.172   9.185 -0.1195  0.0639  0.1959
  614ERGO    R5 8616  14.258  15.090   9.212 -0.1355 -0.0065  0.0936
  614ERGO    C1 8617  14.272  15.179   8.841 -0.2672  0.0493  0.1015
  614ERGO    C2 8618  14.243  15.356   8.480 -0.0000  0.1942  0.0294
  615ERGO   ROH 8619   2.532  12.103   6.326  0.1602  0.1447  0.0478
  615ERGO    R1 8620   2.644  12.044   6.579  0.1045 -0.0566  0.0274
  615ERGO    R2 8621   2.574  12.181   6.808  0.3120 -0.0001  0.0581
  615ERGO    R3 8622   2.522  11.931   6.903 -0.0224  0.0497  0.0179
  615ERGO    R4 8623   2.544  12.099   7.143  0.3769 -0.0382  0.0548
  615ERGO    R5 8624   2.654  11.915   7.103  0.0722 -0.2050 -0.0594
  615ERGO    C1 8625   2.477  11.817   7.426  0.1007 -0.0137  0.0152
  615ERGO    C2 8626   2.166  11.628   7.597  0.0846  0.2030 -0.0238
  616ERGO   ROH 8627  16.495   3.294  10.280  0.0782 -0.1716 -0.1251
  616ERGO    R1 8628  16.294   3.300  10.080  0.0185 -0.1110 -0.0637
  616ERGO    R2 8629  16.253   3.520   9.918 -0.0544 -0.0483  0.0396
  616ERGO    R3 8630  16.283   3.339   9.718 -0.0928  0.0377 -0.0454
  616ERGO    R4 8631  16.139   3.562   9.594 -0.2247  0.0393  0.1093
  616ERGO    R5 8632  16.079   3.352   9.594 -0.1577  0.0202  0.0586
  616ERGO    C1 8633  16.101   3.415   9.218 -0.3599  0.1709  0.0702
  616ERGO    C2 8634  16.037   3.381   8.955  0.1481 -0.1488 -0.0052
  617ERGO   ROH 8635   2.023  11.891   9.021  0.0363 -0.2184  0.0926
  617ERGO    R1 8636   2.149  11.945   8.774  0.0139 -0.2483  0.0743
  617ERGO    R2 8637   2.138  11.769   8.560 -0.1480 -0.1992  0.0397
  617ERGO    R3 8638   2.044  11.987   8.428 -0.0401 -0.1107  0.1070
  617ERGO    R4 8639   2.117  11.798   8.216 -0.1017 -0.0684  0.0473
  617ERGO    R5 8640   2.184  12.004   8.234 -0.0133 -0.1032  0.1272
  617ERGO    C1 8641   2.017  12.019   7.892  0.0265  0.0909  0.1151
  617ERGO    C2 8642   1.743  12.106   7.635  0.0941  0.0199 -0.1997
  618ERGO   ROH 8643   2.720   2.767   8.132  0.1125  0.0402 -0.0975
  618ERGO    R1 8644   2.826   2.507   8.092  0.1576  0.0414  0.0099
  618ERGO    R2 8645   3.014   2.396   8.261  0.1298  0.1174  0.0944
  618ERGO    R3 8646   2.833   2.194   8.277  0.1508  0.1001  0.1092
  618ERGO    R4 8647   3.088   2.072   8.356  0.1808  0.1023  0.0041
  618ERGO    R5 8648   2.953   2.001   8.201  0.1391  0.1246  0.0330
  618ERGO    C1 8649   2.962   1.694   8.427  0.2301  0.0771 -0.0345
  618ERGO    C2 8650   3.024   1.460   8.519  0.3562  0.1752 -0.2672
  619ERGO   ROH 8651   4.850  17.766  10.236  0.0608 -0.1721  0.0010
  619ERGO    R1 8652   4.931  17.629  10.001 -0.1220 -0.1534 -0.0720
  619ERGO    R2 8653   4.760  17.582   9.790 -0.1837  0.1932 -0.0896
  619ERGO    R3 8654   4.955  17.705   9.646 -0.0181  0.0049 -0.0359
  619ERGO    R4 8655   4.792  17.566   9.446 -0.4850  0.6254 -0.1481
  619ERGO    R5 8656   5.008  17.550   9.472 -0.4764  0.1267 -0.3149
  619ERGO    C1 8657   4.994  17.672   9.111 -0.5050  0.7002 -0.1317
  619ERGO    C2 8658   5.107  17.798   8.821 -0.1470 -0.2202 -0.3463
  620ERGO   ROH 8659  13.023  13.187   6.287  0.3884  0.0435  0.0502
  620ERGO    R1 8660  13.103  13.067   6.530 -0.1845  0.0108  0.2346
  620ERGO    R2 8661  13.319  13.157   6.676  0.1699 -0.6869  0.1474
  620ERGO    R3 8662  13.137  13.169   6.878  0.1398  0.3461  0.1181
  620ERGO    R4 8663  13.398  13.168   7.013  0.2423 -1.1105  0.1525
  620ERGO    R5 8664  13.231  13.032   7.051 -0.5961 -0.2342  0.1365
  620ERGO    C1 8665  13.273  13.186   7.398  0.2560 -0.3871  0.1278
  620ERGO    C2 8666  13.215  13.138   7.698 -0.0777  0.1216 -0.1266
  621ERGO   ROH 8667   7.065   0.771  10.261  0.0898  0.0935 -0.0854
  621ERGO    R1 8668   6.995   0.836   9.995  0.0452  0.0380 -0.0880
  621ERGO    R2 8669   7.179   0.926   9.810 -0.0047  0.1184 -0.1066
  621ERGO    R3 8670   7.083   0.719   9.662  0.0920  0.0552 -0.0801
  621ERGO    R4 8671   7.258   0.866   9.478  0.0980  0.0446 -0.0689
  621ERGO    R5 8672   7.049   0.812   9.444  0.1274 -0.0180 -0.1126
  621ERGO    C1 8673   7.213   0.637   9.147  0.2486 -0.0576 -0.0219
  621ERGO    C2 8674   7.295   0.693   8.687  0.2036 -0.2716 -0.0482
  622ERGO   ROH 8675  16.960  12.546   6.418  0.0550 -0.1645 -0.0485
  622ERGO    R1 8676  16.888  12.471   6.681 -0.0135 -0.0195 -0.0247
  622ERGO    R2 8677  17.066  12.353   6.856 -0.1377 -0.1986 -0.0161
  622ERGO    R3 8678  16.991  12.558   7.019  0.1245 -0.0686 -0.0538
  622ERGO    R4 8679  17.106  12.357   7.199 -0.0649 -0.1523 -0.0247
  622ERGO    R5 8680  16.909  12.450   7.216  0.0406  0.0751 -0.0084
  622ERGO    C1 8681  17.059  12.551   7.552  0.2237 -0.0033 -0.0651
  622ERGO    C2 8682  17.041  12.625   7.981 -0.2202 -0.1331  0.0436
  623ERGO   ROH 8683   4.081  15.092   9.946  0.0195 -0.0208 -0.1525
  623ERGO    R1 8684   3.968  15.132   9.689 -0.0982 -0.1211 -0.1174
  623ERGO    R2 8685   3.697  15.167   9.651 -0.0847  0.2032  0.0331
  623ERGO    R3 8686   3.777  15.393   9.523  0.1387 -0.0238 -0.2400
  623ERGO    R4 8687   3.491  15.372   9.464 -0.0066  0.4622  0.2257
  623ERGO    R5 8688   3.652  15.393   9.318 -0.1857  0.0676 -0.0467
  623ERGO    C1 8689   3.446  15.703   9.234  0.2487  0.4001  0.0814
  623ERGO    C2 8690   3.341  16.036   9.119  0.0072 -0.2743 -0.0983
  624ERGO   ROH 8691  16.287   1.488  10.108 -0.0667 -0.0041  0.0024
  624ERGO    R1 8692  16.424   1.486   9.860  0.0007  0.0328  0.0398
  624ERGO    R2 8693  16.425   1.267   9.692  0.0370  0.0643  0.0043
  624ERGO    R3 8694  16.336   1.447   9.509  0.0971  0.0975  0.0067
  624ERGO    R4 8695  16.452   1.229   9.349  0.3049  0.1943  0.0083
  624ERGO    R5 8696  16.502   1.442   9.335  0.2320  0.2246  0.1237
  624ERGO    C1 8697  16.384   1.377   8.978  0.5176  0.3011  0.0130
  624ERGO    C2 8698  16.402   1.421   8.709  0.0136 -0.0074  0.0817
  625ERGO   ROH 8699   7.398   6.043   9.925 -0.0247 -0.0885 -0.0435
  625ERGO    R1 8700   7.311   6.148   9.678  0.0053 -0.1175 -0.0657
  625ERGO    R2 8701   7.460   6.331   9.532  0.0513 -0.1863 -0.0989
  625ERGO    R3 8702   7.430   6.148   9.334  0.0083 -0.2161 -0.0660
  625ERGO    R4 8703   7.519   6.391   9.197 -0.0255 -0.2250 -0.1200
  625ERGO    R5 8704   7.342   6.273   9.150 -0.0383 -0.2377 -0.0631
  625ERGO    C1 8705   7.526   6.255   8.816 -0.1105 -0.2754 -0.1016
  625ERGO    C2 8706   7.717   6.335   8.629  0.0231 -0.2577 -0.0344
  626ERGO   ROH 8707  10.934   8.542   6.407  0.1214  0.0613  0.0503
  626ERGO    R1 8708  11.058   8.444   6.642  0.0630 -0.0759  0.0263
  626ERGO    R2 8709  11.086   8.597   6.871  0.2784 -0.1007  0.0269
  626ERGO    R3 8710  10.960   8.386   6.988  0.0638  0.0344  0.0430
  626ERGO    R4 8711  11.109   8.514   7.205  0.0366 -0.0076  0.0683
  626ERGO    R5 8712  11.118   8.304   7.148 -0.0880 -0.0287  0.1537
  626ERGO    C1 8713  11.005   8.267   7.510 -0.3057  0.1735  0.1074
  626ERGO    C2 8714  10.980   8.284   7.860  0.1176 -0.1458  0.0002
  627ERGO   ROH 8715   3.628   5.606   6.161  0.0346  0.0005  0.0025
  627ERGO    R1 8716   3.478   5.574   6.399 -0.0023 -0.0085 -0.0219
  627ERGO    R2 8717   3.550   5.397   6.598 -0.0436 -0.0303 -0.0254
  627ERGO    R3 8718   3.534   5.618   6.756 -0.0509 -0.0418 -0.0101
  627ERGO    R4 8719   3.568   5.394   6.943 -0.2481 -0.0762 -0.0141
  627ERGO    R5 8720   3.410   5.545   6.947 -0.1925 -0.0153 -0.0909
  627ERGO    C1 8721   3.563   5.600   7.292 -0.3740 -0.1137  0.0067
  627ERGO    C2 8722   3.602   5.620   7.697 -0.1177  0.0183 -0.0144
  628ERGO   ROH 8723  11.883  11.593  10.237 -0.0495  0.1498  0.1093
  628ERGO    R1 8724  11.947  11.748  10.009  0.0412  0.0050  0.0356
  628ERGO    R2 8725  11.951  11.643   9.754 -0.2435 -0.0684  0.0624
  628ERGO    R3 8726  11.779  11.847   9.702  0.0080  0.1589  0.1011
  628ERGO    R4 8727  11.881  11.766   9.439 -0.3096 -0.1265  0.0534
  628ERGO    R5 8728  11.883  11.967   9.523  0.0495 -0.0799 -0.0430
  628ERGO    C1 8729  11.679  12.030   9.206 -0.1120  0.0529  0.0844
  628ERGO    C2 8730  11.696  12.079   8.925 -0.2695  0.4496  0.1346
  629ERGO   ROH 8731   8.149  15.392  10.324 -0.0050  0.1438 -0.1426
  629ERGO    R1 8732   8.272  15.492  10.090 -0.1425  0.1573 -0.2109
  629ERGO    R2 8733   8.448  15.342   9.939  0.1473  0.3246 -0.0560
  629ERGO    R3 8734   8.278  15.404   9.737  0.0567 -0.1459 -0.1348
  629ERGO    R4 8735   8.543  15.401   9.611  0.0907  0.3018 -0.0757
  629ERGO    R5 8736   8.398  15.563   9.604 -0.2356  0.0118 -0.2132
  629ERGO    C1 8737   8.437  15.493   9.231 -0.0272 -0.1530 -0.1612
  629ERGO    C2 8738   8.564  15.638   8.984 -0.1818 -0.0330 -0.0057
  630ERGO   ROH 8739   4.383  15.249   7.090 -0.0986  0.1428  0.0530
  630ERGO    R1 8740   4.157  15.137   7.219 -0.1706  0.0647 -0.1359
  630ERGO    R2 8741   4.015  14.925   7.113  0.1287 -0.1411 -0.1475
  630ERGO    R3 8742   4.064  14.813   7.355 -0.0716  0.0973  0.0070
  630ERGO    R4 8743   3.859  14.642   7.236  0.2426 -0.1908 -0.1177
  630ERGO    R5 8744   3.850  14.738   7.432 -0.0955 -0.0437 -0.2032
  630ERGO    C1 8745   3.814  14.373   7.536  0.1210  0.0040  0.0447
  630ERGO    C2 8746   3.765  14.099   7.755 -0.1819 -0.0756  0.0105
  631ERGO   ROH 8747  14.624  10.873   6.684 -0.1805  0.1735 -0.0037
  631ERGO    R1 8748  14.672  10.779   6.947 -0.1852 -0.0929 -0.0952
  631ERGO    R2 8749  14.675  10.946   7.166  0.1461 -0.2600  0.0338
  631ERGO    R3 8750  14.489  10.772   7.262 -0.0511 -0.0827 -0.0165
  631ERGO    R4 8751  14.616  10.886   7.502  0.1407 -0.3532  0.0164
  631ERGO    R5 8752  14.595  10.674   7.454 -0.1296 -0.3077 -0.0848
  631ERGO    C1 8753  14.409  10.687   7.787 -0.0476 -0.2410 -0.0409
  631ERGO    C2 8754  14.431  10.731   8.170 -0.0649 -0.3252  0.1444
  632ERGO   ROH 8755  12.231  12.513  10.253  0.0724 -0.0164  0.0558
  632ERGO    R1 8756  12.123  12.702  10.072  0.0940  0.0382  0.0986
  632ERGO    R2 8757  12.237  12.951  10.031  0.0808  0.0686  0.2116
  632ERGO    R3 8758  12.235  12.873   9.771  0.1476  0.1543  0.1857
  632ERGO    R4 8759  12.288  13.161   9.762  0.1261  0.1509  0.2844
  632ERGO    R5 8760  12.131  13.055   9.655  0.1638  0.1767  0.2161
  632ERGO    C1 8761  12.317  13.211   9.361  0.2149  0.2794  0.3024
  632ERGO    C2 8762  12.604  13.404   9.276  0.0412  0.1424 -0.0407
  633ERGO   ROH 8763   4.614  10.469   6.363 -0.1285 -0.0193  0.1706
  633ERGO    R1 8764   4.796  10.377   6.559 -0.0770 -0.1398  0.0675
  633ERGO    R2 8765   4.835  10.507   6.800  0.2070 -0.1142  0.0140
  633ERGO    R3 8766   4.779  10.262   6.904  0.0509 -0.0409  0.1072
  633ERGO    R4 8767   4.891  10.414   7.128  0.1184 -0.0221  0.0558
  633ERGO    R5 8768   4.958  10.220   7.056  0.0091 -0.0901  0.1404
  633ERGO    C1 8769   4.871  10.130   7.416 -0.0796  0.1003  0.1677
  633ERGO    C2 8770   4.788  10.156   7.725  0.1094  0.1704 -0.0749
  634ERGO   ROH 8771   4.511   2.700  10.135  0.0839 -0.0681 -0.1408
  634ERGO    R1 8772   4.603   2.630   9.876 -0.0516 -0.0742 -0.1878
  634ERGO    R2 8773   4.731   2.391   9.824  0.0684 -0.0029 -0.2136
  634ERGO    R3 8774   4.537   2.366   9.635 -0.0484 -0.1809 -0.0741
  634ERGO    R4 8775   4.760   2.203   9.535  0.2450  0.4258 -0.4853
  634ERGO    R5 8776   4.657   2.362   9.427 -0.2062  0.3538 -0.1930
  634ERGO    C1 8777   4.595   2.070   9.190  0.2381  0.5083 -0.5124
  634ERGO    C2 8778   4.711   1.981   8.946  0.1149 -0.1629  0.0808
  635ERGO   ROH 8779   8.004  16.710   6.628  0.0873 -0.1393  0.2491
  635ERGO    R1 8780   7.836  16.637   6.844  0.0423 -0.1039  0.2252
  635ERGO    R2 8781   7.934  16.537   7.082 -0.0083 -0.0616  0.2599
  635ERGO    R3 8782   7.789  16.740   7.190 -0.0346 -0.0465  0.1989
  635ERGO    R4 8783   7.780  16.527   7.391  0.2194  0.1039  0.3836
  635ERGO    R5 8784   7.609  16.630   7.303  0.1001 -0.0526  0.4179
  635ERGO    C1 8785   7.553  16.711   7.672  0.3273  0.2143  0.3983
  635ERGO    C2 8786   7.632  16.626   8.006  0.1361 -0.1896 -0.2341
  636ERGO   ROH 8787  10.572  12.510  10.381  0.1812 -0.2331 -0.0203
  636ERGO    R1 8788  10.408  12.572  10.159  0.1018 -0.1656  0.0571
  636ERGO    R2 8789  10.505  12.581   9.900  0.0055 -0.1028  0.0253
  636ERGO    R3 8790  10.303  12.405   9.853 -0.0227 -0.0781  0.0506
  636ERGO    R4 8791  10.399  12.481   9.587  0.0695 -0.2164  0.0388
  636ERGO    R5 8792  10.193  12.492   9.658  0.0499 -0.1366 -0.0193
  636ERGO    C1 8793  10.148  12.259   9.359  0.0803 -0.2593  0.0704
  636ERGO    C2 8794   9.942  12.256   9.039  0.0100  0.1442 -0.4338
  637ERGO   ROH 8795   7.059  12.024   9.971  0.0791 -0.1493 -0.0586
  637ERGO    R1 8796   7.279  12.069   9.799 -0.0261  0.2367 -0.0996
  637ERGO    R2 8797   7.346  11.897   9.594  0.4690  0.1276  0.1397
  637ERGO    R3 8798   7.329  12.122   9.442 -0.1569 -0.1033 -0.1725
  637ERGO    R4 8799   7.421  11.915   9.257  0.5910 -0.0975  0.1525
  637ERGO    R5 8800   7.515  12.107   9.293 -0.0168  0.2684 -0.0463
  637ERGO    C1 8801   7.449  12.137   8.919  0.0746 -0.4452 -0.1331
  637ERGO    C2 8802   7.334  12.004   8.636  0.0338  0.1727 -0.0978
  638ERGO   ROH 8803   3.124  16.677  10.475  0.1186 -0.1714 -0.0245
  638ERGO    R1 8804   3.124  16.770  10.207 -0.0496  0.1075  0.0693
  638ERGO    R2 8805   3.148  17.038  10.144  0.3303  0.1419  0.3277
  638ERGO    R3 8806   3.355  16.950   9.991  0.0012 -0.0612 -0.0186
  638ERGO    R4 8807   3.187  17.104   9.807 -0.0137  0.3540  0.3239
  638ERGO    R5 8808   3.255  16.899   9.780 -0.3622  0.2623  0.0620
  638ERGO    C1 8809   3.404  17.059   9.467 -0.5231  0.2868 -0.0036
  638ERGO    C2 8810   3.487  16.911   9.176 -0.0155  0.2700 -0.2343
  639ERGO   ROH 8811   0.653  10.369   6.607  0.1541 -0.0794  0.1318
  639ERGO    R1 8812   0.652  10.522   6.845  0.2303 -0.0606  0.1210
  639ERGO    R2 8813   0.471  10.479   7.049  0.1260  0.1242  0.0752
  639ERGO    R3 8814   0.696  10.459   7.201  0.0672 -0.0813  0.1368
  639ERGO    R4 8815   0.476  10.394   7.384 -0.0084 -0.1482  0.0102
  639ERGO    R5 8816   0.631  10.544   7.415  0.0339 -0.2327  0.1838
  639ERGO    C1 8817   0.690  10.325   7.721 -0.1419 -0.4995  0.0301
  639ERGO    C2 8818   0.686  10.302   8.083 -0.0432 -0.0980 -0.0222
  640ERGO   ROH 8819   5.180   9.130   6.394  0.1392  0.1079 -0.1236
  640ERGO    R1 8820   5.196   9.023   6.656 -0.1104  0.1833 -0.0748
  640ERGO    R2 8821   5.437   8.988   6.787 -0.1948 -0.2218 -0.0238
  640ERGO    R3 8822   5.316   9.136   6.981  0.0524  0.0950 -0.1013
  640ERGO    R4 8823   5.526   8.988   7.121 -0.3513 -0.4099  0.0206
  640ERGO    R5 8824   5.315   8.993   7.173 -0.3835  0.1008 -0.0851
  640ERGO    C1 8825   5.464   9.127   7.497 -0.2104 -0.2222 -0.0263
  640ERGO    C2 8826   5.402   9.198   7.804  0.2323  0.3776  0.1192
  641ERGO   ROH 8827   4.177   3.414   6.417  0.2087 -0.0184 -0.0147
  641ERGO    R1 8828   4.045   3.308   6.644  0.0336  0.0503 -0.0834
  641ERGO    R2 8829   4.179   3.180   6.849 -0.1515 -0.1214 -0.0650
  641ERGO    R3 8830   4.051   3.363   7.003 -0.0367 -0.0369 -0.0689
  641ERGO    R4 8831   4.117   3.145   7.187 -0.4464 -0.2136 -0.1254
  641ERGO    R5 8832   3.920   3.232   7.155 -0.3156  0.0497 -0.2292
  641ERGO    C1 8833   3.961   3.297   7.529 -0.5104 -0.1879 -0.1641
  641ERGO    C2 8834   3.887   3.385   7.878  0.1136 -0.1614  0.1613
  642ERGO   ROH 8835   1.531  13.383   9.861 -0.1353  0.0386  0.0525
  642ERGO    R1 8836   1.366  13.322   9.640 -0.0419 -0.0858  0.0160
  642ERGO    R2 8837   1.384  13.082   9.503  0.0214 -0.1617  0.1533
  642ERGO    R3 8838   1.118  13.068   9.558 -0.0016 -0.1364  0.0513
  642ERGO    R4 8839   1.158  12.878   9.340  0.0524 -0.0969  0.0279
  642ERGO    R5 8840   1.014  13.040   9.345  0.0735 -0.0785  0.0072
  642ERGO    C1 8841   0.777  12.745   9.297  0.0489 -0.0355 -0.1410
  642ERGO    C2 8842   0.518  12.536   9.081  0.0923 -0.0561  0.1140
  643ERGO   ROH 8843   5.712   5.328   9.828 -0.0744  0.5419 -0.0533
  643ERGO    R1 8844   5.654   5.167   9.603 -0.0854  0.3063  0.1154
  643ERGO    R2 8845   5.491   5.252   9.397 -0.0117  0.1335 -0.0155
  643ERGO    R3 8846   5.706   5.186   9.243 -0.0033 -0.1195  0.0989
  643ERGO    R4 8847   5.472   5.113   9.081 -0.0146  0.3156 -0.0965
  643ERGO    R5 8848   5.640   4.984   9.133 -0.2429  0.0296 -0.0429
  643ERGO    C1 8849   5.663   4.971   8.752 -0.0084  0.1840 -0.0362
  643ERGO    C2 8850   5.575   4.932   8.408  0.2851  0.0837 -0.3217
  644ERGO   ROH 8851   0.586  13.290   6.292 -0.2548  0.1941  0.0828
  644ERGO    R1 8852   0.665  13.234   6.558 -0.1303  0.1574  0.0385
  644ERGO    R2 8853   0.808  13.414   6.711 -0.1787  0.1916  0.0434
  644ERGO    R3 8854   0.604  13.376   6.887 -0.0965  0.0220  0.1035
  644ERGO    R4 8855   0.847  13.366   7.051 -0.0380  0.2054  0.0300
  644ERGO    R5 8856   0.689  13.215   7.043  0.0774  0.0810  0.0710
  644ERGO    C1 8857   0.678  13.301   7.414  0.1210  0.0543  0.0787
  644ERGO    C2 8858   0.657  13.038   7.676  0.0869  0.0532 -0.1290
  645ERGO   ROH 8859   0.122  12.317   6.494 -0.1251 -0.0100 -0.1624
  645ERGO    R1 8860   0.169  12.313   6.773 -0.1730 -0.2269 -0.1564
  645ERGO    R2 8861   0.152  12.540   6.930  0.1467 -0.2822 -0.0438
  645ERGO    R3 8862  -0.022  12.389   7.074 -0.1073 -0.0956 -0.1451
  645ERGO    R4 8863   0.086  12.581   7.267 -0.0997 -0.1223 -0.1082
  645ERGO    R5 8864   0.083  12.364   7.287 -0.3008 -0.1219 -0.0462
  645ERGO    C1 8865  -0.116  12.462   7.598 -0.4813  0.1459 -0.2408
  645ERGO    C2 8866  -0.120  12.779   7.720 -0.0851  0.2132  0.2098
  646ERGO   ROH 8867   8.082   1.569  10.061 -0.3981 -0.2560  0.0900
  646ERGO    R1 8868   7.972   1.491   9.812 -0.2738 -0.1089 -0.0120
  646ERGO    R2 8869   7.837   1.667   9.648 -0.0996  0.0102 -0.0218
  646ERGO    R3 8870   8.016   1.582   9.462 -0.0204  0.0174  0.0489
  646ERGO    R4 8871   7.802   1.711   9.307 -0.1479 -0.2978 -0.0610
  646ERGO    R5 8872   7.880   1.509   9.278  0.0377 -0.2588  0.1060
  646ERGO    C1 8873   7.950   1.658   8.934 -0.1017 -0.4705 -0.0176
  646ERGO    C2 8874   8.019   1.564   8.660 -0.1687 -0.0760 -0.4043
  647ERGO   ROH 8875  12.556  16.850   6.476 -0.1164 -0.1280  0.1539
  647ERGO    R1 8876  12.588  16.736   6.733 -0.0564 -0.0259  0.1940
  647ERGO    R2 8877  12.692  16.878   6.947 -0.1886  0.1241  0.1706
  647ERGO    R3 8878  12.462  16.800   7.068 -0.1469 -0.0183  0.1563
  647ERGO    R4 8879  12.599  16.962   7.269 -0.2140 -0.0444  0.2069
  647ERGO    R5 8880  12.524  16.760   7.296 -0.1249 -0.0793  0.1337
  647ERGO    C1 8881  12.329  16.938   7.570 -0.1896 -0.2763  0.2146
  647ERGO    C2 8882  12.104  17.021   7.892  0.1289  0.2986 -0.0042
  648ERGO   ROH 8883  12.857   0.764   9.875 -0.0395 -0.1167 -0.1139
  648ERGO    R1 8884  13.000   0.808   9.635 -0.1030 -0.1038 -0.1493
  648ERGO    R2 8885  13.249   0.699   9.587  0.0383  0.1787 -0.0773
  648ERGO    R3 8886  13.129   0.604   9.362  0.1494 -0.1356 -0.0094
  648ERGO    R4 8887  13.401   0.671   9.278  0.0569  0.1910 -0.0692
  648ERGO    R5 8888  13.216   0.740   9.186 -0.0510 -0.1235 -0.1036
  648ERGO    C1 8889  13.378   0.566   8.887  0.1722 -0.0969 -0.0006
  648ERGO    C2 8890  13.576   0.598   8.574  0.1105  0.0204  0.2079
  649ERGO   ROH 8891  17.873  10.066   6.562  0.0836  0.0009 -0.0799
  649ERGO    R1 8892  17.738  10.099   6.808 -0.0440 -0.0360 -0.1430
  649ERGO    R2 8893  17.628   9.887   6.948  0.0337 -0.0831 -0.1446
  649ERGO    R3 8894  17.781   9.984   7.151 -0.1110  0.0612 -0.1027
  649ERGO    R4 8895  17.595   9.798   7.280 -0.0165 -0.0510 -0.1415
  649ERGO    R5 8896  17.629  10.006   7.334 -0.1898 -0.0204 -0.1611
  649ERGO    C1 8897  17.719   9.837   7.664 -0.1815  0.1029 -0.1003
  649ERGO    C2 8898  17.629   9.693   7.987  0.1418  0.1196 -0.1711
  650ERGO   ROH 8899   0.591  12.052  10.211  0.0159 -0.2390  0.1553
  650ERGO    R1 8900   0.515  12.141   9.953  0.1429  0.0221  0.2057
  650ERGO    R2 8901   0.699  12.186   9.752  0.2022 -0.2469  0.2002
  650ERGO    R3 8902   0.539  12.015   9.613 -0.1588  0.1177  0.1452
  650ERGO    R4 8903   0.695  12.157   9.408  0.3885 -0.3539  0.2048
  650ERGO    R5 8904   0.477  12.139   9.417  0.3145  0.2277  0.0507
  650ERGO    C1 8905   0.543  11.980   9.076  0.1581 -0.0740  0.1558
  650ERGO    C2 8906   0.533  12.156   8.798  0.1861  0.1302 -0.7348
  651ERGO   ROH 8907  17.310   6.809   6.720 -0.1071  0.1011 -0.0471
  651ERGO    R1 8908  17.407   6.734   6.976 -0.3410  0.1310  0.0535
  651ERGO    R2 8909  17.643   6.834   7.080 -0.1061 -0.3252 -0.0070
  651ERGO    R3 8910  17.483   6.904   7.289  0.0013  0.2915 -0.1134
  651ERGO    R4 8911  17.750   6.873   7.407 -0.1393 -0.5027  0.0258
  651ERGO    R5 8912  17.566   6.776   7.473 -0.4938  0.1072 -0.0087
  651ERGO    C1 8913  17.662   6.961   7.792 -0.0578 -0.0271 -0.0550
  651ERGO    C2 8914  17.480   7.008   8.077  0.0348  0.0654 -0.0657
  652ERGO   ROH 8915   5.340  10.307   9.655 -0.1561 -0.1882  0.0400
  652ERGO    R1 8916   5.293  10.175   9.410  0.2051  0.0451 -0.1633
  652ERGO    R2 8917   5.053  10.193   9.276  0.1479 -0.4011 -0.1185
  652ERGO    R3 8918   5.210  10.271   9.068 -0.0566  0.3463 -0.0232
  652ERGO    R4 8919   4.967  10.162   8.942  0.3888 -0.6356 -0.1629
  652ERGO    R5 8920   5.174  10.103   8.901  0.6962  0.2222 -0.1070
  652ERGO    C1 8921   5.066  10.217   8.553  0.3370 -0.0705 -0.0992
  652ERGO    C2 8922   4.818  10.145   8.313  0.2656 -0.0484 -0.1891
  653ERGO   ROH 8923   2.857  12.956  10.013 -0.2338  0.0768 -0.0590
  653ERGO    R1 8924   2.901  13.085   9.765 -0.2044  0.0265 -0.0807
  653ERGO    R2 8925   2.850  12.963   9.522 -0.1218 -0.0451 -0.0665
  653ERGO    R3 8926   2.700  13.186   9.479 -0.1617 -0.0887 -0.1512
  653ERGO    R4 8927   2.787  13.103   9.212 -0.1439 -0.1670 -0.1170
  653ERGO    R5 8928   2.812  13.300   9.301 -0.1825 -0.1320 -0.1894
  653ERGO    C1 8929   2.610  13.394   8.992 -0.1942 -0.2788 -0.2257
  653ERGO    C2 8930   2.382  13.506   8.678 -0.0111 -0.1869  0.1590
  654ERGO   ROH 8931  17.515  13.744  10.413 -0.0728  0.0457 -0.0473
  654ERGO    R1 8932  17.456  13.663  10.148  0.0690 -0.0833 -0.0409
  654ERGO    R2 8933  17.331  13.830   9.967 -0.1529 -0.2902 -0.0796
  654ERGO    R3 8934  17.547  13.772   9.812 -0.0500 -0.0057 -0.0488
  654ERGO    R4 8935  17.343  13.869   9.624 -0.1236 -0.1895 -0.0678
  654ERGO    R5 8936  17.453  13.680   9.612  0.0961 -0.0648 -0.0925
  654ERGO    C1 8937  17.553  13.838   9.279 -0.0097  0.1360 -0.0319
  654ERGO    C2 8938  17.466  13.787   8.940 -0.1538  0.2179 -0.0974
  655ERGO   ROH 8939  10.761  14.075   6.426  0.0192 -0.0264 -0.0762
  655ERGO    R1 8940  10.675  13.964   6.672 -0.0639  0.0051 -0.0909
  655ERGO    R2 8941  10.848  13.916   6.882 -0.1283 -0.0056 -0.0419
  655ERGO    R3 8942  10.669  14.066   7.021 -0.1426  0.0314 -0.0995
  655ERGO    R4 8943  10.861  13.974   7.223 -0.1858  0.0462 -0.0481
  655ERGO    R5 8944  10.645  13.952   7.230 -0.1906  0.0649 -0.0853
  655ERGO    C1 8945  10.702  14.149   7.551 -0.2327  0.1111 -0.1058
  655ERGO    C2 8946  10.533  14.146   7.886 -0.0106 -0.1477  0.3345
  656ERGO   ROH 8947  10.447   1.364  10.028 -0.1115  0.2971 -0.0764
  656ERGO    R1 8948  10.445   1.295   9.754  0.0711  0.1852 -0.0524
  656ERGO    R2 8949  10.369   1.472   9.557  0.0695  0.0650 -0.1648
  656ERGO    R3 8950  10.611   1.408   9.451  0.1640  0.1613 -0.0097
  656ERGO    R4 8951  10.440   1.462   9.219  0.2560 -0.0497 -0.1233
  656ERGO    R5 8952  10.558   1.282   9.254  0.3457  0.0390  0.0199
  656ERGO    C1 8953  10.709   1.396   8.922  0.4533 -0.0261  0.0466
  656ERGO    C2 8954  10.807   1.466   8.597  0.0427 -0.4032 -0.1914
  657ERGO   ROH 8955  11.072   0.842   6.350  0.0467 -0.0886  0.0210
  657ERGO    R1 8956  11.082   0.810   6.631 -0.1114 -0.2508  0.0093
  657ERGO    R2 8957  11.154   1.015   6.802  0.2180 -0.4684  0.1345
  657ERGO    R3 8958  10.916   0.957   6.920  0.0599 -0.0807  0.0250
  657ERGO    R4 8959  11.069   1.097   7.127  0.2874 -0.4940  0.1596
  657ERGO    R5 8960  10.974   0.902   7.145 -0.1035 -0.3324  0.0134
  657ERGO    C1 8961  10.797   1.089   7.427  0.1796 -0.1450  0.0714
  657ERGO    C2 8962  10.799   1.418   7.650 -0.1199  0.0392  0.2091
  658ERGO   ROH 8963  11.838  16.662  10.148 -0.0582  0.0717  0.0877
  658ERGO    R1 8964  11.778  16.637   9.872 -0.0095  0.0092  0.0827
  658ERGO    R2 8965  11.751  16.856   9.705  0.1994 -0.0344 -0.0107
  658ERGO    R3 8966  11.939  16.726   9.558  0.1370 -0.2368  0.0847
  658ERGO    R4 8967  11.749  16.829   9.361  0.1662 -0.3182  0.0097
  658ERGO    R5 8968  11.816  16.623   9.381  0.0811 -0.3325  0.1768
  658ERGO    C1 8969  11.925  16.691   9.022  0.0884 -0.6734  0.1109
  658ERGO    C2 8970  11.977  16.896   8.772 -0.2564  0.1284  0.4352
  659ERGO   ROH 8971   2.705  13.719   6.291  0.2660 -0.1802  0.1164
  659ERGO    R1 8972   2.678  13.753   6.571  0.2074 -0.0297  0.0942
  659ERGO    R2 8973   2.802  13.587   6.755 -0.0196 -0.0795  0.2124
  659ERGO    R3 8974   2.900  13.822   6.851  0.1872 -0.1328  0.1346
  659ERGO    R4 8975   2.933  13.632   7.072 -0.2198 -0.0305  0.2881
  659ERGO    R5 8976   2.832  13.825   7.081  0.0052  0.0995  0.0797
  659ERGO    C1 8977   3.100  13.878   7.347 -0.1423 -0.0518  0.2592
  659ERGO    C2 8978   3.213  13.943   7.582 -0.3135  0.3286  0.3839
  660ERGO   ROH 8979   3.349   3.023   9.476  0.0573  0.0979 -0.0110
  660ERGO    R1 8980   3.379   2.752   9.402 -0.0445  0.0757  0.0354
  660ERGO    R2 8981   3.218   2.551   9.504 -0.2299  0.1834 -0.0631
  660ERGO    R3 8982   3.173   2.498   9.241 -0.0724  0.1741 -0.0918
  660ERGO    R4 8983   3.200   2.234   9.367 -0.5799  0.1564  0.0319
  660ERGO    R5 8984   3.311   2.308   9.195 -0.3036 -0.0570  0.1002
  660ERGO    C1 8985   3.147   2.000   9.041 -0.6359  0.1319  0.0602
  660ERGO    C2 8986   3.104   1.822   8.867  0.0595 -0.3869  0.0348
  661ERGO   ROH 8987  14.090  12.842  10.404  0.0336 -0.0156  0.0484
  661ERGO    R1 8988  13.985  12.888  10.145 -0.0538 -0.1580  0.0582
  661ERGO    R2 8989  13.735  12.800  10.069 -0.2356  0.1216  0.3150
  661ERGO    R3 8990  13.699  13.061  10.003  0.1142  0.1086  0.0368
  661ERGO    R4 8991  13.529  12.912   9.815 -0.2486  0.1348  0.3306
  661ERGO    R5 8992  13.681  13.060   9.764 -0.0551 -0.1487  0.0456
  661ERGO    C1 8993  13.374  13.223   9.606  0.0722  0.1304  0.0785
  661ERGO    C2 8994  13.102  13.420   9.346  0.2126 -0.1001  0.1896
  662ERGO   ROH 8995   5.852   2.684   8.533  0.0206  0.4242  0.1180
  662ERGO    R1 8996   5.656   2.877   8.465 -0.1224  0.2305 -0.0363
  662ERGO    R2 8997   5.492   2.851   8.244 -0.1526 -0.0947  0.0129
  662ERGO    R3 8998   5.294   2.885   8.428 -0.1353 -0.0517  0.0219
  662ERGO    R4 8999   5.186   2.997   8.179 -0.0270  0.2135  0.1026
  662ERGO    R5 9000   5.198   3.098   8.372  0.0470  0.0665  0.1686
  662ERGO    C1 9001   4.822   3.115   8.313  0.0624  0.4333  0.1634
  662ERGO    C2 9002   4.467   3.072   8.454  0.1005  0.4999  0.0683
  663ERGO   ROH 9003  10.914   6.462   6.112 -0.0811 -0.1807 -0.0505
  663ERGO    R1 9004  10.869   6.531   6.383 -0.0399 -0.1435 -0.0531
  663ERGO    R2 9005  10.619   6.597   6.481  0.0014  0.0236 -0.0585
  663ERGO    R3 9006  10.673   6.400   6.660 -0.1305 -0.0073 -0.0517
  663ERGO    R4 9007  10.511   6.593   6.809 -0.0093  0.1038 -0.0608
  663ERGO    R5 9008  10.705   6.515   6.867 -0.0601 -0.0216 -0.0542
  663ERGO    C1 9009  10.498   6.405   7.168 -0.1392  0.1215 -0.0557
  663ERGO    C2 9010  10.482   6.572   7.372 -0.4485  0.3809 -0.0358
  664ERGO   ROH 9011   8.968   1.222  10.212 -0.2218 -0.0143 -0.0800
  664ERGO    R1 9012   9.084   1.325   9.976 -0.1389  0.0586 -0.0073
  664ERGO    R2 9013   9.348   1.278   9.906 -0.1437  0.0038  0.0254
  664ERGO    R3 9014   9.236   1.189   9.675 -0.1227  0.1519 -0.0430
  664ERGO    R4 9015   9.524   1.176   9.627 -0.1016 -0.1527  0.1076
  664ERGO    R5 9016   9.377   1.277   9.503  0.0669  0.0248  0.0404
  664ERGO    C1 9017   9.522   1.033   9.247 -0.0573 -0.1047  0.0912
  664ERGO    C2 9018   9.720   0.868   8.980  0.4067  0.0167  0.3737
  665ERGO   ROH 9019  17.640   1.304   9.880  0.2845  0.1684  0.0544
  665ERGO    R1 9020  17.745   1.358   9.623  0.0565 -0.1413 -0.1087
  665ERGO    R2 9021  17.621   1.274   9.391 -0.4588  0.0662  0.0857
  665ERGO    R3 9022  17.637   1.537   9.325  0.0451  0.0219 -0.0105
  665ERGO    R4 9023  17.667   1.394   9.070 -0.6780 -0.1570 -0.0345
  665ERGO    R5 9024  17.803   1.544   9.152 -0.1884 -0.4254 -0.2819
  665ERGO    C1 9025  17.710   1.711   8.822 -0.3327 -0.3284 -0.1947
  665ERGO    C2 9026  17.746   1.870   8.642  0.0743 -0.0698 -0.1649
  666ERGO   ROH 9027  15.873  17.584   9.845  0.3922  0.0197 -0.0287
  666ERGO    R1 9028  15.819  17.625   9.570  0.2908 -0.1831 -0.0409
  666ERGO    R2 9029  15.871  17.864   9.442  0.0005 -0.1867 -0.1750
  666ERGO    R3 9030  16.012  17.706   9.272  0.1460 -0.1231 -0.1200
  666ERGO    R4 9031  15.978  17.958   9.127  0.1200 -0.1264 -0.1181
  666ERGO    R5 9032  15.926  17.759   9.055  0.2304 -0.1427 -0.1594
  666ERGO    C1 9033  16.173  17.864   8.784  0.3260 -0.0316 -0.0335
  666ERGO    C2 9034  16.264  18.045   8.612  0.2660  0.2045  0.0926
  667ERGO   ROH 9035  12.546   0.544  10.073  0.2049  0.3012  0.1628
  667ERGO    R1 9036  12.498   0.479   9.801 -0.0703  0.2516  0.2195
  667ERGO    R2 9037  12.441   0.670   9.611 -0.1106  0.2373  0.2076
  667ERGO    R3 9038  12.650   0.556   9.480 -0.2910  0.0612  0.0684
  667ERGO    R4 9039  12.522   0.728   9.280 -0.1897  0.2632  0.1932
  667ERGO    R5 9040  12.567   0.516   9.259 -0.4266  0.2282  0.0934
  667ERGO    C1 9041  12.765   0.655   8.964 -0.4051  0.1130  0.0543
  667ERGO    C2 9042  12.816   0.738   8.707  0.0522  0.1395  0.0988
  668ERGO   ROH 9043   1.333  17.782  10.451  0.1800  0.2595  0.0806
  668ERGO    R1 9044   1.379  17.909  10.203  0.0263  0.2503  0.0466
  668ERGO    R2 9045   1.599  17.854  10.045 -0.0421  0.2828 -0.0639
  668ERGO    R3 9046   1.410  17.807   9.855 -0.1326  0.2299  0.0382
  668ERGO    R4 9047   1.652  17.874   9.704 -0.1512 -0.0227 -0.1013
  668ERGO    R5 9048   1.457  17.968   9.683 -0.1060  0.0653 -0.1091
  668ERGO    C1 9049   1.507  17.841   9.327 -0.2997 -0.2503 -0.0273
  668ERGO    C2 9050   1.557  17.887   8.936  0.0199  0.1144 -0.5783
  669ERGO   ROH 9051  15.642   3.606   6.530  0.0024  0.2610  0.1268
  669ERGO    R1 9052  15.515   3.561   6.779  0.0495  0.3575  0.1681
  669ERGO    R2 9053  15.624   3.400   6.975 -0.1063  0.1062  0.0487
  669ERGO    R3 9054  15.593   3.621   7.130  0.3104  0.0967  0.1591
  669ERGO    R4 9055  15.591   3.396   7.319 -0.2585 -0.0244  0.0338
  669ERGO    R5 9056  15.439   3.552   7.300  0.0803  0.3259  0.0540
  669ERGO    C1 9057  15.542   3.601   7.665  0.0441 -0.1095  0.1288
  669ERGO    C2 9058  15.418   3.424   7.907 -0.3060  0.0223 -0.1040
  670ERGO   ROH 9059   9.452   8.658   6.024 -0.2045  0.0304 -0.0525
  670ERGO    R1 9060   9.620   8.618   6.249 -0.1769 -0.0231 -0.0825
  670ERGO    R2 9061   9.702   8.825   6.413  0.0038 -0.0321 -0.1568
  670ERGO    R3 9062   9.598   8.667   6.608 -0.0572  0.0899 -0.0902
  670ERGO    R4 9063   9.738   8.881   6.752  0.0429  0.0828 -0.1797
  670ERGO    R5 9064   9.765   8.667   6.780 -0.0509  0.0820 -0.0976
  670ERGO    C1 9065   9.661   8.766   7.133  0.0086  0.2643 -0.1304
  670ERGO    C2 9066   9.640   8.891   7.371 -0.2966  0.0370  0.2316
  671ERGO   ROH 9067  12.040   5.039   9.740  0.1024 -0.1528  0.0763
  671ERGO    R1 9068  12.187   4.959   9.511  0.0212 -0.1289  0.0165
  671ERGO    R2 9069  12.071   4.933   9.262 -0.0551 -0.0532  0.0485
  671ERGO    R3 9070  12.270   5.102   9.187 -0.0455 -0.0748  0.0213
  671ERGO    R4 9071  12.276   4.887   8.987 -0.2502  0.0288 -0.1142
  671ERGO    R5 9072  12.444   4.958   9.107 -0.1440 -0.0962 -0.1752
  671ERGO    C1 9073  12.582   5.020   8.757 -0.3547  0.0562 -0.2344
  671ERGO    C2 9074  12.713   4.852   8.455 -0.1387  0.1086 -0.0304
  672ERGO   ROH 9075   8.250   8.429   9.566 -0.1322  0.0376 -0.0411
  672ERGO    R1 9076   8.121   8.449   9.314 -0.0434  0.0714 -0.0843
  672ERGO    R2 9077   8.101   8.687   9.176 -0.0315  0.0992 -0.0401
  672ERGO    R3 9078   8.216   8.544   8.976  0.0661  0.1607 -0.0286
  672ERGO    R4 9079   8.077   8.763   8.840  0.1920  0.2367 -0.0273
  672ERGO    R5 9080   8.056   8.550   8.799  0.1791  0.2594 -0.1267
  672ERGO    C1 9081   8.171   8.672   8.456  0.4139  0.3745 -0.0092
  672ERGO    C2 9082   8.263   8.886   8.174  0.1589  0.1509  0.3317
  673ERGO   ROH 9083  10.995   5.617   6.027 -0.0785  0.0748 -0.0043
  673ERGO    R1 9084  11.003   5.489   6.279  0.0890  0.1413  0.0248
  673ERGO    R2 9085  11.068   5.221   6.309 -0.0509  0.1105  0.0330
  673ERGO    R3 9086  11.253   5.319   6.482  0.1837  0.0404 -0.1720
  673ERGO    R4 9087  11.249   5.031   6.534 -0.1785  0.0846  0.1148
  673ERGO    R5 9088  11.224   5.190   6.681  0.1179  0.2733 -0.0230
  673ERGO    C1 9089  11.528   5.013   6.827 -0.0325  0.0036 -0.0299
  673ERGO    C2 9090  11.636   4.850   7.075 -0.0242  0.0533  0.2292
  674ERGO   ROH 9091  12.189   8.060   9.995 -0.2626  0.1332  0.1782
  674ERGO    R1 9092  12.103   7.907   9.773  0.2736  0.1315 -0.0450
  674ERGO    R2 9093  11.838   7.897   9.693  0.2557 -0.7772  0.0346
  674ERGO    R3 9094  11.941   7.973   9.454 -0.0849  0.0359  0.1121
  674ERGO    R4 9095  11.657   7.927   9.401 -0.0003 -0.6949  0.1967
  674ERGO    R5 9096  11.824   7.839   9.293  0.2200  0.0104 -0.0958
  674ERGO    C1 9097  11.648   8.016   9.005 -0.4690  0.1163  0.3637
  674ERGO    C2 9098  11.479   8.280   8.796  0.0089 -0.0382  0.1568
  675loPI    C1 9099  11.524  12.726   5.646  0.0354  0.0199  0.0417
  675loPI    C2 9100  11.170  12.700   5.460 -0.0229 -0.0294  0.1589
  675loPI    C3 9101  11.432  12.398   5.436  0.1152  0.1094 -0.1363
  675loPI   PO4 9102  11.507  12.760   5.942  0.1772  0.1025 -0.1190
  675loPI   GL1 9103  11.124  12.715   6.362 -0.0614  0.0590 -0.0908
  675loPI   GL2 9104  11.391  12.555   6.453  0.3726 -0.0444  0.0519
  675loPI   C1A 9105  11.096  13.084   6.628  0.2652 -0.1899 -0.0357
  675loPI   C2A 9106  11.179  13.467   6.923 -0.0723 -0.0948  0.1475
  675loPI   C3A 9107  11.156  13.516   7.391 -0.0464 -0.1748  0.2820
  675loPI   C4A 9108  11.021  13.816   7.845 -0.1613 -0.2514  0.2053
  675loPI   C5A 9109  11.276  13.893   8.276 -0.5194 -0.0118 -0.4491
  675loPI   C6A 9110  11.375  14.006   8.694  0.1632  0.1903  0.1819
  675loPI   C1B 9111  11.235  12.628   6.814 -0.0069  0.0823  0.0311
  675loPI   C2B 9112  11.014  12.439   7.146 -0.1554  0.1431 -0.0507
  675loPI   C3B 9113  10.850  12.480   7.530  0.3248  0.2383  0.2087
  675loPI   C4B 9114  10.595  12.414   7.960 -0.0229 -0.0865  0.0803
  676loPI    C1 9115  13.622   3.376   5.484  0.0762 -0.1507 -0.0269
  676loPI    C2 9116  13.849   3.700   5.544 -0.1164  0.0333 -0.2704
  676loPI    C3 9117  13.865   3.505   5.195 -0.1179 -0.1275 -0.1819
  676loPI   PO4 9118  13.518   3.416   5.720  0.2116  0.2755 -0.0478
  676loPI   GL1 9119  13.198   3.211   6.016  0.2513 -0.1054 -0.2007
  676loPI   GL2 9120  12.941   3.448   6.065 -0.0165 -0.2245 -0.2634
  676loPI   C1A 9121  13.218   2.962   6.247 -0.1180  0.0855  0.0431
  676loPI   C2A 9122  13.432   3.052   6.665  0.1034 -0.2313  0.1241
  676loPI   C3A 9123  13.751   3.207   7.013 -0.0688 -0.1954 -0.0133
  676loPI   C4A 9124  13.954   3.526   7.207 -0.2518  0.3910  0.1869
  676loPI   C5A 9125  14.384   3.533   7.394 -0.0991 -0.2250  0.3131
  676loPI   C6A 9126  14.538   3.553   7.801  0.2430  0.0359  0.1850
  676loPI   C1B 9127  13.055   3.366   6.466 -0.0745  0.1305 -0.2515
  676loPI   C2B 9128  13.381   3.508   6.883 -0.2536 -0.2457 -0.0709
  676loPI   C3B 9129  13.500   3.424   7.424 -0.0950 -0.2219  0.4150
  676loPI   C4B 9130  13.974   3.471   7.786 -0.3201 -0.1449  0.1622
  677loPI    C1 9131  16.190   2.708   5.561 -0.3150 -0.0341 -0.0905
  677loPI    C2 9132  16.531   2.617   5.373 -0.3282 -0.0711 -0.0967
  677loPI    C3 9133  16.368   2.979   5.326 -0.0376  0.1159  0.2825
  677loPI   PO4 9134  16.067   2.384   5.646  0.1046 -0.1728 -0.3630
  677loPI   GL1 9135  15.839   2.466   6.092 -0.5002 -0.1703 -0.2093
  677loPI   GL2 9136  16.070   2.760   6.107 -0.2106  0.2367 -0.0489
  677loPI   C1A 9137  15.767   2.415   6.471 -0.0190  0.1373  0.1034
  677loPI   C2A 9138  15.509   2.369   6.763  0.1522  0.0568  0.1350
  677loPI   C3A 9139  15.523   2.446   7.158 -0.1880  0.2879 -0.0937
  677loPI   C4A 9140  15.412   2.295   7.540  0.1323  0.0265  0.1885
  677loPI   C5A 9141  15.434   2.534   7.850  0.1539  0.2671  0.2763
  677loPI   C6A 9142  15.825   2.692   8.065 -0.0570  0.2966 -0.0237
  677loPI   C1B 9143  16.213   2.672   6.453  0.0241 -0.1047  0.0403
  677loPI   C2B 9144  16.320   2.675   6.852 -0.3678 -0.0779 -0.0168
  677loPI   C3B 9145  16.126   2.566   7.197  0.1909  0.1813  0.2217
  677loPI   C4B 9146  15.847   2.591   7.590  0.1916  0.2697 -0.1623
  678loPI    C1 9147   6.554   1.135   5.989  0.1842 -0.0450  0.0666
  678loPI    C2 9148   6.437   1.494   5.857  0.0043 -0.0427  0.2273
  678loPI    C3 9149   6.617   1.238   5.607  0.1588  0.1684  0.1190
  678loPI   PO4 9150   6.335   1.031   6.071  0.2351  0.2337 -0.3260
  678loPI   GL1 9151   6.025   1.190   6.160  0.1438  0.2168  0.1310
  678loPI   GL2 9152   5.873   1.546   5.968 -0.0029  0.0657  0.1871
  678loPI   C1A 9153   5.896   1.310   6.559 -0.1478  0.0157 -0.2177
  678loPI   C2A 9154   5.870   1.451   7.052 -0.1407  0.0494  0.2041
  678loPI   C3A 9155   5.832   1.606   7.497 -0.1820  0.1286  0.2082
  678loPI   C4A 9156   6.150   1.971   7.629  0.2628  0.0718 -0.0687
  678loPI   C5A 9157   6.150   2.079   8.107 -0.0814  0.2563 -0.3526
  678loPI   C6A 9158   6.301   2.344   8.433  0.0046  0.1798  0.0210
  678loPI   C1B 9159   5.965   1.774   6.382  0.0042  0.0123  0.1130
  678loPI   C2B 9160   6.127   1.892   6.709  0.1307  0.0523  0.1214
  678loPI   C3B 9161   6.185   1.842   7.144 -0.0847  0.0527 -0.1331
  678loPI   C4B 9162   6.510   1.607   7.417  0.0195 -0.2124  0.0702
  679loPI    C1 9163  12.628   6.630   5.331  0.1870 -0.0966  0.0392
  679loPI    C2 9164  12.327   6.777   5.113  0.2181  0.0152  0.0710
  679loPI    C3 9165  12.700   6.784   4.969  0.1948 -0.2029 -0.0050
  679loPI   PO4 9166  12.502   6.629   5.695 -0.0591 -0.0132  0.0884
  679loPI   GL1 9167  12.753   6.708   6.089 -0.0665 -0.2550  0.0018
  679loPI   GL2 9168  12.522   6.552   6.167  0.0953 -0.3374  0.0501
  679loPI   C1A 9169  12.969   6.645   6.454  0.2209 -0.0944 -0.1849
  679loPI   C2A 9170  12.978   6.764   6.880  0.0485 -0.2839  0.1580
  679loPI   C3A 9171  12.829   6.790   7.310 -0.0096  0.2459 -0.1803
  679loPI   C4A 9172  13.021   6.787   7.758  0.0943 -0.3297  0.2000
  679loPI   C5A 9173  12.690   6.734   8.142  0.1751 -0.1554  0.0368
  679loPI   C6A 9174  12.458   6.788   8.572  0.2287  0.1446 -0.2951
  679loPI   C1B 9175  12.506   6.702   6.577 -0.0500  0.2168 -0.2776
  679loPI   C2B 9176  12.586   6.490   6.908  0.1225  0.2701 -0.1584
  679loPI   C3B 9177  12.464   6.431   7.295  0.0406  0.1563  0.2070
  679loPI   C4B 9178  12.554   6.447   7.723 -0.3552 -0.0191 -0.1848
  680loPI    C1 9179  17.989   4.362   5.089  0.1893  0.1667  0.1714
  680loPI    C2 9180  18.001   4.755   5.015  0.0842  0.1969  0.3106
  680loPI    C3 9181  17.736   4.524   4.824  0.0935  0.2065  0.2863
  680loPI   PO4 9182  18.074   4.384   5.406  0.0453  0.1368  0.3789
  680loPI   GL1 9183  17.987   4.186   5.751 -0.1191 -0.1240  0.5018
  680loPI   GL2 9184  17.993   4.455   6.009 -0.2029 -0.2059  0.1492
  680loPI   C1A 9185  18.059   4.029   6.235  0.1113 -0.1004  0.1176
  680loPI   C2A 9186  18.086   4.052   6.634 -0.3872  0.2128  0.1600
  680loPI   C3A 9187  18.142   4.051   7.083 -0.0505 -0.2748 -0.3219
  680loPI   C4A 9188  18.169   3.990   7.499 -0.0275  0.1160 -0.0645
  680loPI   C5A 9189  18.242   3.767   7.952 -0.2711 -0.0967  0.0967
  680loPI   C6A 9190  18.625   3.557   8.035  0.0289 -0.1119 -0.1540
  680loPI   C1B 9191  18.307   4.479   6.302  0.1567 -0.1062 -0.1169
  680loPI   C2B 9192  18.264   4.509   6.752  0.0055  0.1695  0.1799
  680loPI   C3B 9193  18.324   4.521   7.192 -0.3309 -0.0365 -0.3583
  680loPI   C4B 9194  18.215   4.566   7.584  0.3234 -0.0685  0.2487
  681loPI    C1 9195  10.546   6.277   5.360  0.0473 -0.0108 -0.0559
  681loPI    C2 9196  10.233   6.247   5.113  0.0411  0.1873 -0.0738
  681loPI    C3 9197  10.605   6.222   4.968  0.0349 -0.2151 -0.0297
  681loPI   PO4 9198  10.504   6.424   5.514  0.0573  0.0653 -0.1977
  681loPI   GL1 9199  10.465   6.420   5.968  0.1180 -0.0394  0.0915
  681loPI   GL2 9200  10.410   6.735   5.874  0.1054 -0.1313 -0.2431
  681loPI   C1A 9201  10.165   6.363   6.316  0.3992 -0.3919  0.0475
  681loPI   C2A 9202   9.914   6.371   6.600  0.2167 -0.0034  0.0109
  681loPI   C3A 9203   9.943   6.326   7.065 -0.1274 -0.1492  0.3033
  681loPI   C4A 9204   9.775   6.482   7.379 -0.0554 -0.1046  0.5214
  681loPI   C5A 9205   9.542   6.436   7.827  0.0050 -0.0650  0.0884
  681loPI   C6A 9206   9.419   6.145   8.155 -0.0011  0.0655  0.0601
  681loPI   C1B 9207  10.279   6.960   6.226 -0.0956 -0.0440 -0.2564
  681loPI   C2B 9208  10.124   6.826   6.591  0.1278  0.0586 -0.0825
  681loPI   C3B 9209  10.090   6.834   7.154  0.2453 -0.0041 -0.3055
  681loPI   C4B 9210  10.030   7.075   7.545  0.5214 -0.0263 -0.3293
  682loPI    C1 9211  13.486   4.224   5.753 -0.1470  0.0102  0.2566
  682loPI    C2 9212  13.293   3.879   5.810 -0.2301  0.0241  0.0649
  682loPI    C3 9213  13.445   3.966   5.450  0.2594 -0.0491  0.2463
  682loPI   PO4 9214  13.654   4.251   5.919  0.4845  0.1300  0.0378
  682loPI   GL1 9215  13.592   4.137   6.278 -0.1079 -0.2552  0.2070
  682loPI   GL2 9216  13.982   4.023   6.352  0.0370 -0.1300  0.1928
  682loPI   C1A 9217  13.511   3.977   6.677 -0.0538 -0.1728 -0.4763
  682loPI   C2A 9218  13.723   4.037   7.057  0.1079  0.1186  0.1350
  682loPI   C3A 9219  13.554   3.945   7.541  0.1396  0.2974  0.4122
  682loPI   C4A 9220  13.412   3.722   7.814  0.0318 -0.0537 -0.1076
  682loPI   C5A 9221  13.121   3.243   7.764 -0.1605  0.0192  0.0344
  682loPI   C6A 9222  12.947   2.970   7.492  0.2847  0.0885  0.0924
  682loPI   C1B 9223  14.423   3.951   6.403  0.0906  0.1097 -0.1709
  682loPI   C2B 9224  14.783   3.997   6.675 -0.0152  0.1879 -0.1872
  682loPI   C3B 9225  14.688   3.907   7.136  0.2321 -0.0794 -0.2216
  682loPI   C4B 9226  14.625   4.018   7.586  0.1774 -0.0239 -0.1757
  683loPI    C1 9227   1.395   9.856   6.108 -0.1158 -0.0865 -0.2457
  683loPI    C2 9228   1.539  10.218   6.201 -0.0017 -0.1806 -0.0483
  683loPI    C3 9229   1.528  10.098   5.819  0.0054  0.0115 -0.1096
  683loPI   PO4 9230   1.194   9.809   6.189  0.0507 -0.2055  0.3433
  683loPI   GL1 9231   0.842   9.911   6.323 -0.0390  0.0893  0.0676
  683loPI   GL2 9232   1.132  10.085   6.581 -0.1486 -0.1020  0.0255
  683loPI   C1A 9233   0.720   9.852   6.737  0.0067  0.0314 -0.0752
  683loPI   C2A 9234   0.598   9.971   7.111  0.2116 -0.0908  0.1228
  683loPI   C3A 9235   0.563   9.918   7.546 -0.2405  0.4397  0.2920
  683loPI   C4A 9236   0.332  10.058   7.860 -0.0512 -0.0871  0.1125
  683loPI   C5A 9237  -0.053   9.841   8.141  0.1699  0.0553 -0.0154
  683loPI   C6A 9238  -0.335   9.699   8.517  0.3195  0.2148 -0.2085
  683loPI   C1B 9239   1.134  10.245   6.934  0.0525 -0.0502 -0.4076
  683loPI   C2B 9240   1.059  10.141   7.323  0.0131  0.1098  0.1357
  683loPI   C3B 9241   1.064  10.006   7.840 -0.4835  0.2844  0.3905
  683loPI   C4B 9242   1.243  10.101   8.168  0.0567 -0.2429 -0.0473
  684loPI    C1 9243  17.225  11.123   5.536  0.0036 -0.1075  0.2529
  684loPI    C2 9244  16.873  10.992   5.398  0.0492 -0.0044  0.0346
  684loPI    C3 9245  17.150  10.730   5.520 -0.0521 -0.0907  0.0811
  684loPI   PO4 9246  17.124  11.270   5.742  0.1969 -0.5135  0.0586
  684loPI   GL1 9247  17.053  11.153   6.162  0.0946  0.0196 -0.0972
  684loPI   GL2 9248  17.081  11.358   6.477 -0.0588  0.0246  0.1849
  684loPI   C1A 9249  16.866  10.930   6.427  0.0781 -0.0276 -0.2060
  684loPI   C2A 9250  16.851  11.044   6.881  0.0477  0.1541 -0.0495
  684loPI   C3A 9251  16.763  10.933   7.254  0.0448  0.1703 -0.0347
  684loPI   C4A 9252  16.852  10.996   7.655 -0.0941 -0.0449 -0.3997
  684loPI   C5A 9253  16.816  11.083   8.057 -0.2602 -0.0410 -0.2325
  684loPI   C6A 9254  17.006  11.233   8.355  0.1005  0.3014 -0.2036
  684loPI   C1B 9255  17.086  11.468   6.970 -0.1464  0.0176  0.0883
  684loPI   C2B 9256  17.137  11.445   7.431  0.0738  0.0930  0.1778
  684loPI   C3B 9257  16.861  11.551   7.888 -0.0170  0.0141  0.0607
  684loPI   C4B 9258  16.761  11.652   8.310 -0.3714  0.1187 -0.0693
  685loPI    C1 9259   7.291  17.576   5.452  0.0118 -0.0495 -0.2264
  685loPI    C2 9260   7.175  17.900   5.248  0.1323 -0.0513 -0.2989
  685loPI    C3 9261   6.933  17.582   5.274 -0.2941  0.3042  0.3678
  685loPI   PO4 9262   7.380  17.577   5.839  0.0240  0.0381  0.1474
  685loPI   GL1 9263   7.392  17.499   6.196 -0.0964  0.1296 -0.1871
  685loPI   GL2 9264   7.587  17.684   6.317 -0.1932  0.1096 -0.0280
  685loPI   C1A 9265   7.355  17.406   6.745 -0.0819  0.2592 -0.0098
  685loPI   C2A 9266   7.190  17.464   7.161 -0.1872  0.0346 -0.1614
  685loPI   C3A 9267   6.887  17.503   7.526  0.2270  0.1478  0.1366
  685loPI   C4A 9268   6.680  17.540   7.982  0.1701 -0.0450 -0.0998
  685loPI   C5A 9269   6.399  17.788   8.296  0.2300 -0.0024 -0.0641
  685loPI   C6A 9270   6.026  17.772   8.557  0.0187 -0.1597 -0.4158
  685loPI   C1B 9271   7.609  17.874   6.712 -0.0795  0.5338  0.0473
  685loPI   C2B 9272   7.602  17.778   7.185  0.2379  0.1280  0.1307
  685loPI   C3B 9273   7.409  17.618   7.538  0.1452  0.0971  0.0124
  685loPI   C4B 9274   7.408  17.649   7.908  0.1528 -0.0020  0.2025
  686loPI    C1 9275  14.986  11.774   5.950 -0.0652 -0.0930  0.0019
  686loPI    C2 9276  14.710  11.696   5.672  0.0597 -0.1718 -0.1009
  686loPI    C3 9277  15.060  11.858   5.566 -0.0394  0.1549  0.0596
  686loPI   PO4 9278  14.952  11.521   6.063  0.2462  0.1991  0.4383
  686loPI   GL1 9279  15.139  11.283   6.477  0.0764  0.0873 -0.1387
  686loPI   GL2 9280  14.766  11.364   6.509 -0.1343  0.2068  0.0669
  686loPI   C1A 9281  15.342  11.445   6.850 -0.0034  0.0889  0.1760
  686loPI   C2A 9282  15.278  11.418   7.393 -0.1357  0.2057  0.1633
  686loPI   C3A 9283  15.442  11.468   7.824  0.2322  0.3429  0.2289
  686loPI   C4A 9284  15.479  11.792   8.076  0.1942 -0.0306  0.1725
  686loPI   C5A 9285  15.159  11.841   8.477  0.1247 -0.0000  0.0161
  686loPI   C6A 9286  15.281  11.495   8.756 -0.2125 -0.0215 -0.0961
  686loPI   C1B 9287  14.781  11.304   6.844  0.1143  0.1234  0.0375
  686loPI   C2B 9288  14.865  11.407   7.148  0.1111 -0.2648  0.0224
  686loPI   C3B 9289  14.848  11.351   7.593 -0.0405 -0.0887 -0.1213
  686loPI   C4B 9290  14.974  11.333   7.936 -0.2152 -0.0675 -0.0385
  687loPI    C1 9291   8.138   4.330   5.203  0.1822  0.0146  0.0929
  687loPI    C2 9292   8.133   4.655   4.969 -0.1173  0.0839  0.1908
  687loPI    C3 9293   7.984   4.309   4.835  0.4522 -0.0934 -0.0168
  687loPI   PO4 9294   8.367   4.310   5.314 -0.1274  0.0717 -0.0801
  687loPI   GL1 9295   8.355   4.498   5.673  0.0077  0.1882  0.1966
  687loPI   GL2 9296   8.102   4.419   5.773 -0.3647  0.2254 -0.3083
  687loPI   C1A 9297   8.501   4.216   5.943  0.0375  0.1214  0.1936
  687loPI   C2A 9298   8.785   4.289   6.320 -0.1811  0.1837  0.0303
  687loPI   C3A 9299   8.676   4.093   6.792  0.0430 -0.1020 -0.1811
  687loPI   C4A 9300   8.699   3.947   7.149 -0.4224  0.0218 -0.0089
  687loPI   C5A 9301   8.800   3.850   7.563 -0.0998  0.0042  0.1564
  687loPI   C6A 9302   9.207   3.966   7.746 -0.0748 -0.1596  0.2618
  687loPI   C1B 9303   8.038   4.483   6.148 -0.1405  0.0793  0.1527
  687loPI   C2B 9304   7.761   4.535   6.524  0.1701  0.0344  0.1353
  687loPI   C3B 9305   7.400   4.568   6.856  0.0530  0.2900 -0.0489
  687loPI   C4B 9306   7.416   4.595   7.290 -0.0199  0.0514 -0.2972
  688loPI    C1 9307   2.134   0.418   5.579  0.2106  0.0018  0.0880
  688loPI    C2 9308   2.420   0.263   5.346  0.0207 -0.1965 -0.0167
  688loPI    C3 9309   2.075   0.384   5.185  0.0777  0.1249  0.0969
  688loPI   PO4 9310   2.170   0.304   5.797 -0.0437  0.2395 -0.0999
  688loPI   GL1 9311   2.095   0.315   6.168  0.0799  0.3085 -0.0378
  688loPI   GL2 9312   2.249   0.567   6.259  0.5187 -0.0598  0.0380
  688loPI   C1A 9313   1.941   0.218   6.567 -0.4157 -0.1574 -0.3311
  688loPI   C2A 9314   2.030   0.149   6.907  0.1746 -0.0210 -0.1387
  688loPI   C3A 9315   2.046   0.073   7.284  0.0054 -0.0097  0.0941
  688loPI   C4A 9316   1.907  -0.039   7.651 -0.1221 -0.0561  0.0653
  688loPI   C5A 9317   2.020   0.257   7.981  0.1016  0.2567 -0.1524
  688loPI   C6A 9318   2.129   0.586   8.224 -0.1770 -0.0275  0.1545
  688loPI   C1B 9319   2.359   0.671   6.643 -0.0708  0.0903 -0.2418
  688loPI   C2B 9320   2.305   0.575   7.086  0.0912  0.1593  0.1794
  688loPI   C3B 9321   2.379   0.522   7.576  0.0182  0.0228  0.0162
  688loPI   C4B 9322   2.522   0.771   7.939 -0.2838  0.0505  0.2019
  689loPI    C1 9323  10.382  14.098   5.896  0.1493 -0.1746  0.2717
  689loPI    C2 9324  10.595  13.879   5.637 -0.1126  0.0679 -0.1621
  689loPI    C3 9325  10.197  13.903   5.599 -0.1404  0.2157  0.1875
  689loPI   PO4 9326  10.406  14.036   6.110 -0.1814  0.1186  0.0310
  689loPI   GL1 9327  10.248  14.195   6.436  0.0004  0.2989  0.0122
  689loPI   GL2 9328  10.254  13.904   6.536 -0.0829 -0.1624  0.2266
  689loPI   C1A 9329  10.180  14.139   6.951 -0.1875 -0.3704 -0.1671
  689loPI   C2A 9330  10.082  14.114   7.405 -0.0641  0.0020 -0.1167
  689loPI   C3A 9331  10.030  14.249   7.825  0.0542  0.0585 -0.1798
  689loPI   C4A 9332   9.813  14.369   8.195 -0.1017 -0.2109  0.1731
  689loPI   C5A 9333   9.489  14.485   8.082 -0.1467  0.1869 -0.1973
  689loPI   C6A 9334   9.176  14.772   8.355 -0.1232  0.0649  0.1157
  689loPI   C1B 9335  10.280  13.666   6.924 -0.1576 -0.2446 -0.0419
  689loPI   C2B 9336  10.291  13.670   7.409  0.0762 -0.1475  0.0874
  689loPI   C3B 9337  10.281  13.666   7.765 -0.3409  0.0807 -0.0131
  689loPI   C4B 9338  10.223  13.869   8.239  0.0451 -0.0469  0.0170
  690loPI    C1 9339   4.127   5.038   5.912  0.0513 -0.0123 -0.0825
  690loPI    C2 9340   4.221   5.155   5.541  0.1004 -0.2652 -0.1516
  690loPI    C3 9341   4.049   4.799   5.601 -0.0711 -0.1505  0.0526
  690loPI   PO4 9342   4.108   5.335   6.066  0.3354 -0.2078 -0.0073
  690loPI   GL1 9343   4.020   5.423   6.407  0.0983 -0.1432 -0.1897
  690loPI   GL2 9344   3.947   5.771   6.490 -0.2218 -0.0411  0.0252
  690loPI   C1A 9345   4.042   5.291   6.736 -0.1619  0.1233 -0.2196
  690loPI   C2A 9346   4.042   5.292   7.178  0.3336  0.0499  0.1936
  690loPI   C3A 9347   4.075   5.445   7.558 -0.1427 -0.0768  0.1987
  690loPI   C4A 9348   4.033   5.461   7.955 -0.0468  0.3573 -0.2071
  690loPI   C5A 9349   4.138   5.580   8.305  0.1940  0.3936  0.1121
  690loPI   C6A 9350   4.186   5.666   8.763  0.3009 -0.1771  0.2817
  690loPI   C1B 9351   3.966   5.759   6.938 -0.0721 -0.0419 -0.0332
  690loPI   C2B 9352   4.011   5.893   7.310  0.0470  0.2417 -0.3245
  690loPI   C3B 9353   4.027   5.963   7.739 -0.0525  0.1871  0.0158
  690loPI   C4B 9354   3.963   6.017   8.210 -0.0416  0.0702 -0.2537
  691loPI    C1 9355  11.697   1.438   5.853 -0.0965  0.1404  0.0851
  691loPI    C2 9356  11.647   1.722   5.575  0.0572  0.1833  0.1006
  691loPI    C3 9357  11.476   1.364   5.527 -0.2663  0.3269  0.1557
  691loPI   PO4 9358  11.683   1.583   6.081 -0.0278 -0.1979 -0.0666
  691loPI   GL1 9359  11.959   1.552   6.290 -0.1053  0.2046  0.0262
  691loPI   GL2 9360  11.782   1.654   6.584  0.0196 -0.2361 -0.0498
  691loPI   C1A 9361  12.087   1.270   6.671  0.0434  0.1094 -0.1317
  691loPI   C2A 9362  12.068   1.230   7.108 -0.3743  0.0535  0.2601
  691loPI   C3A 9363  11.943   1.241   7.539 -0.2963  0.1899  0.0093
  691loPI   C4A 9364  11.697   0.871   7.774  0.2447 -0.0913  0.1426
  691loPI   C5A 9365  11.516   0.674   8.219  0.0724  0.1739  0.1307
  691loPI   C6A 9366  11.335   0.262   8.343  0.1988 -0.0276 -0.1254
  691loPI   C1B 9367  11.824   1.855   7.048 -0.0308 -0.1804 -0.0510
  691loPI   C2B 9368  11.678   1.626   7.361 -0.0208  0.2216  0.2772
  691loPI   C3B 9369  11.678   1.652   7.788 -0.1707 -0.1653  0.1617
  691loPI   C4B 9370  11.526   1.723   8.211  0.0627  0.2607  0.1740
  692loPI    C1 9371   6.738  13.721   5.538  0.1178 -0.0114  0.0176
  692loPI    C2 9372   6.491  13.853   5.252 -0.1576 -0.2675  0.1314
  692loPI    C3 9373   6.885  13.917   5.222 -0.2449  0.2604  0.0107
  692loPI   PO4 9374   6.628  13.373   5.598  0.1128 -0.0501 -0.2190
  692loPI   GL1 9375   6.609  13.080   6.065  0.0091 -0.2526  0.2439
  692loPI   GL2 9376   6.560  12.669   6.052  0.1851  0.0592  0.0414
  692loPI   C1A 9377   6.768  13.237   6.471 -0.2878  0.0667 -0.2697
  692loPI   C2A 9378   6.586  13.388   6.920 -0.0081  0.1225  0.2407
  692loPI   C3A 9379   6.618  13.267   7.369 -0.1367  0.1595 -0.4225
  692loPI   C4A 9380   6.581  13.348   7.808 -0.1802 -0.4488 -0.0800
  692loPI   C5A 9381   6.662  13.090   8.101 -0.1763 -0.2441  0.0055
  692loPI   C6A 9382   6.628  12.717   8.131  0.0544 -0.0435  0.4426
  692loPI   C1B 9383   6.640  12.329   6.210 -0.0419 -0.0792 -0.0580
  692loPI   C2B 9384   6.388  12.085   6.572 -0.0895  0.1564 -0.1302
  692loPI   C3B 9385   6.107  12.016   6.883  0.2574  0.0373 -0.1194
  692loPI   C4B 9386   5.879  11.973   7.256 -0.0579 -0.1880 -0.1177
  693loPI    C1 9387  13.130   2.319   5.366  0.0531  0.4532  0.2987
  693loPI    C2 9388  12.902   2.645   5.408 -0.0488  0.4146  0.0598
  693loPI    C3 9389  12.862   2.413   5.085  0.1498  0.2642  0.1410
  693loPI   PO4 9390  13.195   2.299   5.662 -0.3432 -0.2473  0.0940
  693loPI   GL1 9391  13.264   2.551   6.032 -0.1821  0.0022 -0.0008
  693loPI   GL2 9392  13.045   2.675   5.854  0.1019 -0.0963 -0.1764
  693loPI   C1A 9393  13.170   2.432   6.436 -0.0174 -0.0973 -0.1520
  693loPI   C2A 9394  13.368   2.527   6.848  0.0907  0.1102 -0.2191
  693loPI   C3A 9395  13.581   2.453   7.314 -0.0307 -0.0203 -0.2400
  693loPI   C4A 9396  13.594   2.546   7.723 -0.0191 -0.0042 -0.1370
  693loPI   C5A 9397  13.655   2.766   8.070  0.4001  0.2276  0.0647
  693loPI   C6A 9398  13.875   2.996   8.328  0.2076 -0.0215  0.1099
  693loPI   C1B 9399  12.753   2.817   6.184 -0.1681  0.1080  0.0558
  693loPI   C2B 9400  12.871   2.857   6.600  0.2237  0.2634 -0.6943
  693loPI   C3B 9401  13.009   2.918   6.944 -0.0761  0.0441 -0.0271
  693loPI   C4B 9402  13.378   2.918   7.203  0.0805 -0.3872  0.1461
  694loPI    C1 9403  11.642   6.851   5.674 -0.1162  0.0514 -0.0631
  694loPI    C2 9404  11.911   6.652   5.454  0.2235  0.1208  0.2792
  694loPI    C3 9405  11.776   7.008   5.331  0.3283  0.1099  0.1306
  694loPI   PO4 9406  11.699   6.679   5.982 -0.0623 -0.2211  0.1495
  694loPI   GL1 9407  11.795   6.502   6.360  0.0206  0.1406  0.0915
  694loPI   GL2 9408  12.053   6.584   6.390  0.1435  0.2676 -0.1067
  694loPI   C1A 9409  11.581   6.639   6.674 -0.0002  0.1319 -0.0413
  694loPI   C2A 9410  11.558   6.642   7.109 -0.0363 -0.2389  0.2334
  694loPI   C3A 9411  11.504   6.642   7.489 -0.3013 -0.1433  0.2545
  694loPI   C4A 9412  11.648   6.676   7.953  0.2770  0.0203  0.0991
  694loPI   C5A 9413  11.604   7.083   8.254  0.0617 -0.0714  0.1199
  694loPI   C6A 9414  11.823   7.460   8.488 -0.1116 -0.1322  0.0946
  694loPI   C1B 9415  12.142   6.339   6.713 -0.5294 -0.2082  0.1127
  694loPI   C2B 9416  12.042   6.283   7.096 -0.2768 -0.1141  0.2808
  694loPI   C3B 9417  11.953   6.287   7.499  0.0012  0.1354  0.3324
  694loPI   C4B 9418  12.048   6.270   7.973  0.2080 -0.2864  0.2215
  695loPI    C1 9419  11.729  11.739   6.067  0.2627  0.1199  0.0104
  695loPI    C2 9420  11.611  11.458   5.808  0.1317  0.1876 -0.0045
  695loPI    C3 9421  11.942  11.671   5.736  0.0899  0.2138 -0.1221
  695loPI   PO4 9422  11.633  11.569   6.294 -0.0217  0.1128  0.1015
  695loPI   GL1 9423  11.518  11.584   6.680  0.4114 -0.0173  0.3047
  695loPI   GL2 9424  11.587  11.777   6.845 -0.1435 -0.1751 -0.1598
  695loPI   C1A 9425  11.411  11.333   7.178 -0.0920  0.1009 -0.2235
  695loPI   C2A 9426  11.409  11.267   7.689  0.0127 -0.1227 -0.1258
  695loPI   C3A 9427  11.443  11.038   8.032 -0.2420 -0.0008 -0.1516
  695loPI   C4A 9428  11.539  10.704   8.393  0.2434  0.1981  0.0719
  695loPI   C5A 9429  11.343  10.298   8.353 -0.0997 -0.3247  0.1102
  695loPI   C6A 9430  11.492   9.828   8.577  0.1176  0.0349 -0.1626
  695loPI   C1B 9431  11.594  11.789   7.232 -0.2412  0.0502 -0.0701
  695loPI   C2B 9432  11.646  11.980   7.676 -0.0748 -0.3029 -0.0749
  695loPI   C3B 9433  11.819  12.067   8.057 -0.0317  0.2261 -0.1893
  695loPI   C4B 9434  12.208  12.286   8.199 -0.4712  0.0249  0.0907
  696loPI    C1 9435   8.897  14.869   5.903 -0.1393 -0.2919  0.1576
  696loPI    C2 9436   8.801  14.855   5.515  0.0558  0.0567  0.0925
  696loPI    C3 9437   9.098  14.627   5.655  0.0300 -0.0194  0.0241
  696loPI   PO4 9438   8.531  14.811   6.043  0.1094 -0.0547 -0.0735
  696loPI   GL1 9439   8.291  14.821   6.446 -0.0493 -0.4060  0.0731
  696loPI   GL2 9440   8.598  14.879   6.690  0.1460 -0.3875  0.0150
  696loPI   C1A 9441   8.361  14.500   6.849 -0.5348 -0.1804  0.4413
  696loPI   C2A 9442   8.403  14.234   7.172 -0.0569  0.0021  0.2668
  696loPI   C3A 9443   8.675  14.253   7.570  0.3301  0.2718 -0.2299
  696loPI   C4A 9444   8.930  14.070   7.710  0.0730 -0.0695  0.1916
  696loPI   C5A 9445   9.209  13.917   8.012 -0.0100  0.1619 -0.1625
  696loPI   C6A 9446   9.628  13.905   7.948 -0.1420 -0.0882  0.2941
  696loPI   C1B 9447   8.422  14.873   7.154  0.0302 -0.6315 -0.0066
  696loPI   C2B 9448   8.381  14.752   7.546  0.0066  0.2745 -0.3037
  696loPI   C3B 9449   8.556  14.852   7.879  0.0681  0.2452  0.1329
  696loPI   C4B 9450   8.722  14.916   8.273 -0.2207  0.2447 -0.1974
  697loPI    C1 9451   4.310   7.098   5.817  0.3319  0.4999 -0.1189
  697loPI    C2 9452   4.204   7.475   5.895 -0.0380  0.3684  0.0368
  697loPI    C3 9453   4.160   7.327   5.526 -0.2005  0.3810  0.0502
  697loPI   PO4 9454   4.089   6.915   5.947 -0.0260  0.1322 -0.1446
  697loPI   GL1 9455   4.137   6.853   6.302  0.3106 -0.4328  0.0115
  697loPI   GL2 9456   4.443   6.831   6.255 -0.3626 -0.1893 -0.3663
  697loPI   C1A 9457   3.886   6.678   6.591  0.2159 -0.2670  0.0977
  697loPI   C2A 9458   3.811   6.494   6.942  0.0465 -0.3459 -0.0450
  697loPI   C3A 9459   3.998   6.481   7.330 -0.1564 -0.0576 -0.1039
  697loPI   C4A 9460   3.999   6.547   7.732  0.1619 -0.1239 -0.0721
  697loPI   C5A 9461   4.252   6.362   8.065 -0.0533  0.0208 -0.2018
  697loPI   C6A 9462   4.361   6.827   8.071  0.1417 -0.4568 -0.3757
  697loPI   C1B 9463   4.741   6.608   6.465 -0.2165  0.0136 -0.1641
  697loPI   C2B 9464   4.839   6.567   6.903  0.0395 -0.0930 -0.1898
  697loPI   C3B 9465   4.570   6.714   7.195  0.1171 -0.1656  0.1530
  697loPI   C4B 9466   4.339   6.901   7.525 -0.1889 -0.0199  0.2028
  698loPI    C1 9467   8.592   0.519   5.919  0.0350 -0.0953 -0.0836
  698loPI    C2 9468   8.886   0.351   5.705  0.1216 -0.0119 -0.0313
  698loPI    C3 9469   8.632   0.607   5.531 -0.1178 -0.3258 -0.1532
  698loPI   PO4 9470   8.510   0.222   6.041 -0.1426  0.1475  0.0048
  698loPI   GL1 9471   8.435   0.159   6.401  0.1140 -0.1121 -0.3215
  698loPI   GL2 9472   8.230   0.439   6.366  0.1334 -0.2103  0.0874
  698loPI   C1A 9473   8.123   0.074   6.712 -0.0133  0.3311 -0.1954
  698loPI   C2A 9474   7.829   0.144   6.937 -0.2205 -0.0330 -0.1405
  698loPI   C3A 9475   7.500   0.188   7.276  0.0223 -0.1231  0.4182
  698loPI   C4A 9476   7.609  -0.030   7.653 -0.0598 -0.0622 -0.0968
  698loPI   C5A 9477   7.473   0.069   8.079  0.1255 -0.0049 -0.0069
  698loPI   C6A 9478   7.425   0.158   8.404 -0.1007  0.1007 -0.1349
  698loPI   C1B 9479   7.959   0.615   6.661 -0.3284  0.0657  0.1444
  698loPI   C2B 9480   7.694   0.627   7.081  0.1609 -0.2392 -0.2054
  698loPI   C3B 9481   7.760   0.541   7.485 -0.1174  0.0102 -0.3801
  698loPI   C4B 9482   7.828   0.443   7.869 -0.0043  0.3352  0.0196
  699loPI    C1 9483   5.857   9.730   5.831  0.0796  0.1570  0.0333
  699loPI    C2 9484   5.932  10.066   5.628  0.2175  0.0023 -0.1757
  699loPI    C3 9485   5.611  10.044   5.866  0.0931  0.2104 -0.3210
  699loPI   PO4 9486   6.083   9.605   5.919 -0.0325 -0.2872 -0.1503
  699loPI   GL1 9487   6.514   9.554   6.119  0.1989 -0.0798 -0.3528
  699loPI   GL2 9488   6.507   9.852   6.219  0.0384  0.0310 -0.1189
  699loPI   C1A 9489   6.247   9.438   6.516  0.1594 -0.0499 -0.0882
  699loPI   C2A 9490   6.387   9.283   6.966 -0.2035  0.0393 -0.0628
  699loPI   C3A 9491   6.418   9.163   7.374 -0.0849  0.0166 -0.5672
  699loPI   C4A 9492   6.280   8.872   7.670  0.1171  0.0137 -0.1827
  699loPI   C5A 9493   6.437   8.771   8.093  0.2412 -0.1959  0.0555
  699loPI   C6A 9494   6.276   8.877   8.432 -0.0103 -0.0493 -0.1457
  699loPI   C1B 9495   6.570   9.760   6.725 -0.0531 -0.3278  0.0235
  699loPI   C2B 9496   6.673   9.702   7.172 -0.4073  0.2027  0.2200
  699loPI   C3B 9497   6.861   9.694   7.460  0.0732  0.2246  0.0074
  699loPI   C4B 9498   7.159   9.588   7.725 -0.2348 -0.3200  0.0317
  700loPI    C1 9499   1.982  11.078   5.512  0.1743  0.0550 -0.0573
  700loPI    C2 9500   1.809  10.721   5.462  0.0970  0.0889 -0.0337
  700loPI    C3 9501   1.675  11.038   5.258  0.0365  0.1452  0.0927
  700loPI   PO4 9502   2.175  11.008   5.640  0.0160  0.1450 -0.1740
  700loPI   GL1 9503   2.443  10.900   5.971  0.3993  0.2345  0.0711
  700loPI   GL2 9504   2.216  11.141   6.075  0.1208 -0.0570 -0.1161
  700loPI   C1A 9505   2.551  10.944   6.427  0.0472  0.0678 -0.2359
  700loPI   C2A 9506   2.612  10.997   6.797 -0.2102  0.1102  0.3559
  700loPI   C3A 9507   2.542  10.953   7.219 -0.0527  0.0529 -0.1184
  700loPI   C4A 9508   2.318  10.827   7.493 -0.1470  0.1925 -0.1265
  700loPI   C5A 9509   2.157  10.843   7.954 -0.0337 -0.2518  0.1126
  700loPI   C6A 9510   1.828  10.901   8.253 -0.3018  0.1186 -0.1543
  700loPI   C1B 9511   2.123  11.153   6.497 -0.2120 -0.2210  0.3227
  700loPI   C2B 9512   1.775  11.257   6.836  0.2404 -0.0251  0.2468
  700loPI   C3B 9513   1.607  10.989   7.142  0.0911 -0.1866 -0.0357
  700loPI   C4B 9514   1.324  11.023   7.586 -0.0424  0.2444  0.3671
  701loPI    C1 9515   9.084   2.222   5.867 -0.2889  0.1335 -0.1151
  701loPI    C2 9516   9.217   2.356   5.514 -0.0582 -0.0088 -0.0841
  701loPI    C3 9517   9.021   2.008   5.535  0.0433 -0.0650 -0.0552
  701loPI   PO4 9518   9.284   2.376   6.022 -0.3372  0.0808 -0.0534
  701loPI   GL1 9519   9.239   2.637   6.409  0.0591 -0.2068 -0.1479
  701loPI   GL2 9520   9.349   2.262   6.479  0.0607 -0.1778  0.0108
  701loPI   C1A 9521   9.311   2.844   6.730 -0.0518 -0.0337 -0.0567
  701loPI   C2A 9522   9.288   2.892   7.188  0.1112 -0.0681  0.0752
  701loPI   C3A 9523   9.147   2.957   7.632 -0.0473 -0.1323  0.2808
  701loPI   C4A 9524   8.944   3.141   8.007  0.0590 -0.1277  0.3677
  701loPI   C5A 9525   8.944   3.618   8.092 -0.1087  0.0784  0.1239
  701loPI   C6A 9526   8.824   4.059   8.049 -0.0625 -0.2934  0.1228
  701loPI   C1B 9527   9.396   2.409   6.982 -0.0849 -0.1165 -0.2085
  701loPI   C2B 9528   9.143   2.359   7.329 -0.3820 -0.0101 -0.3762
  701loPI   C3B 9529   9.142   2.459   7.786  0.0324 -0.1031  0.3869
  701loPI   C4B 9530   9.264   2.292   8.146 -0.2448  0.0974 -0.0683
  702loPI    C1 9531  12.701  12.282   6.027 -0.1003 -0.0199 -0.1129
  702loPI    C2 9532  12.381  12.359   6.255  0.0184 -0.2179  0.1258
  702loPI    C3 9533  12.378  12.455   5.866 -0.2994 -0.1469  0.1432
  702loPI   PO4 9534  12.724  12.025   6.081 -0.1886 -0.2409 -0.1676
  702loPI   GL1 9535  13.037  11.900   6.518  0.2502  0.0624  0.1612
  702loPI   GL2 9536  13.259  12.247   6.569  0.1291 -0.1883  0.0669
  702loPI   C1A 9537  12.963  11.563   6.845  0.0090 -0.0061  0.1259
  702loPI   C2A 9538  12.797  11.306   7.040  0.1327  0.2515  0.1797
  702loPI   C3A 9539  12.491  11.305   7.488  0.2902 -0.0166 -0.2706
  702loPI   C4A 9540  12.542  11.388   7.934 -0.1959 -0.0488 -0.1013
  702loPI   C5A 9541  12.688  11.491   8.330  0.0842  0.0461 -0.2010
  702loPI   C6A 9542  12.604  11.602   8.707 -0.1793 -0.3589 -0.0634
  702loPI   C1B 9543  13.132  12.152   6.949  0.1284 -0.0170 -0.0036
  702loPI   C2B 9544  13.096  12.230   7.453 -0.0104  0.1998 -0.0599
  702loPI   C3B 9545  13.144  12.305   7.786 -0.0376  0.0906  0.1258
  702loPI   C4B 9546  13.339  12.206   8.103 -0.0152  0.0739 -0.1534
  703loPI    C1 9547   4.339   3.032   5.575  0.2374  0.1820  0.1402
  703loPI    C2 9548   4.663   2.836   5.446 -0.0556 -0.1164 -0.1601
  703loPI    C3 9549   4.492   3.113   5.214  0.1966  0.3116  0.1515
  703loPI   PO4 9550   4.232   2.930   5.742 -0.1005  0.2777  0.0429
  703loPI   GL1 9551   4.395   2.883   6.100  0.0067  0.0199  0.1539
  703loPI   GL2 9552   4.481   3.107   6.190  0.0035 -0.1250 -0.1568
  703loPI   C1A 9553   4.556   2.656   6.499  0.2251 -0.0426 -0.1247
  703loPI   C2A 9554   4.392   2.754   6.927 -0.1600  0.0703  0.3300
  703loPI   C3A 9555   4.330   2.693   7.268 -0.0744 -0.0408 -0.1568
  703loPI   C4A 9556   4.476   2.545   7.650  0.0576  0.1205 -0.0253
  703loPI   C5A 9557   4.236   2.353   8.036  0.0758 -0.2300  0.0335
  703loPI   C6A 9558   3.988   2.114   8.212 -0.0606  0.0392 -0.1301
  703loPI   C1B 9559   4.612   3.180   6.610  0.0744 -0.0535 -0.0686
  703loPI   C2B 9560   4.660   3.202   7.011 -0.0139  0.0927  0.0083
  703loPI   C3B 9561   4.476   3.121   7.485 -0.1342  0.1385  0.1207
  703loPI   C4B 9562   4.344   3.086   7.914  0.1146  0.0985 -0.1958
  704loPI    C1 9563  10.466  11.262   6.164  0.0295 -0.1497  0.2058
  704loPI    C2 9564  10.522  11.357   5.779 -0.1489  0.0122  0.2183
  704loPI    C3 9565  10.669  11.592   6.066  0.1220 -0.1929  0.2513
  704loPI   PO4 9566  10.202  11.206   6.118 -0.2370  0.1228  0.0971
  704loPI   GL1 9567   9.892  11.100   6.438 -0.1230 -0.0075  0.0087
  704loPI   GL2 9568  10.184  11.175   6.599  0.2464  0.0925 -0.1204
  704loPI   C1A 9569   9.703  11.039   6.787 -0.1782 -0.3355  0.0269
  704loPI   C2A 9570   9.742  10.922   7.185 -0.0259 -0.1110  0.2372
  704loPI   C3A 9571   9.798  10.938   7.635 -0.0669 -0.0650 -0.0883
  704loPI   C4A 9572   9.632  10.916   8.082 -0.1608  0.2008 -0.2459
  704loPI   C5A 9573   9.499  10.487   8.201  0.2358 -0.1911  0.3263
  704loPI   C6A 9574   9.449  10.176   7.869 -0.0223  0.1109  0.0309
  704loPI   C1B 9575  10.154  10.874   6.867 -0.2328  0.1966  0.2679
  704loPI   C2B 9576  10.244  10.953   7.302 -0.1134 -0.0664 -0.0240
  704loPI   C3B 9577  10.223  11.004   7.845  0.3752 -0.1313 -0.2534
  704loPI   C4B 9578  10.124  10.751   8.203 -0.1263 -0.0096 -0.0897
  705loPI    C1 9579   4.321  17.196   5.808 -0.2095  0.2324 -0.1671
  705loPI    C2 9580   4.437  17.074   5.445 -0.1154  0.0081 -0.0638
  705loPI    C3 9581   4.136  17.335   5.482  0.1589  0.3717 -0.3223
  705loPI   PO4 9582   4.492  17.283   5.972  0.4732 -0.1735 -0.0535
  705loPI   GL1 9583   4.625  17.339   6.369 -0.0957  0.2928 -0.0023
  705loPI   GL2 9584   4.363  17.154   6.476 -0.3356  0.1274  0.0763
  705loPI   C1A 9585   4.508  17.599   6.551  0.1509 -0.2556 -0.4119
  705loPI   C2A 9586   4.312  17.576   6.945 -0.0400  0.0141  0.3603
  705loPI   C3A 9587   4.337  17.573   7.230 -0.0083  0.1244 -0.0974
  705loPI   C4A 9588   4.291  17.493   7.551  0.2149  0.0288  0.2058
  705loPI   C5A 9589   4.256  17.384   7.883  0.1270 -0.0761  0.1276
  705loPI   C6A 9590   4.181  17.340   8.305  0.2284  0.2505  0.0553
  705loPI   C1B 9591   4.577  17.175   6.954  0.6109 -0.2356  0.2122
  705loPI   C2B 9592   4.626  17.097   7.396  0.0383  0.2340  0.2514
  705loPI   C3B 9593   4.760  17.185   7.759  0.3085  0.0322 -0.0889
  705loPI   C4B 9594   4.731  17.295   8.240  0.1354  0.3467 -0.1504
  706loPI    C1 9595  14.690   8.762   5.664  0.0764 -0.3462 -0.0613
  706loPI    C2 9596  14.326   8.628   5.566 -0.1038  0.0620  0.0266
  706loPI    C3 9597  14.457   8.977   5.421  0.2635 -0.0888 -0.0178
  706loPI   PO4 9598  14.711   8.752   5.888  0.1509 -0.0234  0.0485
  706loPI   GL1 9599  14.606   9.172   6.163  0.2981 -0.0826  0.3516
  706loPI   GL2 9600  14.325   8.902   6.196  0.1448  0.4536 -0.0720
  706loPI   C1A 9601  14.647   9.245   6.620  0.0713 -0.0235  0.0673
  706loPI   C2A 9602  14.457   9.402   6.926 -0.0652  0.0584 -0.0502
  706loPI   C3A 9603  14.314   9.282   7.327 -0.2453  0.1080 -0.1172
  706loPI   C4A 9604  14.488   9.086   7.671  0.1686  0.1950  0.0421
  706loPI   C5A 9605  14.576   9.325   8.058 -0.2504  0.1060 -0.1630
  706loPI   C6A 9606  14.687   9.313   8.438 -0.2044  0.0053  0.1591
  706loPI   C1B 9607  14.598   8.674   6.606 -0.2678  0.1082  0.3744
  706loPI   C2B 9608  14.766   8.536   6.931  0.0057  0.2257 -0.0248
  706loPI   C3B 9609  15.069   8.666   7.209 -0.0639 -0.0301  0.0028
  706loPI   C4B 9610  15.078   8.769   7.544 -0.1966  0.0612  0.0296
  707loPI    C1 9611  16.569   6.186   5.406  0.0823  0.0051  0.0838
  707loPI    C2 9612  16.889   6.419   5.460 -0.0240  0.1774 -0.0195
  707loPI    C3 9613  16.864   6.186   5.136 -0.1429  0.3987 -0.1718
  707loPI   PO4 9614  16.584   6.088   5.714 -0.1447  0.1108  0.0779
  707loPI   GL1 9615  16.787   5.834   5.950 -0.3002  0.0834 -0.3894
  707loPI   GL2 9616  16.470   5.708   6.029  0.0465 -0.0085 -0.1586
  707loPI   C1A 9617  16.846   5.622   6.300  0.1546  0.3305  0.0271
  707loPI   C2A 9618  16.853   5.573   6.643 -0.1447  0.0112 -0.0697
  707loPI   C3A 9619  16.841   5.635   7.125  0.0108  0.0784  0.1166
  707loPI   C4A 9620  16.712   5.730   7.514 -0.1514  0.3292 -0.2686
  707loPI   C5A 9621  16.939   5.505   7.865  0.1341  0.0141  0.0578
  707loPI   C6A 9622  16.899   5.347   8.300 -0.2574  0.0589  0.3854
  707loPI   C1B 9623  16.286   5.588   6.424  0.1823 -0.0418 -0.2777
  707loPI   C2B 9624  16.419   5.542   6.854  0.1530  0.0081 -0.0441
  707loPI   C3B 9625  16.347   5.457   7.249  0.1409 -0.0105  0.2974
  707loPI   C4B 9626  16.180   5.382   7.642 -0.1004 -0.1146 -0.2011
  708loPI    C1 9627  13.789   6.921   5.702 -0.2416 -0.0795  0.0672
  708loPI    C2 9628  14.020   6.910   5.376 -0.0958  0.2310  0.1569
  708loPI    C3 9629  14.039   6.615   5.644  0.0532  0.1572  0.0663
  708loPI   PO4 9630  13.715   7.187   5.667 -0.0331 -0.2949  0.1796
  708loPI   GL1 9631  13.561   7.416   5.942 -0.0048  0.0232 -0.0510
  708loPI   GL2 9632  13.588   7.070   6.137 -0.0015  0.0497 -0.2062
  708loPI   C1A 9633  13.513   7.530   6.336 -0.1487 -0.1414 -0.1013
  708loPI   C2A 9634  13.531   7.733   6.684 -0.0154  0.1200 -0.1657
  708loPI   C3A 9635  13.762   7.838   7.059 -0.2464  0.0884  0.0880
  708loPI   C4A 9636  13.884   8.171   7.240  0.1317 -0.1356 -0.0145
  708loPI   C5A 9637  13.934   8.612   7.087 -0.2243 -0.1088 -0.1768
  708loPI   C6A 9638  13.745   8.693   6.713 -0.3213 -0.2355 -0.0900
  708loPI   C1B 9639  13.757   6.943   6.573 -0.1097 -0.1333  0.0480
  708loPI   C2B 9640  13.771   6.862   7.025 -0.2173 -0.1100  0.1360
  708loPI   C3B 9641  13.975   6.941   7.396 -0.0693  0.0488 -0.1565
  708loPI   C4B 9642  14.011   6.863   7.830  0.1429 -0.1504  0.2863
  709loPI    C1 9643   4.234   3.962   5.669 -0.0340  0.1767 -0.3015
  709loPI    C2 9644   4.308   3.637   5.448  0.1598 -0.0300  0.0589
  709loPI    C3 9645   4.515   3.973   5.385  0.1222 -0.0463 -0.1586
  709loPI   PO4 9646   4.180   3.910   5.997 -0.0224 -0.0808 -0.1374
  709loPI   GL1 9647   3.772   4.000   6.265  0.2268  0.2677  0.0270
  709loPI   GL2 9648   3.673   4.177   6.339  0.0881 -0.1012 -0.0188
  709loPI   C1A 9649   3.997   3.813   6.650  0.1680 -0.0572 -0.1141
  709loPI   C2A 9650   3.971   3.802   7.139 -0.1880  0.0895  0.0482
  709loPI   C3A 9651   3.843   3.791   7.531 -0.1330  0.1035 -0.0130
  709loPI   C4A 9652   3.907   3.890   7.827  0.0684 -0.1195 -0.0926
  709loPI   C5A 9653   3.790   3.881   8.198  0.0268  0.1821 -0.2577
  709loPI   C6A 9654   3.670   3.675   8.514  0.2586 -0.2824  0.0732
  709loPI   C1B 9655   3.651   4.071   6.801 -0.4360  0.0203  0.0362
  709loPI   C2B 9656   3.457   4.024   7.261 -0.0044 -0.0799  0.2788
  709loPI   C3B 9657   3.412   4.000   7.747 -0.6851 -0.1022  0.0917
  709loPI   C4B 9658   3.302   4.100   8.206 -0.1970  0.0304  0.1293
  710loPI    C1 9659  16.624  15.034   5.789 -0.0782  0.3809  0.0694
  710loPI    C2 9660  16.225  15.016   5.789 -0.0730  0.2469  0.0322
  710loPI    C3 9661  16.418  15.185   5.481 -0.1091  0.5448  0.1695
  710loPI   PO4 9662  16.721  15.064   5.988 -0.0353  0.2243  0.1583
  710loPI   GL1 9663  16.693  15.258   6.353  0.5764  0.1053 -0.1613
  710loPI   GL2 9664  16.334  15.205   6.347 -0.1363 -0.1320 -0.2443
  710loPI   C1A 9665  16.524  15.263   6.812  0.1275 -0.0095  0.1023
  710loPI   C2A 9666  16.465  15.586   6.978  0.1781  0.0609 -0.0366
  710loPI   C3A 9667  16.380  15.895   7.258 -0.0960 -0.0155  0.2119
  710loPI   C4A 9668  16.280  15.854   7.705 -0.0945  0.1506  0.0351
  710loPI   C5A 9669  16.313  16.222   7.985 -0.1494  0.1278 -0.1381
  710loPI   C6A 9670  16.360  16.726   7.974  0.0208 -0.1166 -0.1310
  710loPI   C1B 9671  15.997  15.203   6.710  0.3966 -0.2615 -0.0228
  710loPI   C2B 9672  16.038  14.990   7.110  0.1499  0.3073 -0.2449
  710loPI   C3B 9673  15.692  14.851   7.240 -0.2353  0.2587 -0.0665
  710loPI   C4B 9674  15.321  14.861   7.320 -0.0087 -0.8350  0.0935
  711loPI    C1 9675  14.905  14.935   5.716 -0.1075 -0.1276  0.0781
  711loPI    C2 9676  15.215  14.701   5.620  0.0571  0.1027  0.0383
  711loPI    C3 9677  15.069  14.959   5.352 -0.1767 -0.0106  0.0543
  711loPI   PO4 9678  14.959  14.895   6.010 -0.2692  0.0455  0.2244
  711loPI   GL1 9679  15.043  15.034   6.426 -0.0345 -0.0511  0.0641
  711loPI   GL2 9680  15.280  14.935   6.421 -0.0416 -0.3182 -0.0424
  711loPI   C1A 9681  14.826  15.081   6.760 -0.1612  0.3130 -0.0422
  711loPI   C2A 9682  14.475  15.003   7.057 -0.0020  0.1500 -0.0394
  711loPI   C3A 9683  14.409  14.857   7.458 -0.0377 -0.0188 -0.0613
  711loPI   C4A 9684  14.559  14.567   7.881  0.2943  0.0478 -0.0109
  711loPI   C5A 9685  14.791  14.285   8.145 -0.1387 -0.2994  0.1427
  711loPI   C6A 9686  15.261  14.295   8.291 -0.0163 -0.1456 -0.0744
  711loPI   C1B 9687  15.361  15.027   6.810  0.0413 -0.0811  0.0429
  711loPI   C2B 9688  15.595  15.337   7.004 -0.1734  0.3223 -0.4236
  711loPI   C3B 9689  15.647  15.308   7.491  0.0585  0.0604 -0.0991
  711loPI   C4B 9690  15.517  15.650   7.820 -0.1312  0.3724  0.0367
  712loPI    C1 9691   9.462  17.391   5.559  0.1601 -0.0533 -0.1660
  712loPI    C2 9692   9.281  17.445   5.206  0.0004  0.0500 -0.0693
  712loPI    C3 9693   9.456  17.095   5.289 -0.0515 -0.0102 -0.2103
  712loPI   PO4 9694   9.218  17.417   5.786 -0.0841  0.1475  0.0027
  712loPI   GL1 9695   9.430  17.348   6.181 -0.0122  0.2585 -0.0085
  712loPI   GL2 9696   9.121  17.186   6.220 -0.2716  0.0403 -0.1183
  712loPI   C1A 9697   9.677  17.512   6.553 -0.4051 -0.1428  0.1685
  712loPI   C2A 9698   9.675  17.527   6.959 -0.0509 -0.1319 -0.1398
  712loPI   C3A 9699   9.525  17.452   7.390  0.0025 -0.2593  0.2101
  712loPI   C4A 9700   9.309  17.355   7.724 -0.0964  0.0080 -0.1378
  712loPI   C5A 9701   8.994  17.028   7.932  0.2482  0.2424 -0.1444
  712loPI   C6A 9702   9.034  16.929   8.331  0.3085  0.0381 -0.1197
  712loPI   C1B 9703   9.131  16.960   6.486  0.0448  0.1651 -0.0220
  712loPI   C2B 9704   9.045  17.067   6.862 -0.0678 -0.0037  0.0453
  712loPI   C3B 9705   9.084  17.176   7.279 -0.1999  0.0842 -0.1018
  712loPI   C4B 9706   8.748  17.226   7.490 -0.2153 -0.1529 -0.0412
  713loPI    C1 9707  14.604   6.130   5.784 -0.0869 -0.1132 -0.0094
  713loPI    C2 9708  14.410   5.904   6.051  0.0722 -0.0915  0.1261
  713loPI    C3 9709  14.351   5.846   5.660 -0.0666 -0.2083  0.1633
  713loPI   PO4 9710  14.813   6.173   5.918  0.0747  0.0819 -0.0571
  713loPI   GL1 9711  14.880   6.165   6.377 -0.2633 -0.1362  0.3022
  713loPI   GL2 9712  14.518   6.194   6.448  0.0756  0.0975  0.0879
  713loPI   C1A 9713  14.877   5.971   6.710 -0.0642 -0.0036 -0.1262
  713loPI   C2A 9714  14.821   5.834   7.146 -0.2459 -0.1551 -0.0360
  713loPI   C3A 9715  14.784   5.824   7.494 -0.0201 -0.1086  0.0848
  713loPI   C4A 9716  14.937   5.950   7.796 -0.2664  0.1228  0.1601
  713loPI   C5A 9717  15.049   5.919   8.205  0.0962  0.0141  0.0751
  713loPI   C6A 9718  15.185   6.157   8.590  0.3090 -0.1592 -0.0751
  713loPI   C1B 9719  14.506   6.183   6.916 -0.1187 -0.0245 -0.2478
  713loPI   C2B 9720  14.458   6.183   7.310  0.1723  0.2155 -0.2636
  713loPI   C3B 9721  14.461   6.221   7.849 -0.3252  0.2665  0.1149
  713loPI   C4B 9722  14.490   5.814   8.082 -0.0810  0.0195  0.4718
  714loPI    C1 9723   9.256  15.284   5.617  0.0748  0.0099 -0.0726
  714loPI    C2 9724   9.406  14.950   5.456 -0.0097 -0.0400 -0.0484
  714loPI    C3 9725   9.121  15.154   5.264  0.0383  0.0159 -0.0608
  714loPI   PO4 9726   9.150  15.305   5.880  0.5086  0.0661  0.1293
  714loPI   GL1 9727   9.384  15.351   6.193 -0.1804 -0.0627 -0.0571
  714loPI   GL2 9728   9.548  15.627   6.245  0.2066 -0.1246 -0.1547
  714loPI   C1A 9729   9.099  15.537   6.450 -0.0792  0.0007 -0.1148
  714loPI   C2A 9730   8.885  15.712   6.887  0.1650 -0.1043  0.0201
  714loPI   C3A 9731   8.907  15.712   7.347 -0.1779  0.0570  0.1363
  714loPI   C4A 9732   8.933  15.837   7.838 -0.1167 -0.0368 -0.1640
  714loPI   C5A 9733   8.729  15.853   8.246  0.0814 -0.0172 -0.1009
  714loPI   C6A 9734   8.565  16.042   8.635 -0.2252  0.1794  0.5250
  714loPI   C1B 9735   9.580  15.543   6.748 -0.1812 -0.0747  0.1671
  714loPI   C2B 9736   9.389  15.621   7.113 -0.0240 -0.0476  0.4408
  714loPI   C3B 9737   9.342  15.673   7.625 -0.1280  0.2342 -0.0650
  714loPI   C4B 9738   9.370  15.610   8.008 -0.0329  0.2399 -0.1524
  715loPI    C1 9739   0.943  17.778   5.821  0.0512 -0.1200 -0.0467
  715loPI    C2 9740   1.114  17.492   5.599  0.0912 -0.0590 -0.0950
  715loPI    C3 9741   0.890  17.774   5.424 -0.0197 -0.1107 -0.0374
  715loPI   PO4 9742   0.847  17.657   5.999  0.1524 -0.1793 -0.0471
  715loPI   GL1 9743   0.821  17.740   6.368 -0.1058  0.0089  0.5534
  715loPI   GL2 9744   1.031  17.536   6.452 -0.4418 -0.0452  0.3229
  715loPI   C1A 9745   0.596  17.785   6.725  0.2763 -0.1481  0.1275
  715loPI   C2A 9746   0.515  17.864   7.063  0.1035  0.0090  0.1065
  715loPI   C3A 9747   0.354  17.837   7.460 -0.0560  0.0703 -0.0083
  715loPI   C4A 9748   0.268  18.117   7.741  0.2643 -0.1049  0.0099
  715loPI   C5A 9749  -0.051  18.480   7.945  0.1755  0.0418  0.1249
  715loPI   C6A 9750  -0.501  18.485   8.105 -0.0825  0.1786 -0.0175
  715loPI   C1B 9751   1.106  17.621   6.833  0.0568  0.0928 -0.0648
  715loPI   C2B 9752   0.994  18.009   7.175 -0.1045  0.0157 -0.0992
  715loPI   C3B 9753   0.823  18.132   7.628 -0.1911  0.1247 -0.0181
  715loPI   C4B 9754   0.575  17.932   8.020  0.1436  0.4023  0.1976
  716loPI    C1 9755   0.582  14.676   5.839  0.2513  0.0636 -0.0219
  716loPI    C2 9756   0.403  15.019   5.739 -0.0202 -0.1353 -0.2357
  716loPI    C3 9757   0.778  14.947   5.620  0.0758  0.1267 -0.1025
  716loPI   PO4 9758   0.575  14.677   6.096  0.2570 -0.2142 -0.2998
  716loPI   GL1 9759   0.331  14.943   6.309  0.3343  0.0537 -0.2848
  716loPI   GL2 9760   0.449  15.232   6.264  0.0812 -0.2225 -0.0744
  716loPI   C1A 9761   0.205  14.748   6.693  0.3114 -0.2153 -0.0410
  716loPI   C2A 9762   0.086  14.664   7.002  0.1317 -0.1253 -0.1289
  716loPI   C3A 9763  -0.122  14.630   7.434 -0.0712 -0.0861 -0.0207
  716loPI   C4A 9764  -0.140  14.457   7.799  0.4295 -0.0722  0.1972
  716loPI   C5A 9765   0.002  14.182   8.110  0.1228  0.0583  0.0817
  716loPI   C6A 9766   0.053  13.792   8.155 -0.0516 -0.2590  0.1618
  716loPI   C1B 9767   0.597  15.150   6.704  0.2132 -0.1570 -0.1551
  716loPI   C2B 9768   0.610  14.818   7.130  0.0887  0.0632 -0.2214
  716loPI   C3B 9769   0.772  14.803   7.561 -0.0192 -0.0373  0.0528
  716loPI   C4B 9770   0.875  14.593   7.975  0.1609  0.2660  0.0210
  717loPI    C1 9771   0.435  16.081   5.935 -0.1143  0.2037  0.0849
  717loPI    C2 9772   0.782  16.065   5.736 -0.1993 -0.0979 -0.0465
  717loPI    C3 9773   0.523  16.362   5.664 -0.0413  0.0362 -0.0679
  717loPI   PO4 9774   0.424  16.148   6.163 -0.0911  0.2718 -0.4482
  717loPI   GL1 9775   0.471  16.267   6.525  0.1670 -0.0605  0.0333
  717loPI   GL2 9776   0.287  16.436   6.620  0.2426 -0.1759  0.2278
  717loPI   C1A 9777   0.600  16.069   6.939 -0.1084 -0.2342 -0.1861
  717loPI   C2A 9778   0.859  16.220   7.207 -0.4432 -0.1297  0.1068
  717loPI   C3A 9779   0.855  16.376   7.565  0.0537 -0.3468 -0.1852
  717loPI   C4A 9780   0.833  16.357   7.945 -0.1645 -0.0330  0.2332
  717loPI   C5A 9781   0.684  16.490   8.304 -0.2674 -0.0906  0.0423
  717loPI   C6A 9782   0.654  16.717   8.636  0.2390 -0.0045  0.3140
  717loPI   C1B 9783   0.114  16.400   7.022  0.1814  0.4032  0.2067
  717loPI   C2B 9784   0.241  16.262   7.368 -0.0095  0.0226 -0.3437
  717loPI   C3B 9785   0.338  16.164   7.762  0.1799  0.0346 -0.0670
  717loPI   C4B 9786   0.298  15.751   7.977 -0.1683 -0.1166 -0.1595
  718loPI    C1 9787   6.407  11.483   5.395  0.2533  0.0294  0.0694
  718loPI    C2 9788   6.704  11.487   5.127  0.3055 -0.4134  0.1143
  718loPI    C3 9789   6.537  11.140   5.236 -0.2027 -0.1758  0.1227
  718loPI   PO4 9790   6.481  11.755   5.692 -0.0981 -0.1002 -0.1436
  718loPI   GL1 9791   6.768  11.809   6.040 -0.1400 -0.1283  0.0592
  718loPI   GL2 9792   7.079  11.537   6.019  0.1153  0.1980 -0.0840
  718loPI   C1A 9793   6.776  11.767   6.395 -0.1265  0.0269  0.1172
  718loPI   C2A 9794   6.882  11.638   6.813  0.0841 -0.1794 -0.0816
  718loPI   C3A 9795   6.919  11.672   7.289 -0.1282 -0.0595  0.3474
  718loPI   C4A 9796   6.660  11.545   7.590  0.1308  0.1531  0.3319
  718loPI   C5A 9797   6.529  11.416   7.968  0.0537 -0.1568 -0.0767
  718loPI   C6A 9798   6.386  11.617   8.310  0.0191 -0.3259  0.0969
  718loPI   C1B 9799   7.249  11.462   6.492  0.0695 -0.3451  0.2517
  718loPI   C2B 9800   7.498  11.689   6.761 -0.1984  0.0636  0.0003
  718loPI   C3B 9801   7.398  11.598   7.171  0.0224  0.1074  0.3536
  718loPI   C4B 9802   7.472  11.478   7.611 -0.1084  0.0383  0.1433
  719loPI    C1 9803   9.977   2.853   5.629 -0.0052 -0.0787 -0.0971
  719loPI    C2 9804  10.096   3.224   5.541  0.3058 -0.0859  0.2703
  719loPI    C3 9805  10.234   2.914   5.329  0.0108  0.0062 -0.0662
  719loPI   PO4 9806   9.976   2.798   5.886  0.6075  0.1297  0.0091
  719loPI   GL1 9807   9.708   2.637   6.194  0.1342 -0.1161  0.0393
  719loPI   GL2 9808   9.756   2.931   6.281 -0.3649  0.0900 -0.0107
  719loPI   C1A 9809   9.879   2.453   6.527 -0.0347 -0.0316 -0.0338
  719loPI   C2A 9810   9.930   2.428   6.931  0.2008 -0.2607 -0.0976
  719loPI   C3A 9811   9.787   2.319   7.287 -0.3055  0.0224  0.0115
  719loPI   C4A 9812   9.757   2.246   7.716 -0.0302  0.3372  0.1204
  719loPI   C5A 9813   9.727   2.106   8.139  0.1543 -0.1221 -0.0717
  719loPI   C6A 9814   9.764   2.443   8.252  0.0561 -0.0741 -0.2139
  719loPI   C1B 9815   9.792   2.978   6.774 -0.0395  0.3006  0.2926
  719loPI   C2B 9816   9.807   2.982   7.206 -0.0529  0.0818  0.0103
  719loPI   C3B 9817   9.591   3.119   7.570 -0.3484  0.1935  0.4059
  719loPI   C4B 9818   9.789   3.199   7.981 -0.2821  0.0322 -0.2211
  720loPI    C1 9819  16.846  12.838   6.000  0.0385 -0.0627 -0.1498
  720loPI    C2 9820  16.741  13.123   5.740  0.4429 -0.0942 -0.3560
  720loPI    C3 9821  16.749  12.740   5.625 -0.2970 -0.2260 -0.0239
  720loPI   PO4 9822  16.590  12.735   6.179 -0.0449  0.2369  0.0651
  720loPI   GL1 9823  16.434  12.715   6.556 -0.2630 -0.1542  0.1348
  720loPI   GL2 9824  16.625  12.960   6.606  0.1658  0.2618 -0.1606
  720loPI   C1A 9825  16.023  12.444   6.817 -0.2987  0.2121 -0.2480
  720loPI   C2A 9826  15.856  12.441   7.232  0.1121  0.0749  0.0024
  720loPI   C3A 9827  15.821  12.605   7.566  0.0654  0.0271 -0.1637
  720loPI   C4A 9828  15.559  12.404   7.825  0.0241  0.1540 -0.0812
  720loPI   C5A 9829  15.545  12.316   8.289  0.2422 -0.0080  0.1925
  720loPI   C6A 9830  15.700  12.015   8.538  0.0637 -0.0395 -0.0261
  720loPI   C1B 9831  16.485  12.718   7.018 -0.0952  0.0156  0.1106
  720loPI   C2B 9832  16.564  12.726   7.458 -0.0766 -0.4111  0.0084
  720loPI   C3B 9833  16.459  12.906   7.893 -0.1976 -0.1198  0.1568
  720loPI   C4B 9834  16.167  13.036   8.268  0.0267  0.0880  0.0655
  721loPI    C1 9835   8.388   2.267   5.887  0.0215 -0.2586 -0.1688
  721loPI    C2 9836   8.675   2.391   5.638 -0.1011  0.0621 -0.1554
  721loPI    C3 9837   8.291   2.409   5.526 -0.1366 -0.0817 -0.0591
  721loPI   PO4 9838   8.314   2.378   6.138  0.2944  0.3145  0.0767
  721loPI   GL1 9839   8.482   2.345   6.462 -0.3267 -0.1863  0.0445
  721loPI   GL2 9840   8.457   2.663   6.595  0.0913 -0.1955 -0.1004
  721loPI   C1A 9841   8.314   2.282   6.932 -0.0983 -0.0918  0.1705
  721loPI   C2A 9842   8.208   1.992   7.324 -0.0994 -0.1942 -0.0852
  721loPI   C3A 9843   8.176   2.041   7.668 -0.2378  0.2264  0.0727
  721loPI   C4A 9844   8.268   1.889   8.123  0.0838 -0.1649  0.1643
  721loPI   C5A 9845   8.054   2.072   8.502  0.0901  0.1206 -0.2726
  721loPI   C6A 9846   7.757   2.429   8.572 -0.1254 -0.1082  0.0263
  721loPI   C1B 9847   8.365   2.761   6.977  0.3535  0.1777  0.3320
  721loPI   C2B 9848   8.301   2.922   7.264  0.2064  0.0511 -0.2131
  721loPI   C3B 9849   8.292   2.549   7.614  0.2476  0.0021 -0.1131
  721loPI   C4B 9850   8.273   2.456   8.161 -0.2764 -0.0347  0.0475
  722loPI    C1 9851  17.468  10.389   5.557 -0.1710  0.0309 -0.0333
  722loPI    C2 9852  17.112  10.294   5.715 -0.0774 -0.1229  0.0894
  722loPI    C3 9853  17.226  10.133   5.367 -0.1162 -0.0935  0.0628
  722loPI   PO4 9854  17.678  10.425   5.848 -0.0423  0.1466 -0.0698
  722loPI   GL1 9855  17.670  10.491   6.303  0.2811 -0.0191  0.0487
  722loPI   GL2 9856  17.240  10.536   6.398  0.1970  0.2028 -0.0864
  722loPI   C1A 9857  17.699  10.582   6.732  0.1618  0.0695 -0.3217
  722loPI   C2A 9858  17.513  10.436   7.089 -0.0987 -0.1437 -0.1392
  722loPI   C3A 9859  17.591  10.453   7.468  0.0765  0.0915 -0.0202
  722loPI   C4A 9860  17.532  10.644   7.836  0.3154 -0.3194  0.0627
  722loPI   C5A 9861  17.197  10.636   8.149  0.0056 -0.0991 -0.0363
  722loPI   C6A 9862  16.949  10.678   8.479 -0.2208  0.0773  0.2984
  722loPI   C1B 9863  17.271  10.187   6.731  0.0251  0.0615  0.1604
  722loPI   C2B 9864  17.184  10.044   7.128 -0.3672 -0.2796 -0.0389
  722loPI   C3B 9865  17.174   9.982   7.517  0.0573 -0.1364  0.0284
  722loPI   C4B 9866  17.380  10.148   7.855  0.0547  0.3373  0.1879
  723loPI    C1 9867  17.389  14.447   5.579  0.1494  0.3299 -0.3498
  723loPI    C2 9868  17.423  14.069   5.452 -0.0004  0.2036 -0.0269
  723loPI    C3 9869  17.224  14.337   5.231 -0.2440 -0.0066 -0.0674
  723loPI   PO4 9870  17.338  14.356   5.896  0.1229  0.0038 -0.3744
  723loPI   GL1 9871  17.493  14.543   6.230 -0.0409  0.5535  0.2605
  723loPI   GL2 9872  17.661  14.282   6.460  0.1167  0.0138  0.2243
  723loPI   C1A 9873  17.236  14.651   6.650 -0.2399  0.3963  0.1305
  723loPI   C2A 9874  17.193  14.774   7.084  0.2117  0.1757 -0.2933
  723loPI   C3A 9875  17.428  14.930   7.464  0.2207 -0.2737 -0.0811
  723loPI   C4A 9876  17.312  14.967   7.847 -0.1973 -0.0010  0.2735
  723loPI   C5A 9877  17.370  14.943   8.393 -0.0370 -0.1017  0.3164
  723loPI   C6A 9878  17.342  14.642   8.666 -0.1708  0.0820  0.1321
  723loPI   C1B 9879  17.569  14.169   6.832 -0.0953  0.0197 -0.0957
  723loPI   C2B 9880  17.413  13.888   7.130 -0.1473  0.0185  0.2150
  723loPI   C3B 9881  17.184  13.912   7.481 -0.0380  0.4313  0.1828
  723loPI   C4B 9882  17.038  14.138   7.788  0.1112  0.1276  0.3100
  724loPI    C1 9883   3.157   4.044   5.587 -0.1677  0.0402 -0.0201
  724loPI    C2 9884   3.274   4.200   5.237  0.0466 -0.0924 -0.0096
  724loPI    C3 9885   3.376   3.825   5.333 -0.1449 -0.1108  0.1282
  724loPI   PO4 9886   3.194   4.100   5.836  0.0396 -0.2298 -0.3351
  724loPI   GL1 9887   3.190   3.933   6.337  0.0421  0.2219  0.1355
  724loPI   GL2 9888   2.822   3.979   6.159 -0.0984  0.0928 -0.1569
  724loPI   C1A 9889   3.139   3.893   6.796  0.0157 -0.0123 -0.2831
  724loPI   C2A 9890   3.003   3.830   7.272  0.0982 -0.1621  0.3044
  724loPI   C3A 9891   2.952   3.825   7.677  0.3275 -0.1417 -0.0517
  724loPI   C4A 9892   2.920   3.827   8.098 -0.0166  0.0118 -0.1924
  724loPI   C5A 9893   2.784   3.798   8.585 -0.0352  0.0373  0.1341
  724loPI   C6A 9894   2.592   3.735   8.943 -0.0420 -0.2396  0.3026
  724loPI   C1B 9895   2.704   3.674   6.521 -0.0836  0.1194 -0.1420
  724loPI   C2B 9896   2.645   3.575   6.891  0.0850 -0.1506 -0.1098
  724loPI   C3B 9897   2.590   3.546   7.390 -0.0002  0.1295 -0.0886
  724loPI   C4B 9898   2.396   3.637   7.820  0.2021  0.1555 -0.1071
  725loPI    C1 9899   3.563   5.758   5.662  0.2646  0.2160  0.1971
  725loPI    C2 9900   3.922   5.867   5.525  0.1996  0.0675 -0.1004
  725loPI    C3 9901   3.864   5.495   5.658  0.1933  0.1357  0.0925
  725loPI   PO4 9902   3.550   5.991   5.843  0.1138 -0.1145 -0.0740
  725loPI   GL1 9903   3.648   6.097   6.313  0.3280 -0.5264 -0.0588
  725loPI   GL2 9904   3.337   6.032   6.280 -0.3164  0.0617  0.1838
  725loPI   C1A 9905   3.649   6.134   6.658  0.2832  0.0509  0.2853
  725loPI   C2A 9906   3.520   6.115   7.078  0.2470  0.1187 -0.1090
  725loPI   C3A 9907   3.472   6.096   7.602 -0.1352 -0.2377 -0.1616
  725loPI   C4A 9908   3.624   6.344   8.024 -0.0880  0.2578 -0.0125
  725loPI   C5A 9909   3.860   6.649   8.305  0.3023 -0.2466 -0.2054
  725loPI   C6A 9910   3.958   6.934   8.512  0.1420 -0.1992  0.0703
  725loPI   C1B 9911   3.103   5.974   6.710 -0.0602  0.0565 -0.0365
  725loPI   C2B 9912   3.084   5.852   7.252 -0.1037  0.2902 -0.3180
  725loPI   C3B 9913   3.006   5.931   7.697  0.0278  0.0377  0.0779
  725loPI   C4B 9914   3.032   6.253   8.053  0.0598 -0.2943 -0.3290
  726loPI    C1 9915   0.705   1.646   5.159 -0.1446 -0.1061  0.1556
  726loPI    C2 9916   0.653   1.281   5.004 -0.0772 -0.0307 -0.0472
  726loPI    C3 9917   1.016   1.451   5.001 -0.1089  0.0398  0.0432
  726loPI   PO4 9918   0.579   1.647   5.390  0.1713  0.0135  0.3334
  726loPI   GL1 9919   0.437   1.820   5.784  0.0086 -0.1117  0.2796
  726loPI   GL2 9920   0.754   1.746   5.837 -0.0238  0.0331  0.1943
  726loPI   C1A 9921   0.210   1.876   6.156 -0.0068  0.2705  0.1023
  726loPI   C2A 9922   0.023   1.867   6.549  0.0707 -0.0191 -0.1358
  726loPI   C3A 9923  -0.092   2.102   6.929  0.0715  0.0062  0.0267
  726loPI   C4A 9924  -0.367   2.167   7.365 -0.0793  0.0389  0.1417
  726loPI   C5A 9925  -0.287   2.353   7.746  0.0189  0.1079  0.0693
  726loPI   C6A 9926  -0.268   2.591   8.109 -0.2902  0.1276  0.2578
  726loPI   C1B 9927   0.712   1.785   6.215 -0.0593  0.1061 -0.0497
  726loPI   C2B 9928   0.737   1.802   6.671 -0.1000 -0.1625  0.0337
  726loPI   C3B 9929   0.800   1.778   7.110 -0.3096  0.0361  0.1911
  726loPI   C4B 9930   0.781   1.841   7.607 -0.2375  0.2107  0.0554
  727loPI    C1 9931   2.083  11.606   5.260  0.1028  0.1515 -0.2520
  727loPI    C2 9932   1.760  11.837   5.210 -0.1637 -0.1679 -0.0430
  727loPI    C3 9933   1.778  11.477   5.036  0.0249 -0.2051  0.0511
  727loPI   PO4 9934   2.135  11.563   5.646 -0.0734  0.0472 -0.2197
  727loPI   GL1 9935   1.982  11.632   6.059 -0.1220  0.1535  0.2150
  727loPI   GL2 9936   2.334  11.596   6.137 -0.0511  0.0214  0.0626
  727loPI   C1A 9937   1.844  11.596   6.462  0.2067  0.0475  0.1568
  727loPI   C2A 9938   1.664  11.701   6.897 -0.0581 -0.2327 -0.4011
  727loPI   C3A 9939   1.676  11.537   7.222  0.1067  0.3510  0.3181
  727loPI   C4A 9940   1.597  11.613   7.693  0.2381  0.2552 -0.2331
  727loPI   C5A 9941   1.609  11.836   8.041  0.0692 -0.2323 -0.0856
  727loPI   C6A 9942   1.661  12.303   8.150  0.0243  0.2623 -0.1580
  727loPI   C1B 9943   2.547  11.501   6.599 -0.1068  0.2909  0.2612
  727loPI   C2B 9944   2.611  11.448   6.986 -0.2210 -0.3105 -0.0222
  727loPI   C3B 9945   2.813  11.465   7.430 -0.0917 -0.1761 -0.3196
  727loPI   C4B 9946   2.912  11.512   7.814  0.1754 -0.0625  0.0296
  728loPI    C1 9947  17.505  12.337   5.695 -0.0919 -0.1361  0.0997
  728loPI    C2 9948  17.281  12.216   5.387  0.0537 -0.1719  0.0067
  728loPI    C3 9949  17.127  12.463   5.662 -0.0443 -0.0544 -0.1521
  728loPI   PO4 9950  17.594  12.090   5.850  0.0423 -0.0738  0.0389
  728loPI   GL1 9951  17.798  12.039   6.276 -0.0684  0.1456  0.2669
  728loPI   GL2 9952  17.802  12.367   6.202 -0.0690 -0.2042 -0.0449
  728loPI   C1A 9953  17.900  11.957   6.670 -0.1143  0.1911 -0.1536
  728loPI   C2A 9954  17.900  11.949   7.019  0.0145  0.3326  0.0040
  728loPI   C3A 9955  17.910  11.998   7.404  0.0021 -0.2463  0.2410
  728loPI   C4A 9956  17.887  11.909   7.782 -0.0502  0.1192 -0.0695
  728loPI   C5A 9957  17.582  11.927   8.179 -0.2867 -0.0212 -0.2262
  728loPI   C6A 9958  17.239  11.762   8.253  0.3473 -0.0301  0.1418
  728loPI   C1B 9959  17.891  12.609   6.514 -0.0507  0.1019 -0.1571
  728loPI   C2B 9960  17.833  12.784   6.910 -0.1196 -0.1359  0.0511
  728loPI   C3B 9961  17.812  13.024   7.281 -0.0042  0.0802 -0.1770
  728loPI   C4B 9962  17.824  13.243   7.633  0.0605 -0.0818  0.1092
  729loPI    C1 9963   8.693  12.816   5.535 -0.1396  0.0490 -0.1030
  729loPI    C2 9964   8.451  12.499   5.562 -0.2340  0.1271 -0.0233
  729loPI    C3 9965   8.305  12.852   5.444 -0.0980  0.1059 -0.2614
  729loPI   PO4 9966   8.912  12.774   5.784  0.0320  0.0022 -0.1076
  729loPI   GL1 9967   9.187  12.651   6.120  0.2906 -0.0785 -0.1760
  729loPI   GL2 9968   8.906  12.753   6.341 -0.1438 -0.0029 -0.2123
  729loPI   C1A 9969   9.429  12.602   6.547  0.0415  0.0405  0.3505
  729loPI   C2A 9970   9.356  12.464   6.964 -0.0543 -0.2549 -0.0030
  729loPI   C3A 9971   9.506  12.660   7.246 -0.2481  0.1303  0.2023
  729loPI   C4A 9972   9.598  12.733   7.609 -0.1900  0.1910  0.0048
  729loPI   C5A 9973   9.710  12.978   7.901  0.0679 -0.2536  0.0952
  729loPI   C6A 9974  10.086  12.900   8.119 -0.2714 -0.1067 -0.0908
  729loPI   C1B 9975   8.775  12.883   6.692  0.1171 -0.1014  0.1259
  729loPI   C2B 9976   8.969  12.881   7.037  0.1506  0.0370  0.1250
  729loPI   C3B 9977   9.044  12.873   7.487  0.3796 -0.0277  0.0748
  729loPI   C4B 9978   9.151  12.863   7.876 -0.2621  0.1400  0.2417
  730loPI    C1 9979  12.797  12.919   5.833 -0.0276  0.0375  0.1510
  730loPI    C2 9980  12.513  12.828   5.567  0.1338 -0.1064  0.0256
  730loPI    C3 9981  12.897  12.760   5.480  0.2007  0.0015  0.2303
  730loPI   PO4 9982  12.604  12.846   6.067  0.1181 -0.1394  0.3746
  730loPI   GL1 9983  12.750  12.732   6.491  0.1133  0.1516 -0.0307
  730loPI   GL2 9984  12.820  12.403   6.469  0.0521  0.2901 -0.3951
  730loPI   C1A 9985  12.457  12.768   6.860  0.0783 -0.2104 -0.0464
  730loPI   C2A 9986  12.447  12.799   7.242  0.0181  0.0961  0.1821
  730loPI   C3A 9987  12.467  12.879   7.665  0.3796 -0.1876  0.1221
  730loPI   C4A 9988  12.450  12.892   8.040 -0.0114 -0.1363 -0.2061
  730loPI   C5A 9989  12.706  13.050   8.309  0.1594  0.2589  0.0157
  730loPI   C6A 9990  13.031  13.035   8.570 -0.1504 -0.1514  0.1119
  730loPI   C1B 9991  12.979  12.648   6.935  0.2806  0.1421 -0.1201
  730loPI   C2B 9992  12.953  12.740   7.453  0.1029  0.0678 -0.1774
  730loPI   C3B 9993  12.901  12.720   7.779  0.2076 -0.2017 -0.0670
  730loPI   C4B 9994  12.949  12.642   8.211  0.2976 -0.2716 -0.1051
  731loPI    C1 9995   7.624  15.968   5.866  0.0861  0.0092  0.1505
  731loPI    C2 9996   7.906  15.848   5.609  0.1106  0.0079  0.1781
  731loPI    C3 9997   7.738  16.209   5.568 -0.1542 -0.1399 -0.0654
  731loPI   PO4 9998   7.711  15.937   6.105  0.1416 -0.3110 -0.0506
  731loPI   GL1 9999   7.583  16.189   6.443 -0.0248 -0.0642 -0.1803
  731loPI   GL210000   7.471  16.508   6.468 -0.1234  0.0322 -0.2024
  731loPI   C1A10001   7.893  16.061   6.819  0.2352 -0.1760 -0.0685
  731loPI   C2A10002   8.039  16.051   7.259  0.0448 -0.1886  0.1585
  731loPI   C3A10003   7.810  16.136   7.665  0.0408 -0.1743  0.3132
  731loPI   C4A10004   7.838  16.168   8.013 -0.2139  0.3238 -0.1819
  731loPI   C5A10005   7.596  15.942   8.344  0.2282 -0.1712 -0.0210
  731loPI   C6A10006   7.302  15.993   8.657 -0.0449  0.0084 -0.1348
  731loPI   C1B10007   7.412  16.295   6.936  0.3470 -0.1260 -0.1655
  731loPI   C2B10008   7.339  16.218   7.437  0.1023 -0.0629 -0.0185
  731loPI   C3B10009   7.302  16.151   7.888  0.0085 -0.1501 -0.1064
  731loPI   C4B10010   7.312  16.358   8.278  0.2466 -0.0632  0.3525
  732loPI    C110011   1.917   8.183   5.604  0.0228  0.0195 -0.0997
  732loPI    C210012   1.634   7.929   5.725  0.0327 -0.0116 -0.1413
  732loPI    C310013   1.613   8.092   5.361  0.0733 -0.0211 -0.1479
  732loPI   PO410014   1.997   8.269   5.789  0.1772 -0.5521 -0.1113
  732loPI   GL110015   2.170   8.446   6.185  0.1021  0.1518 -0.2505
  732loPI   GL210016   2.321   8.690   6.121 -0.1449  0.0440  0.0262
  732loPI   C1A10017   1.945   8.666   6.568 -0.0222 -0.1400  0.2096
  732loPI   C2A10018   1.980   8.853   6.839  0.2101  0.0146 -0.2543
  732loPI   C3A10019   1.868   8.899   7.240  0.3456 -0.0217  0.2862
  732loPI   C4A10020   1.810   8.765   7.700  0.0371 -0.2616 -0.0198
  732loPI   C5A10021   2.025   8.814   8.120  0.4529  0.0221 -0.0425
  732loPI   C6A10022   1.920   9.056   8.509  0.2054 -0.2450  0.2732
  732loPI   C1B10023   2.265   9.090   6.429  0.1432 -0.0542  0.2931
  732loPI   C2B10024   2.415   9.070   6.814  0.0259  0.5376  0.0608
  732loPI   C3B10025   2.389   9.095   7.318  0.1975  0.1469 -0.0915
  732loPI   C4B10026   2.266   8.957   7.703  0.0271 -0.0146  0.2680
  733loPI    C110027  15.605   8.711   5.908 -0.0332 -0.1892 -0.3400
  733loPI    C210028  15.942   8.806   6.101 -0.2403 -0.0145 -0.0562
  733loPI    C310029  15.821   9.027   5.790 -0.2815  0.1456  0.0721
  733loPI   PO410030  15.622   8.361   6.018 -0.4390  0.1319  0.0507
  733loPI   GL110031  15.939   8.167   6.265  0.3578  0.2439  0.1594
  733loPI   GL210032  16.069   8.368   6.498 -0.0879  0.0415 -0.2085
  733loPI   C1A10033  15.702   8.100   6.659  0.1292  0.1580  0.2360
  733loPI   C2A10034  15.669   8.157   7.089 -0.1271 -0.0755 -0.2427
  733loPI   C3A10035  15.704   8.044   7.521 -0.0712 -0.1619 -0.0642
  733loPI   C4A10036  15.535   8.005   7.922 -0.3645  0.1791  0.0349
  733loPI   C5A10037  15.297   7.997   8.233  0.0178  0.1007  0.0688
  733loPI   C6A10038  15.117   7.781   8.463 -0.2345 -0.1088  0.1008
  733loPI   C1B10039  16.116   8.304   6.955 -0.0431 -0.0027 -0.0547
  733loPI   C2B10040  16.040   8.354   7.371  0.1606  0.1299 -0.0529
  733loPI   C3B10041  16.011   8.406   7.759  0.1991 -0.0706 -0.4063
  733loPI   C4B10042  16.080   8.799   8.140  0.0738 -0.2684  0.2772
  734loPI    C110043   7.518   9.167   5.160 -0.0230  0.2048  0.1582
  734loPI    C210044   7.830   8.936   5.065 -0.2899 -0.1164  0.0389
  734loPI    C310045   7.706   9.219   4.811 -0.2498 -0.1551 -0.0241
  734loPI   PO410046   7.434   9.139   5.444 -0.0606 -0.1454  0.0297
  734loPI   GL110047   7.155   9.142   5.927  0.1830  0.0786  0.0579
  734loPI   GL210048   7.034   8.840   5.948  0.4202 -0.0129 -0.0718
  734loPI   C1A10049   7.415   9.255   6.208 -0.3539  0.0476 -0.0960
  734loPI   C2A10050   7.220   9.349   6.604 -0.3106  0.0665  0.0196
  734loPI   C3A10051   7.251   9.527   6.995  0.4241  0.2739  0.1692
  734loPI   C4A10052   7.452   9.371   7.356  0.1609 -0.0536  0.0962
  734loPI   C5A10053   7.655   9.565   7.738  0.0585  0.1206 -0.0778
  734loPI   C6A10054   7.807   9.867   8.035 -0.2691  0.0046 -0.0320
  734loPI   C1B10055   6.768   9.153   6.312  0.0130  0.2458 -0.1497
  734loPI   C2B10056   6.747   9.318   6.613  0.0836  0.0124 -0.1689
  734loPI   C3B10057   6.853   9.154   6.961  0.0336  0.0332  0.3672
  734loPI   C4B10058   6.972   9.197   7.405  0.0147 -0.4225  0.0410
  735loPI    C110059   1.083   5.648   5.215 -0.1969 -0.0027  0.0145
  735loPI    C210060   1.329   5.806   4.941  0.0498 -0.1638  0.1390
  735loPI    C310061   0.959   5.693   4.837  0.0221  0.0906 -0.0477
  735loPI   PO410062   0.932   5.793   5.516  0.3640  0.5067  0.0865
  735loPI   GL110063   0.770   5.798   5.892  0.1403 -0.2857  0.0463
  735loPI   GL210064   0.451   5.631   6.021 -0.0378 -0.0192  0.2471
  735loPI   C1A10065   0.756   5.780   6.366  0.0468  0.1424  0.1738
  735loPI   C2A10066   0.547   5.763   6.788  0.2996  0.0535  0.0333
  735loPI   C3A10067   0.495   5.800   7.249 -0.0659  0.1265 -0.2332
  735loPI   C4A10068   0.297   5.782   7.652 -0.0300 -0.0169 -0.2807
  735loPI   C5A10069   0.158   5.560   8.020 -0.1638 -0.1885  0.3179
  735loPI   C6A10070   0.022   5.134   8.115  0.0436 -0.2411 -0.1542
  735loPI   C1B10071   0.413   5.392   6.349  0.4205  0.1870  0.0130
  735loPI   C2B10072   0.208   5.319   6.730 -0.1204  0.1061  0.1581
  735loPI   C3B10073   0.278   5.370   7.073 -0.2396  0.2144  0.0469
  735loPI   C4B10074   0.045   5.382   7.457 -0.0500 -0.2256  0.1494
  736loPI    C110075   8.651   8.916   5.374 -0.0644  0.0440 -0.1785
  736loPI    C210076   8.407   8.691   5.151 -0.1189 -0.1760  0.0970
  736loPI    C310077   8.282   9.044   5.291 -0.0761 -0.0255 -0.2352
  736loPI   PO410078   8.757   8.756   5.556  0.1568 -0.0414  0.3178
  736loPI   GL110079   8.654   8.554   5.876  0.3102 -0.2609  0.1492
  736loPI   GL210080   8.525   8.290   5.948 -0.1036  0.1234 -0.0958
  736loPI   C1A10081   8.870   8.598   6.220  0.0602 -0.1177 -0.0969
  736loPI   C2A10082   9.096   8.479   6.605 -0.1520 -0.0860  0.2481
  736loPI   C3A10083   9.204   8.579   7.046  0.0011  0.0366 -0.4132
  736loPI   C4A10084   9.230   8.709   7.510 -0.0526  0.1971 -0.0317
  736loPI   C5A10085   9.616   8.586   7.734  0.0752 -0.1898  0.1873
  736loPI   C6A10086   9.816   8.277   8.003  0.1854 -0.0947  0.2587
  736loPI   C1B10087   8.474   8.279   6.293 -0.2084  0.2835  0.3195
  736loPI   C2B10088   8.216   8.083   6.553  0.1731 -0.0866 -0.1772
  736loPI   C3B10089   7.980   7.967   6.971  0.0040  0.0737 -0.4585
  736loPI   C4B10090   7.908   8.059   7.456  0.2794 -0.0757 -0.0865
  737loPI    C110091  11.343  17.532   5.640  0.4081  0.0015 -0.2853
  737loPI    C210092  11.427  17.173   5.483  0.0849 -0.0427 -0.3643
  737loPI    C310093  11.104  17.375   5.359 -0.0735  0.0060  0.1091
  737loPI   PO410094  11.284  17.434   5.893 -0.0688 -0.1011  0.3374
  737loPI   GL110095  11.091  17.634   6.259 -0.1735  0.2152  0.4048
  737loPI   GL210096  10.885  17.870   6.301  0.1104  0.2493  0.2105
  737loPI   C1A10097  10.992  17.531   6.605 -0.0431  0.5680  0.0115
  737loPI   C2A10098  10.613  17.607   6.867  0.1230 -0.0308 -0.0962
  737loPI   C3A10099  10.650  17.730   7.349  0.0747  0.0821  0.0488
  737loPI   C4A10100  10.894  17.745   7.750  0.1162  0.0687  0.0890
  737loPI   C5A10101  10.984  17.809   8.251 -0.0613  0.1776  0.1963
  737loPI   C6A10102  10.888  18.112   8.559  0.0119 -0.3222  0.1387
  737loPI   C1B10103  11.033  17.980   6.732  0.1175  0.1078 -0.3876
  737loPI   C2B10104  11.115  18.054   7.062 -0.0837 -0.0622  0.0505
  737loPI   C3B10105  11.213  18.062   7.499  0.1045 -0.0241 -0.2200
  737loPI   C4B10106  11.292  18.014   7.972 -0.2161 -0.1767  0.0240
  738loPI    C110107   2.781   2.312   5.166 -0.1231 -0.1591  0.0459
  738loPI    C210108   2.480   2.490   4.973 -0.0262  0.1655  0.1858
  738loPI    C310109   2.834   2.444   4.792 -0.1209 -0.1089  0.0638
  738loPI   PO410110   2.648   2.305   5.386 -0.1413  0.0463  0.1011
  738loPI   GL110111   2.599   2.168   5.744 -0.1050 -0.0890  0.2192
  738loPI   GL210112   2.932   1.967   5.829  0.0765 -0.3326 -0.7090
  738loPI   C1A10113   2.499   2.413   6.020  0.3359  0.0949  0.0615
  738loPI   C2A10114   2.436   2.668   6.400  0.1860 -0.1716 -0.1079
  738loPI   C3A10115   2.554   2.547   6.824  0.0317 -0.1604 -0.0008
  738loPI   C4A10116   2.588   2.453   7.214  0.2841 -0.3395  0.0434
  738loPI   C5A10117   2.537   2.725   7.701 -0.2410  0.1461 -0.2271
  738loPI   C6A10118   2.614   3.103   7.868  0.1515  0.0385 -0.1272
  738loPI   C1B10119   2.796   1.803   6.225  0.2145  0.0839  0.0140
  738loPI   C2B10120   2.680   1.670   6.687 -0.2425  0.3804 -0.1114
  738loPI   C3B10121   2.682   1.505   7.019  0.0354 -0.0334 -0.1416
  738loPI   C4B10122   2.838   1.338   7.420  0.2084 -0.0378  0.0059
  739loPI    C110123  12.182   8.307   5.841  0.0139 -0.0001  0.1031
  739loPI    C210124  11.787   8.271   5.895 -0.0222 -0.0556 -0.1834
  739loPI    C310125  11.939   8.612   5.752  0.0437 -0.0046  0.0054
  739loPI   PO410126  12.321   8.169   6.080  0.0661 -0.3666 -0.2284
  739loPI   GL110127  12.291   8.023   6.518  0.2275 -0.2854 -0.0960
  739loPI   GL210128  12.618   8.041   6.513  0.1792  0.1011  0.1215
  739loPI   C1A10129  12.114   7.994   6.905 -0.0134  0.1886  0.1096
  739loPI   C2A10130  12.361   8.110   7.384  0.3491 -0.2143  0.0080
  739loPI   C3A10131  12.509   7.932   7.794  0.1156  0.0465  0.0913
  739loPI   C4A10132  12.634   7.537   7.946  0.2889 -0.3443 -0.0906
  739loPI   C5A10133  12.864   7.327   8.174  0.0909 -0.1010 -0.0625
  739loPI   C6A10134  13.145   7.025   8.191 -0.1368 -0.1863  0.0360
  739loPI   C1B10135  12.649   8.129   6.913 -0.0999  0.3011  0.0291
  739loPI   C2B10136  12.798   8.110   7.275 -0.1550  0.0297  0.0079
  739loPI   C3B10137  12.979   7.764   7.611 -0.0947  0.0845  0.3779
  739loPI   C4B10138  13.063   7.774   8.013  0.3671 -0.0368  0.1186
  740loPI    C110139   0.398   9.193   5.856 -0.1212  0.0199 -0.1799
  740loPI    C210140   0.345   9.387   5.511 -0.1202 -0.1106 -0.2538
  740loPI    C310141   0.696   9.212   5.590 -0.0480  0.1030 -0.0930
  740loPI   PO410142   0.237   8.989   5.912 -0.0487  0.1167 -0.1319
  740loPI   GL110143   0.329   8.920   6.370 -0.0290 -0.2996 -0.2050
  740loPI   GL210144   0.060   8.695   6.381 -0.2389 -0.1050  0.2108
  740loPI   C1A10145   0.156   9.062   6.739  0.0327  0.2967  0.1984
  740loPI   C2A10146   0.312   9.047   7.068  0.0745 -0.3126  0.0293
  740loPI   C3A10147   0.305   9.054   7.603 -0.1903 -0.0347  0.2390
  740loPI   C4A10148   0.388   9.098   8.065 -0.0276 -0.1038 -0.1990
  740loPI   C5A10149   0.297   9.554   8.203 -0.1801  0.1320 -0.1218
  740loPI   C6A10150   0.471   9.904   8.351 -0.0316  0.0918 -0.0092
  740loPI   C1B10151  -0.066   8.603   6.735  0.1395 -0.0303 -0.1415
  740loPI   C2B10152  -0.079   8.702   7.058  0.0121 -0.0117 -0.0273
  740loPI   C3B10153  -0.128   8.707   7.490  0.1764  0.0749 -0.1373
  740loPI   C4B10154  -0.144   8.801   7.829 -0.0583 -0.0847  0.0765
  741loPI    C110155   9.133   7.608   5.141 -0.0786  0.0138 -0.1361
  741loPI    C210156   9.515   7.549   5.245 -0.1094 -0.1578 -0.1180
  741loPI    C310157   9.425   7.808   4.954 -0.0093  0.1930  0.1562
  741loPI   PO410158   9.000   7.624   5.347  0.1147 -0.0888 -0.0214
  741loPI   GL110159   8.978   7.622   5.782  0.1125  0.2503 -0.1502
  741loPI   GL210160   9.229   7.700   5.766 -0.1309 -0.1507  0.0001
  741loPI   C1A10161   8.611   7.782   5.989 -0.0467 -0.0982 -0.0774
  741loPI   C2A10162   8.251   7.693   6.236  0.0010 -0.0723 -0.1542
  741loPI   C3A10163   7.916   7.580   6.614  0.2528 -0.1083 -0.2148
  741loPI   C4A10164   7.674   7.411   6.939  0.1204 -0.1099  0.1514
  741loPI   C5A10165   7.711   7.652   7.293 -0.0006 -0.0547 -0.1187
  741loPI   C6A10166   7.541   7.581   7.650 -0.1818  0.1951  0.1078
  741loPI   C1B10167   9.271   7.773   6.228  0.1377  0.1340  0.1154
  741loPI   C2B10168   9.452   7.673   6.720  0.1532 -0.2299 -0.0455
  741loPI   C3B10169   9.443   7.786   7.191 -0.3959  0.0899  0.2023
  741loPI   C4B10170   9.671   7.839   7.635  0.0455  0.0094  0.2033
  742loPI    C110171   7.256  15.196   5.602 -0.0281 -0.2684 -0.2188
  742loPI    C210172   7.490  15.517   5.651 -0.1268 -0.2631  0.2738
  742loPI    C310173   7.460  15.344   5.291  0.0504  0.1804  0.0376
  742loPI   PO410174   7.013  15.302   5.764 -0.0979 -0.2199  0.1395
  742loPI   GL110175   6.775  15.198   6.192 -0.1974 -0.0249 -0.1679
  742loPI   GL210176   7.032  15.284   6.343  0.1771 -0.1407 -0.1593
  742loPI   C1A10177   6.528  15.175   6.531  0.0790 -0.0132 -0.0462
  742loPI   C2A10178   6.429  15.070   6.832  0.2056  0.1550  0.0771
  742loPI   C3A10179   6.580  15.182   7.249  0.2650  0.0431 -0.0328
  742loPI   C4A10180   6.613  15.301   7.597  0.1368  0.0748  0.5998
  742loPI   C5A10181   6.478  15.481   8.097  0.4211  0.0233  0.1544
  742loPI   C6A10182   6.344  15.580   8.511  0.0897 -0.0433  0.0206
  742loPI   C1B10183   7.018  15.129   6.788 -0.2073 -0.3329 -0.3097
  742loPI   C2B10184   7.091  15.148   7.155  0.0402  0.0526  0.0546
  742loPI   C3B10185   7.150  15.224   7.541 -0.0179  0.1063 -0.1939
  742loPI   C4B10186   6.969  15.331   7.967 -0.0495  0.1550 -0.0531
  743loPI    C110187   9.424   3.611   5.483 -0.0330  0.3348 -0.1692
  743loPI    C210188   9.349   3.961   5.304 -0.2918  0.2990 -0.1349
  743loPI    C310189   9.115   3.645   5.232  0.0630  0.0732 -0.3265
  743loPI   PO410190   9.544   3.700   5.811 -0.1816 -0.1329  0.0201
  743loPI   GL110191   9.823   3.753   6.250  0.2207 -0.0891 -0.1815
  743loPI   GL210192   9.889   4.001   6.107  0.1001 -0.1396  0.1151
  743loPI   C1A10193  10.013   3.911   6.582  0.1519  0.1420  0.1557
  743loPI   C2A10194  10.048   4.198   6.825  0.1321 -0.0752  0.1489
  743loPI   C3A10195   9.914   4.460   7.218 -0.2360  0.2290  0.0766
  743loPI   C4A10196   9.819   4.648   7.606 -0.1609  0.1589  0.0848
  743loPI   C5A10197   9.619   4.563   7.972  0.1245  0.4479  0.1499
  743loPI   C6A10198   9.527   4.871   8.168 -0.2583  0.0403  0.1719
  743loPI   C1B10199   9.695   4.276   6.441 -0.0219 -0.0478 -0.1122
  743loPI   C2B10200   9.589   4.465   6.768 -0.0734 -0.1904  0.1034
  743loPI   C3B10201   9.474   4.680   7.260  0.4011  0.0969  0.2909
  743loPI   C4B10202   9.388   4.923   7.655  0.1688 -0.1771 -0.0116
  744loPI    C110203   3.570   2.897   5.433  0.3051  0.0510 -0.0815
  744loPI    C210204   3.634   2.546   5.253  0.0865 -0.0483  0.0309
  744loPI    C310205   3.643   2.885   5.040  0.2987 -0.1207 -0.0779
  744loPI   PO410206   3.723   2.954   5.622 -0.2073  0.1367  0.2585
  744loPI   GL110207   3.832   2.978   6.008 -0.0646 -0.0249 -0.3712
  744loPI   GL210208   3.945   2.660   6.179 -0.0428 -0.2210 -0.0154
  744loPI   C1A10209   3.631   3.024   6.344 -0.1565  0.2912  0.1824
  744loPI   C2A10210   3.578   3.125   6.719 -0.2039 -0.1531  0.0753
  744loPI   C3A10211   3.445   3.076   7.209 -0.0383 -0.0899 -0.3155
  744loPI   C4A10212   3.493   3.056   7.709  0.1896 -0.1130 -0.0634
  744loPI   C5A10213   3.644   3.040   8.163 -0.0681  0.2030 -0.0581
  744loPI   C6A10214   3.992   3.312   8.409  0.0626 -0.0021  0.1690
  744loPI   C1B10215   4.025   2.716   6.605  0.1246  0.0498 -0.0882
  744loPI   C2B10216   3.850   2.817   6.926 -0.1713  0.0355 -0.2036
  744loPI   C3B10217   3.830   2.811   7.364 -0.0275  0.0131 -0.5069
  744loPI   C4B10218   4.036   2.783   7.734 -0.1225  0.0372 -0.0825
  745loPI    C110219  17.760  15.741   5.755  0.0488 -0.0702 -0.1028
  745loPI    C210220  18.156  15.799   5.768  0.0268  0.0674 -0.0255
  745loPI    C310221  17.931  16.010   5.513 -0.0003  0.0062 -0.0527
  745loPI   PO410222  17.751  15.675   6.122 -0.1912 -0.2554  0.3690
  745loPI   GL110223  17.897  15.572   6.420 -0.1297 -0.0031 -0.3003
  745loPI   GL210224  18.134  15.290   6.509 -0.0872  0.0703  0.0825
  745loPI   C1A10225  17.746  15.595   6.913  0.0517  0.0821  0.0789
  745loPI   C2A10226  17.676  15.561   7.427 -0.1386  0.1530  0.2222
  745loPI   C3A10227  17.622  15.456   7.893 -0.0553  0.0140 -0.6064
  745loPI   C4A10228  17.714  15.267   8.242  0.0671  0.0734  0.0103
  745loPI   C5A10229  17.917  14.889   8.330 -0.2142 -0.1624 -0.4707
  745loPI   C6A10230  17.891  14.465   8.535  0.0283  0.0900  0.0558
  745loPI   C1B10231  18.259  15.208   6.978 -0.2562  0.0104 -0.3085
  745loPI   C2B10232  18.353  15.003   7.412  0.0056  0.0895 -0.3697
  745loPI   C3B10233  18.318  14.858   7.765 -0.0242  0.1206  0.1478
  745loPI   C4B10234  18.365  14.809   8.224 -0.2019 -0.1119 -0.1361
  746loPI    C110235   6.924  14.158   5.712 -0.0621 -0.1335 -0.0120
  746loPI    C210236   7.252  14.359   5.824 -0.2287  0.1978 -0.1055
  746loPI    C310237   7.207  14.245   5.443 -0.0568 -0.1736 -0.0195
  746loPI   PO410238   6.845  14.064   5.962  0.4396  0.0278 -0.2513
  746loPI   GL110239   6.986  14.073   6.437 -0.0325 -0.1034 -0.1266
  746loPI   GL210240   7.050  14.400   6.316  0.1034  0.0780 -0.4341
  746loPI   C1A10241   7.002  14.219   6.869  0.3577  0.3691  0.2162
  746loPI   C2A10242   6.923  14.212   7.357 -0.1680 -0.0157  0.1256
  746loPI   C3A10243   6.946  14.352   7.778 -0.0200 -0.4757 -0.0463
  746loPI   C4A10244   7.056  14.497   8.180  0.1332  0.0040 -0.0820
  746loPI   C5A10245   7.434  14.491   8.342 -0.3122  0.1575 -0.1717
  746loPI   C6A10246   7.752  14.187   8.165  0.2581 -0.0349  0.2998
  746loPI   C1B10247   6.759  14.723   6.463  0.0239 -0.0255  0.0494
  746loPI   C2B10248   6.801  14.745   6.899 -0.0500  0.1019 -0.0518
  746loPI   C3B10249   6.820  14.722   7.375  0.1768 -0.3215 -0.1574
  746loPI   C4B10250   6.857  14.858   7.831 -0.1933 -0.1431 -0.1336
  747loPI    C110251   1.728   4.966   5.367  0.1644  0.1120 -0.0226
  747loPI    C210252   1.602   4.715   5.083  0.1611  0.1188 -0.0271
  747loPI    C310253   1.987   4.824   5.098  0.2263 -0.1256  0.1587
  747loPI   PO410254   1.577   4.863   5.555  0.0971  0.1968 -0.1031
  747loPI   GL110255   1.500   4.584   5.973  0.0288  0.4769 -0.4093
  747loPI   GL210256   1.477   4.206   5.994  0.1064  0.0233  0.2529
  747loPI   C1A10257   1.374   4.480   6.351  0.2950 -0.3714 -0.1834
  747loPI   C2A10258   1.395   4.306   6.695 -0.3135 -0.2058  0.0019
  747loPI   C3A10259   1.457   4.290   7.046 -0.1804  0.0253  0.1752
  747loPI   C4A10260   1.499   3.944   7.361 -0.2998  0.3862 -0.1884
  747loPI   C5A10261   1.415   3.841   7.808  0.1997  0.1739  0.1335
  747loPI   C6A10262   1.715   3.788   8.074 -0.0859  0.1080  0.0075
  747loPI   C1B10263   1.441   3.914   6.422  0.1775 -0.0080  0.0246
  747loPI   C2B10264   1.446   3.819   6.808  0.2651  0.4525 -0.1422
  747loPI   C3B10265   1.355   3.533   7.184  0.1291  0.0377  0.0454
  747loPI   C4B10266   1.541   3.162   7.333  0.3536 -0.0179  0.1595
  748loPI    C110267  17.718   8.866   5.756 -0.0110 -0.0210  0.0061
  748loPI    C210268  17.992   9.089   5.570  0.0055  0.0180  0.0767
  748loPI    C310269  17.894   8.730   5.424 -0.1298  0.1336 -0.1220
  748loPI   PO410270  17.818   8.865   6.061 -0.0859  0.0309  0.0437
  748loPI   GL110271  17.642   8.840   6.451 -0.0840  0.1818 -0.2575
  748loPI   GL210272  17.505   9.102   6.370 -0.1828 -0.0660 -0.3263
  748loPI   C1A10273  17.752   9.160   6.854 -0.1891 -0.3606 -0.1894
  748loPI   C2A10274  17.921   9.225   7.265 -0.0867 -0.0046  0.2118
  748loPI   C3A10275  17.740   9.289   7.563  0.0888 -0.1062  0.0121
  748loPI   C4A10276  17.485   9.150   7.900 -0.1565 -0.0968  0.1120
  748loPI   C5A10277  17.527   9.133   8.356 -0.1890 -0.2525  0.1192
  748loPI   C6A10278  17.472   8.914   8.726 -0.1248 -0.1195 -0.2671
  748loPI   C1B10279  17.274   9.109   6.755  0.2578  0.2727 -0.0309
  748loPI   C2B10280  17.407   9.139   7.189 -0.1334  0.1463  0.1459
  748loPI   C3B10281  17.315   9.471   7.466  0.1891  0.2575  0.1414
  748loPI   C4B10282  16.895   9.578   7.474  0.0778  0.1737 -0.0242
  749loPI    C110283  15.126  10.881   5.737 -0.0421  0.0955  0.0624
  749loPI    C210284  15.452  10.734   5.557 -0.0996  0.0443 -0.0005
  749loPI    C310285  15.101  10.546   5.520 -0.1198  0.0544  0.1344
  749loPI   PO410286  15.239  10.946   6.103 -0.0412  0.1369  0.0699
  749loPI   GL110287  15.198  10.767   6.381  0.0737 -0.0767 -0.3323
  749loPI   GL210288  15.387  10.567   6.478  0.2184 -0.1038  0.2717
  749loPI   C1A10289  15.121  10.933   6.813 -0.0384 -0.1555  0.3755
  749loPI   C2A10290  15.157  10.972   7.186 -0.0810 -0.0767  0.0269
  749loPI   C3A10291  15.183  10.913   7.577  0.1459 -0.3302  0.3893
  749loPI   C4A10292  14.991  10.859   7.885  0.0528 -0.0031 -0.3302
  749loPI   C5A10293  14.890  10.550   8.155 -0.1302  0.4287  0.3901
  749loPI   C6A10294  14.682  10.366   8.448  0.0322 -0.0714 -0.0711
  749loPI   C1B10295  15.528  10.510   6.898 -0.1193 -0.1342  0.2859
  749loPI   C2B10296  15.503  10.500   7.302 -0.0175 -0.0133 -0.0111
  749loPI   C3B10297  15.385  10.557   7.813  0.0763  0.0225 -0.1550
  749loPI   C4B10298  15.377  10.687   8.241  0.2830  0.1467 -0.4096
  750loPI    C110299  15.008  17.328   5.594 -0.1968 -0.2123  0.2146
  750loPI    C210300  14.981  16.931   5.555  0.0490 -0.2043 -0.0720
  750loPI    C310301  14.789  17.170   5.298  0.2581 -0.1413 -0.1719
  750loPI   PO410302  15.056  17.377   5.918  0.0383  0.0226  0.2193
  750loPI   GL110303  15.235  17.452   6.173 -0.1733  0.2066 -0.0651
  750loPI   GL210304  15.493  17.359   6.307  0.2273  0.2085  0.1080
  750loPI   C1A10305  15.246  17.793   6.436  0.0253 -0.0478 -0.1591
  750loPI   C2A10306  15.102  17.748   6.753  0.1488 -0.3660 -0.4078
  750loPI   C3A10307  15.291  17.661   7.075 -0.0685  0.0090  0.0007
  750loPI   C4A10308  15.610  17.505   7.415  0.0584 -0.0283  0.2211
  750loPI   C5A10309  15.717  17.346   7.892  0.0579  0.0728  0.0358
  750loPI   C6A10310  16.124  17.253   7.888 -0.0294 -0.0783  0.1301
  750loPI   C1B10311  15.653  17.197   6.628  0.1057 -0.2455  0.3722
  750loPI   C2B10312  15.677  17.101   7.077 -0.2565  0.0473  0.3290
  750loPI   C3B10313  15.696  16.880   7.580  0.1761  0.2000  0.0402
  750loPI   C4B10314  15.325  17.056   7.918 -0.0681 -0.2371  0.1035
  751loPI    C110315   3.635  16.081   5.678 -0.0475  0.2091  0.0907
  751loPI    C210316   3.398  15.775   5.578 -0.0176  0.2293 -0.0431
  751loPI    C310317   3.744  15.831   5.385  0.0984  0.1975  0.1537
  751loPI   PO410318   3.494  16.202   5.865  0.1918 -0.0341  0.0326
  751loPI   GL110319   3.707  16.178   6.286  0.0709 -0.1761 -0.0568
  751loPI   GL210320   3.870  16.042   6.462 -0.0299  0.1983 -0.2478
  751loPI   C1A10321   3.549  16.470   6.573  0.2164 -0.2149 -0.0211
  751loPI   C2A10322   3.448  16.550   7.006 -0.1714 -0.1551 -0.0914
  751loPI   C3A10323   3.354  16.437   7.478 -0.2212  0.0090  0.2075
  751loPI   C4A10324   3.279  16.351   7.860 -0.0217  0.1093  0.1320
  751loPI   C5A10325   3.170  16.327   8.257 -0.3183 -0.0337  0.1697
  751loPI   C6A10326   3.108  16.160   8.666  0.0242 -0.0279 -0.0562
  751loPI   C1B10327   3.912  16.118   6.954  0.2737  0.0213  0.2447
  751loPI   C2B10328   3.859  16.289   7.375  0.2274 -0.3295 -0.0776
  751loPI   C3B10329   3.718  16.203   7.829 -0.1330  0.3265 -0.3320
  751loPI   C4B10330   3.633  16.044   8.229  0.4730 -0.3319 -0.2839
  752loPI    C110331  10.438  12.232   5.741 -0.0225  0.0946 -0.0223
  752loPI    C210332  10.128  12.104   5.522  0.0485 -0.1328  0.0074
  752loPI    C310333  10.365  11.840   5.708  0.3150  0.0342 -0.0888
  752loPI   PO410334  10.387  12.513   5.777 -0.1091 -0.2103 -0.1463
  752loPI   GL110335  10.308  12.627   6.250  0.1868  0.0522  0.0187
  752loPI   GL210336  10.608  12.626   6.347 -0.0601 -0.0629 -0.1710
  752loPI   C1A10337  10.206  12.832   6.575  0.0609  0.0885  0.3525
  752loPI   C2A10338  10.327  12.992   6.932  0.1047 -0.0004  0.0796
  752loPI   C3A10339  10.059  13.255   7.086 -0.0921 -0.3049  0.0828
  752loPI   C4A10340   9.779  13.659   7.112 -0.2336  0.2316 -0.1728
  752loPI   C5A10341   9.642  14.089   7.168 -0.3069  0.2891  0.0225
  752loPI   C6A10342   9.444  14.216   7.607  0.0089 -0.0564  0.0836
  752loPI   C1B10343  10.709  12.710   6.777 -0.0663 -0.1415  0.2217
  752loPI   C2B10344  10.771  12.843   7.170 -0.1397 -0.1287 -0.0080
  752loPI   C3B10345  10.534  12.867   7.425 -0.1354  0.0026 -0.0938
  752loPI   C4B10346  10.506  12.913   7.821 -0.0405  0.1987 -0.1302
  753loPI    C110347   1.366  10.636   5.901 -0.1079  0.0926 -0.2175
  753loPI    C210348   1.339  10.914   5.614 -0.2571  0.0108 -0.2840
  753loPI    C310349   1.221  10.539   5.542 -0.2358 -0.0257 -0.1348
  753loPI   PO410350   1.555  10.795   6.047 -0.3895  0.2743 -0.2487
  753loPI   GL110351   1.756  10.820   6.565  0.2149  0.0082  0.1026
  753loPI   GL210352   1.617  10.529   6.530 -0.1288  0.0709 -0.0423
  753loPI   C1A10353   1.295  10.808   6.774  0.1724  0.0493  0.1275
  753loPI   C2A10354   1.166  10.700   7.192 -0.0648  0.3373  0.0222
  753loPI   C3A10355   1.120  10.492   7.644 -0.0204 -0.0416 -0.1118
  753loPI   C4A10356   1.158  10.619   8.068  0.1349  0.2367 -0.1056
  753loPI   C5A10357   1.139  11.068   8.080 -0.1988  0.3895 -0.2957
  753loPI   C6A10358   1.545  11.228   8.041 -0.0126 -0.0523  0.1406
  753loPI   C1B10359   1.624  10.307   6.913 -0.0558 -0.2180  0.0199
  753loPI   C2B10360   1.478  10.335   7.386 -0.0021  0.0533  0.0708
  753loPI   C3B10361   1.544  10.213   7.770  0.0848  0.2986 -0.2289
  753loPI   C4B10362   1.590  10.419   8.138  0.1281  0.1298 -0.0754
  754loPI    C110363   9.008  11.321   5.470 -0.0596  0.0868 -0.0450
  754loPI    C210364   8.750  11.626   5.446  0.0217  0.1634  0.0419
  754loPI    C310365   8.839  11.413   5.119 -0.1376  0.1474  0.0081
  754loPI   PO410366   8.983  11.294   5.832  0.0407  0.3476 -0.1091
  754loPI   GL110367   8.850  11.134   6.318  0.0611  0.0556 -0.0519
  754loPI   GL210368   8.713  10.879   6.128  0.1666  0.2988  0.1124
  754loPI   C1A10369   8.799  10.996   6.704  0.0191  0.2236  0.3565
  754loPI   C2A10370   8.683  10.935   7.076 -0.0796 -0.3106 -0.1080
  754loPI   C3A10371   8.830  10.661   7.447  0.1861 -0.1069  0.3068
  754loPI   C4A10372   8.679  10.746   7.858  0.3586  0.0866  0.1995
  754loPI   C5A10373   8.285  10.756   8.009  0.0944  0.0669 -0.1822
  754loPI   C6A10374   8.005  10.943   8.148 -0.1864 -0.1517  0.0406
  754loPI   C1B10375   8.436  10.752   6.459 -0.1341  0.1589  0.0700
  754loPI   C2B10376   8.096  10.693   6.731 -0.1411 -0.2898  0.0427
  754loPI   C3B10377   7.952  10.413   7.049 -0.0161  0.1095  0.0546
  754loPI   C4B10378   7.845  10.019   7.407  0.2130 -0.0985 -0.3873
  755loPI    C110379   6.689   5.871   5.480  0.0064 -0.2503  0.0100
  755loPI    C210380   6.943   6.094   5.266  0.0340 -0.3088 -0.0185
  755loPI    C310381   6.548   6.151   5.231  0.0487 -0.0265  0.2333
  755loPI   PO410382   6.829   5.775   5.685  0.1221  0.1783 -0.1278
  755loPI   GL110383   6.805   5.898   6.103 -0.0651  0.1367  0.2297
  755loPI   GL210384   7.137   5.707   6.087  0.0565 -0.3391 -0.2270
  755loPI   C1A10385   6.762   5.925   6.526  0.0282  0.0364  0.1407
  755loPI   C2A10386   6.805   5.904   6.917  0.0250 -0.0013 -0.1829
  755loPI   C3A10387   6.927   5.741   7.298 -0.1270 -0.3298 -0.1713
  755loPI   C4A10388   6.757   5.398   7.621  0.2192 -0.2686  0.0938
  755loPI   C5A10389   6.812   5.004   7.892 -0.0508  0.0856  0.3903
  755loPI   C6A10390   6.416   4.755   8.067  0.0617  0.2814  0.3957
  755loPI   C1B10391   7.254   5.815   6.458  0.1161  0.4853  0.0896
  755loPI   C2B10392   7.400   5.887   6.870  0.1815 -0.0649 -0.1041
  755loPI   C3B10393   7.494   5.942   7.256  0.0123  0.3444 -0.0901
  755loPI   C4B10394   7.653   6.035   7.698 -0.0317  0.1364 -0.2171
  756loPI    C110395  15.334   6.637   5.739  0.1607 -0.0711  0.1365
  756loPI    C210396  15.421   6.989   5.908  0.2560 -0.1560  0.2661
  756loPI    C310397  15.704   6.708   5.876  0.2308 -0.1523 -0.0087
  756loPI   PO410398  15.151   6.494   5.866 -0.0472 -0.0424 -0.3291
  756loPI   GL110399  14.812   6.626   6.226 -0.0684 -0.4008  0.2975
  756loPI   GL210400  15.194   6.648   6.358 -0.1856  0.3627 -0.0165
  756loPI   C1A10401  14.784   6.544   6.704 -0.0717  0.0338 -0.2539
  756loPI   C2A10402  14.895   6.496   7.110  0.4551  0.1804 -0.3747
  756loPI   C3A10403  14.846   6.397   7.549 -0.2507  0.1843 -0.2006
  756loPI   C4A10404  14.887   6.445   8.017  0.3402 -0.2877  0.0117
  756loPI   C5A10405  14.935   6.608   8.454  0.0034  0.0834  0.0145
  756loPI   C6A10406  14.974   6.540   8.862 -0.3132  0.1240 -0.2830
  756loPI   C1B10407  15.262   6.304   6.682 -0.1188 -0.3080  0.3106
  756loPI   C2B10408  15.242   6.027   7.033 -0.3964  0.0538 -0.1150
  756loPI   C3B10409  15.346   5.965   7.474 -0.1013 -0.3405 -0.0435
  756loPI   C4B10410  15.371   6.152   7.834 -0.1178 -0.0266  0.2862
  757loPI    C110411   3.926  10.902   5.637  0.2677 -0.0350 -0.0377
  757loPI    C210412   3.882  10.533   5.490  0.2704  0.0075 -0.1469
  757loPI    C310413   3.922  10.843   5.241 -0.0274  0.1186 -0.0607
  757loPI   PO410414   4.007  10.957   5.820  0.1034 -0.1399 -0.1554
  757loPI   GL110415   4.303  11.209   6.000  0.0750 -0.1677 -0.1409
  757loPI   GL210416   4.297  10.839   6.184  0.1073 -0.4021  0.1174
  757loPI   C1A10417   4.263  11.447   6.420  0.1963  0.0992 -0.0092
  757loPI   C2A10418   4.215  11.725   6.826 -0.0259 -0.0027  0.0961
  757loPI   C3A10419   4.280  11.708   7.203  0.1904  0.2632  0.0535
  757loPI   C4A10420   4.438  11.763   7.585  0.1015  0.2603  0.0334
  757loPI   C5A10421   4.341  11.867   7.983 -0.1017 -0.1158 -0.0193
  757loPI   C6A10422   4.005  11.850   8.134 -0.1092  0.3294  0.0988
  757loPI   C1B10423   4.313  10.914   6.518 -0.0811 -0.1252  0.2608
  757loPI   C2B10424   4.542  10.904   6.773 -0.0132  0.0054 -0.0870
  757loPI   C3B10425   4.514  10.803   7.120  0.2716 -0.0257  0.3552
  757loPI   C4B10426   4.618  10.587   7.514 -0.1902  0.0250 -0.0358
  758loPI    C110427  10.680   4.740   5.182 -0.1712  0.0284 -0.4234
  758loPI    C210428  10.907   4.879   4.884  0.1626  0.5439  0.0505
  758loPI    C310429  10.672   5.129   5.089 -0.2260  0.1574  0.0902
  758loPI   PO410430  10.841   4.580   5.393  0.0085 -0.4393 -0.1553
  758loPI   GL110431  10.815   4.389   5.800  0.1841  0.2091  0.1352
  758loPI   GL210432  11.197   4.358   5.887 -0.1211  0.1294 -0.0550
  758loPI   C1A10433  10.673   4.601   6.192 -0.0265 -0.0061 -0.0347
  758loPI   C2A10434  10.686   4.529   6.649 -0.2368  0.0083 -0.2553
  758loPI   C3A10435  10.514   4.443   7.149  0.1288  0.0568  0.0329
  758loPI   C4A10436  10.387   4.457   7.489  0.0632  0.0574 -0.1291
  758loPI   C5A10437  10.683   4.233   7.797 -0.1545 -0.1052  0.0055
  758loPI   C6A10438  11.075   4.150   8.081 -0.1257  0.1785  0.1660
  758loPI   C1B10439  11.056   4.221   6.389  0.1366  0.4416 -0.1425
  758loPI   C2B10440  10.976   4.163   6.891 -0.0115 -0.0075  0.0272
  758loPI   C3B10441  10.982   3.766   7.026  0.2682  0.0256 -0.1573
  758loPI   C4B10442  11.121   3.453   7.204  0.1883 -0.1892 -0.0661
  759loPI    C110443   8.288   4.999   5.206 -0.1333 -0.1192  0.1369
  759loPI    C210444   8.275   5.391   5.285 -0.1126 -0.0615 -0.1379
  759loPI    C310445   7.935   5.185   5.237 -0.1206 -0.0043 -0.3363
  759loPI   PO410446   8.447   4.908   5.419  0.0974  0.0789  0.1728
  759loPI   GL110447   8.235   4.974   5.835 -0.4384  0.0154 -0.2958
  759loPI   GL210448   8.014   5.271   5.752  0.0457 -0.0915 -0.0759
  759loPI   C1A10449   8.079   5.023   6.259  0.2722 -0.1868 -0.0470
  759loPI   C2A10450   8.077   5.233   6.702 -0.1156  0.0972  0.0380
  759loPI   C3A10451   8.135   5.241   7.153  0.1886 -0.2138  0.4427
  759loPI   C4A10452   8.518   5.450   7.403  0.0134  0.2677 -0.0905
  759loPI   C5A10453   8.464   5.733   7.740  0.0850  0.1762  0.2663
  759loPI   C6A10454   8.183   6.110   7.737 -0.0563  0.3804 -0.0532
  759loPI   C1B10455   8.000   5.515   6.049 -0.1720 -0.0524  0.1846
  759loPI   C2B10456   8.105   5.689   6.467  0.1847  0.0110  0.3590
  759loPI   C3B10457   8.177   5.766   6.951 -0.1985  0.3033 -0.0094
  759loPI   C4B10458   8.090   5.716   7.385 -0.0201 -0.2001  0.0003
  760loPI    C110459  10.046  11.376   5.636  0.2325 -0.1156  0.0800
  760loPI    C210460   9.776  11.335   5.344  0.1113 -0.1946  0.2023
  760loPI    C310461   9.947  11.011   5.506  0.0418 -0.1607  0.3449
  760loPI   PO410462   9.893  11.612   5.759  0.0679 -0.0269 -0.0785
  760loPI   GL110463   9.811  11.655   6.147  0.2484  0.1196 -0.2233
  760loPI   GL210464  10.163  11.682   6.193 -0.0299  0.0660 -0.2756
  760loPI   C1A10465   9.801  11.542   6.580  0.1835  0.0517  0.0126
  760loPI   C2A10466   9.939  11.435   6.966  0.1584 -0.0120  0.0018
  760loPI   C3A10467  10.085  11.409   7.468  0.2864  0.6670 -0.1788
  760loPI   C4A10468  10.155  11.473   7.897 -0.0417  0.0579 -0.1238
  760loPI   C5A10469   9.925  11.280   8.184 -0.0948  0.0309  0.1153
  760loPI   C6A10470   9.935  11.085   8.512 -0.3232  0.1702  0.0044
  760loPI   C1B10471  10.206  11.743   6.713  0.1641 -0.3147 -0.0631
  760loPI   C2B10472  10.206  11.818   7.192 -0.0073  0.3552 -0.1276
  760loPI   C3B10473  10.214  11.963   7.582 -0.1785  0.1422 -0.0488
  760loPI   C4B10474  10.299  11.937   8.031 -0.0603 -0.1239 -0.0452
  761loPI    C110475   1.281  16.660   5.870  0.0487  0.0375 -0.1840
  761loPI    C210476   0.912  16.552   5.982  0.0819  0.0433 -0.0672
  761loPI    C310477   1.027  16.509   5.601 -0.0535  0.0809 -0.1127
  761loPI   PO410478   1.356  16.937   5.995 -0.2757  0.0354 -0.2338
  761loPI   GL110479   1.303  17.098   6.461 -0.4189 -0.3089  0.0340
  761loPI   GL210480   1.484  17.351   6.491  0.2457 -0.2701  0.0302
  761loPI   C1A10481   1.174  17.126   6.859 -0.1265  0.1476 -0.1323
  761loPI   C2A10482   1.127  17.116   7.321  0.0412  0.0660  0.2727
  761loPI   C3A10483   1.087  17.144   7.717 -0.0527 -0.2054  0.0308
  761loPI   C4A10484   1.193  17.309   8.088  0.0712 -0.0579  0.1892
  761loPI   C5A10485   1.395  17.191   8.463 -0.2949  0.1249 -0.2511
  761loPI   C6A10486   1.297  17.394   8.638  0.1884 -0.0535  0.3829
  761loPI   C1B10487   1.540  17.451   6.935 -0.0411 -0.0083  0.0683
  761loPI   C2B10488   1.346  17.586   7.261  0.1920 -0.3317 -0.1749
  761loPI   C3B10489   1.397  17.517   7.565  0.2588  0.3356 -0.0947
  761loPI   C4B10490   1.612  17.802   7.924 -0.1111  0.3358 -0.0631
  762loPI    C110491   0.044   5.392   5.333  0.2785 -0.2772  0.0346
  762loPI    C210492  -0.355   5.420   5.321  0.3115  0.2383 -0.0690
  762loPI    C310493  -0.156   5.269   5.009  0.2118  0.1707 -0.1005
  762loPI   PO410494   0.072   5.355   5.651 -0.2545  0.3132 -0.1699
  762loPI   GL110495  -0.001   5.363   6.031  0.0133 -0.0343  0.1264
  762loPI   GL210496  -0.084   4.994   5.919 -0.1143 -0.1874 -0.3889
  762loPI   C1A10497  -0.145   5.523   6.445  0.1324  0.6114  0.2972
  762loPI   C2A10498  -0.255   5.416   6.942 -0.0934 -0.0180 -0.0288
  762loPI   C3A10499  -0.425   5.393   7.414  0.2790  0.0208  0.1291
  762loPI   C4A10500  -0.315   5.464   7.871  0.0523  0.0580  0.1614
  762loPI   C5A10501  -0.340   5.381   8.270 -0.0413 -0.0214  0.0278
  762loPI   C6A10502  -0.379   5.304   8.745  0.0600  0.2065  0.0605
  762loPI   C1B10503  -0.034   4.943   6.342  0.0600 -0.0742 -0.2277
  762loPI   C2B10504  -0.074   4.903   6.773  0.1719  0.1945 -0.0374
  762loPI   C3B10505  -0.055   4.995   7.201  0.1494 -0.1057 -0.2660
  762loPI   C4B10506  -0.114   4.993   7.673 -0.0695 -0.2207 -0.3275
  763loPI    C110507   0.248  12.998   5.445  0.0952  0.1010  0.0386
  763loPI    C210508   0.608  12.873   5.322  0.0371  0.1050 -0.1371
  763loPI    C310509   0.314  12.932   5.056 -0.1241  0.0034  0.0165
  763loPI   PO410510   0.162  12.839   5.659 -0.3963 -0.3708  0.2466
  763loPI   GL110511   0.098  13.020   6.101  0.0630 -0.1346  0.0094
  763loPI   GL210512   0.080  13.356   6.150  0.2740  0.0319 -0.1054
  763loPI   C1A10513   0.161  12.936   6.482  0.0786  0.4232 -0.1816
  763loPI   C2A10514   0.133  13.045   6.985  0.1299 -0.0907 -0.0868
  763loPI   C3A10515   0.216  13.004   7.458 -0.0760  0.2554  0.1534
  763loPI   C4A10516   0.245  13.073   7.927  0.1279  0.1409 -0.1482
  763loPI   C5A10517  -0.170  13.218   8.150 -0.0652  0.0719  0.1160
  763loPI   C6A10518  -0.464  13.388   8.376 -0.2812  0.0368 -0.1883
  763loPI   C1B10519   0.191  13.419   6.626  0.1856  0.1682  0.0018
  763loPI   C2B10520   0.247  13.485   7.167 -0.1371  0.1953 -0.1598
  763loPI   C3B10521   0.226  13.804   7.271 -0.1649 -0.2620  0.1603
  763loPI   C4B10522   0.126  14.078   7.616  0.0328  0.3740  0.0772
  764loPI    C110523   5.012  18.052   5.555 -0.0542  0.0183  0.1929
  764loPI    C210524   4.826  18.385   5.437 -0.1484 -0.1081 -0.0221
  764loPI    C310525   4.769  18.043   5.238  0.3415 -0.1427 -0.1152
  764loPI   PO410526   4.962  18.060   5.872  0.3057 -0.3782 -0.3688
  764loPI   GL110527   4.799  18.116   6.259 -0.0962  0.0832 -0.0963
  764loPI   GL210528   4.993  17.863   6.346  0.0556 -0.0882  0.0228
  764loPI   C1A10529   4.984  18.446   6.498 -0.1822 -0.1997  0.1703
  764loPI   C2A10530   5.267  18.705   6.757 -0.1430  0.0397  0.2773
  764loPI   C3A10531   5.440  18.879   7.134 -0.0316  0.1017 -0.2818
  764loPI   C4A10532   5.685  19.159   7.430 -0.2037  0.1187  0.0323
  764loPI   C5A10533   5.764  19.283   7.833  0.5485 -0.2542 -0.1973
  764loPI   C6A10534   6.077  19.161   8.157  0.2321 -0.0627  0.2661
  764loPI   C1B10535   4.696  18.041   6.733 -0.1511 -0.1408 -0.0563
  764loPI   C2B10536   4.300  18.097   6.982  0.1256 -0.0318  0.3987
  764loPI   C3B10537   4.293  18.012   7.430  0.1042  0.1672 -0.0813
  764loPI   C4B10538   4.243  18.222   7.874 -0.0845 -0.4344 -0.0217
  765loPI    C110539   2.882  11.892   5.704 -0.2825 -0.0023  0.1592
  765loPI    C210540   2.679  12.121   5.446  0.0071 -0.0072 -0.0775
  765loPI    C310541   2.595  11.731   5.476 -0.2657  0.0619  0.0922
  765loPI   PO410542   2.920  12.067   5.899  0.0824  0.3925 -0.1779
  765loPI   GL110543   3.140  12.299   6.254  0.3726  0.4332 -0.0763
  765loPI   GL210544   3.393  11.938   6.399  0.0668  0.0871 -0.2480
  765loPI   C1A10545   3.037  12.479   6.635  0.3863  0.3207 -0.2551
  765loPI   C2A10546   3.183  12.686   7.019 -0.0939 -0.1845 -0.3725
  765loPI   C3A10547   3.319  12.721   7.417  0.1475 -0.1737  0.1050
  765loPI   C4A10548   3.101  12.970   7.779 -0.0415 -0.3723 -0.0445
  765loPI   C5A10549   2.883  13.316   7.981 -0.1966  0.1427  0.2378
  765loPI   C6A10550   2.488  13.351   8.198 -0.3851 -0.0846  0.1240
  765loPI   C1B10551   3.364  12.057   6.795 -0.0656 -0.1553 -0.3768
  765loPI   C2B10552   3.101  12.191   7.256 -0.2490  0.2113  0.1726
  765loPI   C3B10553   2.868  12.070   7.643  0.0069  0.1559 -0.2253
  765loPI   C4B10554   2.430  12.214   7.756 -0.0970  0.1993  0.1501
  766loPI    C110555   7.852  12.014   5.539 -0.0558 -0.2135 -0.1061
  766loPI    C210556   7.512  11.806   5.565 -0.0561 -0.2321 -0.2494
  766loPI    C310557   7.540  12.112   5.309 -0.1353  0.0998  0.1287
  766loPI   PO410558   7.938  12.133   5.700  0.1248  0.3206 -0.3179
  766loPI   GL110559   7.987  12.250   6.144  0.1885 -0.0632 -0.2101
  766loPI   GL210560   8.225  12.262   6.424 -0.2242 -0.0487  0.1212
  766loPI   C1A10561   7.721  12.121   6.575 -0.0893 -0.2178 -0.2704
  766loPI   C2A10562   7.711  12.126   6.995  0.1743  0.0040 -0.0289
  766loPI   C3A10563   7.795  11.929   7.327 -0.1920  0.4566 -0.2651
  766loPI   C4A10564   7.960  11.745   7.658  0.1228  0.0308 -0.0742
  766loPI   C5A10565   8.129  11.395   7.887 -0.1919  0.1256 -0.2222
  766loPI   C6A10566   8.484  11.217   8.162 -0.1236 -0.0811 -0.0005
  766loPI   C1B10567   8.190  12.113   6.846 -0.1017  0.0013  0.0054
  766loPI   C2B10568   8.210  12.163   7.274  0.1003  0.1962  0.1110
  766loPI   C3B10569   8.135  12.351   7.684 -0.3719 -0.0824  0.1795
  766loPI   C4B10570   8.129  12.499   8.085 -0.1993  0.0213 -0.0267
  767loPI    C110571   5.413   8.771   5.532 -0.0936 -0.1790 -0.0523
  767loPI    C210572   5.250   9.106   5.387 -0.0247 -0.1061  0.0378
  767loPI    C310573   5.238   8.769   5.172  0.2028  0.0345 -0.2014
  767loPI   PO410574   5.282   8.658   5.774  0.3038  0.1141 -0.1450
  767loPI   GL110575   5.309   8.653   6.200  0.4369 -0.0149  0.0264
  767loPI   GL210576   5.466   8.283   6.220 -0.1327  0.0244  0.3438
  767loPI   C1A10577   5.155   8.567   6.519 -0.4660  0.0131 -0.1955
  767loPI   C2A10578   5.227   8.545   6.928 -0.1417 -0.4866  0.0546
  767loPI   C3A10579   5.039   8.676   7.392  0.2010 -0.0253 -0.1360
  767loPI   C4A10580   5.031   8.323   7.726  0.2449  0.2911 -0.0834
  767loPI   C5A10581   5.398   8.038   7.838 -0.2967  0.5071  0.0669
  767loPI   C6A10582   5.762   8.173   7.644  0.2509 -0.0271  0.2468
  767loPI   C1B10583   5.484   8.231   6.592  0.0875  0.3429 -0.0595
  767loPI   C2B10584   5.614   7.975   6.968  0.2409  0.1551 -0.0973
  767loPI   C3B10585   5.791   7.777   7.307 -0.0293  0.1815  0.0798
  767loPI   C4B10586   5.749   7.561   7.638  0.1081 -0.0348  0.1717
  768loPI    C110587  12.213  10.721   6.007 -0.1431  0.0216 -0.0867
  768loPI    C210588  12.412  10.468   5.770  0.0081  0.1519 -0.1007
  768loPI    C310589  12.084  10.652   5.635  0.0943  0.2266 -0.2106
  768loPI   PO410590  12.153  10.696   6.159  0.1916  0.1811  0.0533
  768loPI   GL110591  12.159  10.761   6.509  0.0139  0.0967  0.1580
  768loPI   GL210592  12.288  11.049   6.590  0.1947  0.1549 -0.2105
  768loPI   C1A10593  11.838  10.653   6.746  0.0795  0.1315  0.4094
  768loPI   C2A10594  11.818  10.749   7.203  0.3491  0.0729  0.2404
  768loPI   C3A10595  11.757  11.019   7.476 -0.1238  0.1121  0.0660
  768loPI   C4A10596  11.930  11.268   7.810 -0.4619  0.0034  0.0871
  768loPI   C5A10597  12.025  11.578   8.056 -0.1029 -0.4887  0.0627
  768loPI   C6A10598  12.367  11.821   8.277  0.1465 -0.1034 -0.0324
  768loPI   C1B10599  12.348  10.911   7.078  0.0354  0.2624 -0.0227
  768loPI   C2B10600  12.226  10.840   7.488 -0.3135  0.3066 -0.0003
  768loPI   C3B10601  12.345  10.929   7.950  0.2702 -0.2821  0.0461
  768loPI   C4B10602  12.628  10.972   8.287  0.3054 -0.1159  0.0942
  769loPI    C110603  11.698   4.134   5.453  0.1605  0.1109 -0.1053
  769loPI    C210604  11.389   4.383   5.403  0.0161 -0.0472 -0.0128
  769loPI    C310605  11.764   4.521   5.376 -0.0605  0.2320  0.2842
  769loPI   PO410606  11.606   3.885   5.409  0.2313  0.1939 -0.0665
  769loPI   GL110607  11.509   3.752   5.661  0.0750 -0.1625 -0.1132
  769loPI   GL210608  11.456   3.922   5.989 -0.2502 -0.0905  0.1667
  769loPI   C1A10609  11.943   3.913   6.036 -0.2477  0.2846  0.2292
  769loPI   C2A10610  12.103   3.994   6.499  0.2029 -0.1877 -0.3929
  769loPI   C3A10611  12.055   4.003   7.044  0.0730  0.0471  0.2334
  769loPI   C4A10612  12.003   4.012   7.465 -0.1409  0.1757  0.1465
  769loPI   C5A10613  11.816   4.134   7.849  0.0848  0.3534  0.1943
  769loPI   C6A10614  11.509   4.058   8.018 -0.0616  0.1481 -0.1402
  769loPI   C1B10615  11.659   4.311   6.358 -0.0918  0.0221 -0.0326
  769loPI   C2B10616  11.379   4.564   6.663  0.0382 -0.3648  0.2501
  769loPI   C3B10617  11.234   4.547   7.085 -0.0705 -0.0158 -0.1376
  769loPI   C4B10618  11.294   4.503   7.456 -0.4966  0.1665 -0.2712
  770loPI    C110619  17.948   3.668   5.657 -0.0356 -0.0774  0.0229
  770loPI    C210620  17.828   3.494   5.317 -0.3508  0.0489  0.0667
  770loPI    C310621  18.082   3.804   5.305 -0.2573 -0.0312 -0.0447
  770loPI   PO410622  17.664   3.694   5.823 -0.0544 -0.1651 -0.0000
  770loPI   GL110623  17.553   3.929   6.182  0.0304  0.1997 -0.2535
  770loPI   GL210624  17.526   4.297   6.187 -0.4025  0.0797  0.1500
  770loPI   C1A10625  17.656   3.866   6.569  0.1251  0.0195 -0.3568
  770loPI   C2A10626  17.610   3.925   6.986 -0.0708  0.4359  0.1323
  770loPI   C3A10627  17.681   3.885   7.394 -0.0065 -0.1669 -0.2701
  770loPI   C4A10628  17.837   3.654   7.694 -0.0548  0.0147 -0.3947
  770loPI   C5A10629  17.599   3.597   8.078  0.1879 -0.0486 -0.1941
  770loPI   C6A10630  17.569   3.367   8.601 -0.0719  0.2541  0.1698
  770loPI   C1B10631  17.366   4.282   6.666 -0.2235  0.0084  0.1657
  770loPI   C2B10632  17.359   4.303   7.170 -0.2443 -0.1528  0.0478
  770loPI   C3B10633  17.342   4.139   7.579  0.1651 -0.0205 -0.1269
  770loPI   C4B10634  17.394   4.065   8.129 -0.0027  0.0262  0.1252
  771loPI    C110635  13.634  10.145   5.827  0.0103 -0.2760 -0.3504
  771loPI    C210636  13.756  10.469   5.628  0.0989  0.0341  0.1894
  771loPI    C310637  14.000  10.154   5.666  0.1893  0.0870  0.0572
  771loPI   PO410638  13.441  10.208   5.954  0.1094  0.1776 -0.0852
  771loPI   GL110639  13.568  10.273   6.346 -0.2155 -0.1239  0.0066
  771loPI   GL210640  13.554  10.649   6.351  0.0852 -0.2470  0.2461
  771loPI   C1A10641  13.655   9.754   6.541  0.0219  0.0034  0.0338
  771loPI   C2A10642  13.542   9.845   6.919  0.1223  0.0110 -0.2161
  771loPI   C3A10643  13.473   9.975   7.319  0.1398  0.0114 -0.0638
  771loPI   C4A10644  13.490  10.136   7.687 -0.1520  0.2262  0.0080
  771loPI   C5A10645  13.400  10.410   8.058  0.0047 -0.0944  0.1151
  771loPI   C6A10646  13.472  10.891   8.194  0.0491 -0.2012  0.0309
  771loPI   C1B10647  13.738  10.624   6.653  0.2598 -0.2874  0.0691
  771loPI   C2B10648  14.058  10.767   6.960 -0.1404 -0.0233 -0.0649
  771loPI   C3B10649  14.009  10.613   7.454  0.1872  0.1555 -0.0253
  771loPI   C4B10650  13.858  10.499   7.877  0.1821  0.2567  0.0709
  772loPI    C110651  11.066   9.664   5.302  0.0323  0.1147  0.0467
  772loPI    C210652  11.062   9.383   5.017 -0.0750  0.0907  0.0712
  772loPI    C310653  11.242   9.734   4.950 -0.1683  0.1152 -0.0551
  772loPI   PO410654  11.031   9.465   5.563 -0.0196  0.0834 -0.1648
  772loPI   GL110655  10.965   9.528   6.099 -0.0712  0.1208 -0.0010
  772loPI   GL210656  11.289   9.708   6.127 -0.0819 -0.2869  0.2295
  772loPI   C1A10657  11.043   9.386   6.458 -0.0474 -0.1632 -0.1456
  772loPI   C2A10658  10.926   9.398   6.847  0.1628  0.3647 -0.3207
  772loPI   C3A10659  11.005   9.447   7.276 -0.1390 -0.5004 -0.0865
  772loPI   C4A10660  10.834   9.237   7.672 -0.0497  0.1731  0.2316
  772loPI   C5A10661  11.043   9.371   8.083 -0.1028 -0.0684  0.1634
  772loPI   C6A10662  11.324   9.380   8.426  0.0511 -0.0154 -0.1066
  772loPI   C1B10663  11.211   9.882   6.580  0.0953 -0.0692 -0.3044
  772loPI   C2B10664  11.149   9.890   7.029  0.4389 -0.0071  0.0085
  772loPI   C3B10665  11.082   9.966   7.394  0.1222  0.2878 -0.0463
  772loPI   C4B10666  11.029   9.712   7.734 -0.1254  0.1774  0.1220
  773loPI    C110667  15.412   4.398   5.452 -0.1519  0.0352  0.0229
  773loPI    C210668  15.540   4.771   5.386 -0.3042  0.0671 -0.0983
  773loPI    C310669  15.507   4.514   5.081  0.1444 -0.1588  0.0349
  773loPI   PO410670  15.193   4.440   5.577 -0.0418 -0.0441 -0.0716
  773loPI   GL110671  15.054   4.593   6.016 -0.1851 -0.0858 -0.2163
  773loPI   GL210672  15.394   4.600   6.218 -0.0612  0.1845 -0.1917
  773loPI   C1A10673  14.992   4.893   6.410  0.0101  0.3009  0.3054
  773loPI   C2A10674  14.965   4.959   6.852 -0.4049 -0.0467  0.1275
  773loPI   C3A10675  14.990   4.989   7.295 -0.0706  0.1319  0.1673
  773loPI   C4A10676  14.905   5.128   7.747  0.2435  0.3214 -0.3033
  773loPI   C5A10677  14.793   5.466   7.952  0.3892  0.0698  0.2002
  773loPI   C6A10678  14.576   5.463   8.474  0.3173  0.1197  0.4065
  773loPI   C1B10679  15.338   4.462   6.598 -0.0146  0.0182 -0.0652
  773loPI   C2B10680  14.983   4.387   6.867  0.2456  0.1360  0.1950
  773loPI   C3B10681  14.730   4.444   7.266 -0.0209  0.4031 -0.2188
  773loPI   C4B10682  14.370   4.472   7.561 -0.2196  0.1856 -0.0297
  774loPI    C110683   1.622   0.772   5.704 -0.0138  0.2348  0.0497
  774loPI    C210684   1.889   0.792   5.408 -0.0234  0.0276  0.0253
  774loPI    C310685   1.499   0.769   5.324 -0.0235 -0.0756  0.0528
  774loPI   PO410686   1.694   0.597   5.867 -0.0914  0.1481  0.0329
  774loPI   GL110687   1.590   0.493   6.270 -0.0484  0.0462 -0.2015
  774loPI   GL210688   1.271   0.730   6.151  0.0508  0.1228 -0.0195
  774loPI   C1A10689   1.625   0.529   6.704 -0.3343  0.1126  0.0815
  774loPI   C2A10690   1.679   0.499   7.187  0.0714  0.0269  0.2200
  774loPI   C3A10691   1.705   0.547   7.643 -0.1544  0.0625  0.1911
  774loPI   C4A10692   1.745   0.847   8.027  0.3035  0.0594  0.3407
  774loPI   C5A10693   1.704   1.288   8.084  0.3367 -0.0404  0.3222
  774loPI   C6A10694   1.625   1.636   8.238  0.1081 -0.0020 -0.1474
  774loPI   C1B10695   1.339   0.886   6.516 -0.2596  0.1388  0.2641
  774loPI   C2B10696   1.377   0.925   6.963  0.2244 -0.0532 -0.1993
  774loPI   C3B10697   1.385   0.881   7.357  0.3301 -0.1097  0.0346
  774loPI   C4B10698   1.392   1.145   7.640  0.2446  0.1798 -0.3225
  775loPI    C110699   2.385  13.261   5.620  0.1303 -0.0925  0.1594
  775loPI    C210700   2.067  13.048   5.506  0.1890 -0.1106  0.0277
  775loPI    C310701   2.182  13.366   5.292  0.2721 -0.1168  0.0629
  775loPI   PO410702   2.509  12.904   5.795 -0.1502 -0.0531 -0.0854
  775loPI   GL110703   2.500  13.011   6.260  0.0397  0.0442  0.1126
  775loPI   GL210704   2.682  12.678   6.249 -0.1324 -0.1208 -0.0150
  775loPI   C1A10705   2.481  13.090   6.659  0.1246 -0.0830 -0.3655
  775loPI   C2A10706   2.335  13.017   7.079 -0.0793  0.1538  0.0431
  775loPI   C3A10707   2.346  12.873   7.468  0.0735  0.1895  0.0801
  775loPI   C4A10708   2.549  12.919   7.811  0.3306  0.2604  0.1342
  775loPI   C5A10709   2.810  12.903   8.239  0.1134 -0.3846  0.1963
  775loPI   C6A10710   2.872  12.619   8.468  0.1875  0.3310  0.2058
  775loPI   C1B10711   2.516  12.609   6.634 -0.0462  0.0792  0.4778
  775loPI   C2B10712   2.683  12.646   7.038  0.0273  0.2246  0.2902
  775loPI   C3B10713   2.860  12.580   7.534  0.2777 -0.5229  0.0804
  775loPI   C4B10714   2.903  12.485   7.898 -0.3195  0.0618 -0.3969
  776loPI    C110715  15.402  12.917   5.653 -0.1603  0.0301 -0.0085
  776loPI    C210716  15.243  13.278   5.718 -0.1477  0.0203  0.0788
  776loPI    C310717  15.253  13.127   5.347 -0.1251  0.1224  0.0374
  776loPI   PO410718  15.474  12.808   5.953  0.0390 -0.0799  0.0684
  776loPI   GL110719  15.376  12.885   6.322 -0.2205  0.0593  0.0592
  776loPI   GL210720  15.659  12.809   6.496 -0.0592 -0.1055 -0.1523
  776loPI   C1A10721  15.201  12.749   6.733 -0.1341  0.0994 -0.0973
  776loPI   C2A10722  15.003  12.738   7.158 -0.1077  0.0429 -0.0806
  776loPI   C3A10723  14.734  12.849   7.448 -0.0038  0.2072 -0.0157
  776loPI   C4A10724  14.683  12.706   7.869  0.1840  0.2658  0.2950
  776loPI   C5A10725  14.653  12.449   8.210 -0.1886 -0.0352 -0.3628
  776loPI   C6A10726  14.746  12.065   8.468 -0.1316  0.0236 -0.1675
  776loPI   C1B10727  15.671  12.819   6.915  0.1073 -0.2154  0.2911
  776loPI   C2B10728  15.493  12.872   7.227 -0.1297  0.1499 -0.3906
  776loPI   C3B10729  15.252  12.810   7.653  0.0234  0.1020 -0.0272
  776loPI   C4B10730  15.158  12.716   8.065 -0.1988 -0.0173 -0.0564
  777loPI    C110731   5.244   2.293   5.557 -0.1487 -0.1003  0.0154
  777loPI    C210732   5.364   1.913   5.590  0.0479 -0.0460 -0.0584
  777loPI    C310733   5.334   2.082   5.229 -0.2039 -0.0423 -0.0374
  777loPI   PO410734   5.453   2.349   5.779 -0.1419 -0.1011 -0.2435
  777loPI   GL110735   5.521   2.127   6.246  0.1758 -0.2521 -0.2182
  777loPI   GL210736   5.445   1.818   6.116  0.2147  0.2652  0.1759
  777loPI   C1A10737   5.393   2.335   6.621 -0.3001 -0.1972  0.0251
  777loPI   C2A10738   5.250   2.316   7.017 -0.2026  0.2214  0.2298
  777loPI   C3A10739   5.099   2.308   7.423  0.3614 -0.2926  0.0779
  777loPI   C4A10740   4.862   2.233   7.769 -0.2529  0.3025  0.4855
  777loPI   C5A10741   4.659   2.164   8.143 -0.0565  0.0491 -0.1605
  777loPI   C6A10742   4.478   1.938   8.500 -0.1803  0.0673 -0.3373
  777loPI   C1B10743   5.462   1.829   6.628  0.0025 -0.2387  0.1544
  777loPI   C2B10744   5.534   1.793   7.001  0.2237  0.0225  0.0929
  777loPI   C3B10745   5.436   1.928   7.434 -0.0280  0.3899  0.3327
  777loPI   C4B10746   5.332   2.083   7.851 -0.0190  0.2568  0.0289
  778loPI    C110747  14.263   4.270   6.002 -0.0216  0.1353  0.4147
  778loPI    C210748  14.652   4.233   5.917 -0.1349 -0.1028 -0.0365
  778loPI    C310749  14.505   4.586   6.036  0.1266  0.1287 -0.3807
  778loPI   PO410750  14.158   4.030   5.856 -0.0120 -0.2791  0.2432
  778loPI   GL110751  14.313   3.649   6.010 -0.1811  0.1824  0.2956
  778loPI   GL210752  14.679   3.663   5.797 -0.0302  0.5380  0.2133
  778loPI   C1A10753  14.163   3.398   6.395 -0.2591  0.0253 -0.2636
  778loPI   C2A10754  14.509   3.273   6.740 -0.0518  0.2191  0.0618
  778loPI   C3A10755  14.687   3.313   7.144  0.4480 -0.0607  0.1811
  778loPI   C4A10756  14.592   3.099   7.459 -0.2535  0.1078  0.1901
  778loPI   C5A10757  14.260   3.103   7.638  0.1775 -0.1991 -0.5835
  778loPI   C6A10758  13.802   2.997   7.482 -0.0529 -0.0138 -0.0185
  778loPI   C1B10759  14.909   3.694   6.191 -0.1074  0.1577 -0.1971
  778loPI   C2B10760  15.005   3.492   6.656  0.2466 -0.0299  0.0886
  778loPI   C3B10761  15.021   3.617   7.009 -0.0100  0.0188 -0.0305
  778loPI   C4B10762  14.950   3.606   7.473 -0.1531  0.1926  0.0829
  779loPI    C110763   3.808   0.024   5.309 -0.1511 -0.1030  0.0889
  779loPI    C210764   3.755   0.401   5.187 -0.0240 -0.0856  0.0858
  779loPI    C310765   3.944   0.139   4.951 -0.0029 -0.1187  0.1395
  779loPI   PO410766   3.957  -0.001   5.485  0.2265 -0.0359 -0.1431
  779loPI   GL110767   4.098   0.085   5.924  0.0226  0.3350  0.0648
  779loPI   GL210768   4.207   0.353   5.935 -0.3655  0.0071  0.0442
  779loPI   C1A10769   4.164  -0.051   6.326 -0.1567  0.1327 -0.2934
  779loPI   C2A10770   4.007  -0.295   6.579 -0.2303 -0.1459 -0.0135
  779loPI   C3A10771   3.901  -0.231   7.068 -0.3328 -0.1288  0.0538
  779loPI   C4A10772   3.843  -0.355   7.480  0.3245 -0.0658 -0.1508
  779loPI   C5A10773   4.005  -0.304   7.901 -0.1713 -0.0779  0.0741
  779loPI   C6A10774   3.771  -0.405   8.313 -0.1994 -0.1960 -0.0383
  779loPI   C1B10775   4.415   0.356   6.312 -0.2332 -0.3849  0.1562
  779loPI   C2B10776   4.441   0.368   6.710  0.0715  0.2158  0.1245
  779loPI   C3B10777   4.476   0.398   7.192  0.2073  0.1730 -0.1851
  779loPI   C4B10778   4.457   0.566   7.639 -0.0019 -0.0684  0.1865
  780loPI    C110779  15.794   3.801   5.319 -0.0782 -0.1335 -0.1497
  780loPI    C210780  16.185   3.881   5.346 -0.1323  0.0706  0.0643
  780loPI    C310781  16.059   3.502   5.329  0.0634 -0.0025  0.2036
  780loPI   PO410782  15.738   3.972   5.612 -0.0471  0.3581  0.1510
  780loPI   GL110783  15.590   3.884   6.016 -0.1495  0.1352 -0.2128
  780loPI   GL210784  15.324   4.132   5.956 -0.0150 -0.0101 -0.4661
  780loPI   C1A10785  15.386   4.010   6.420 -0.2425 -0.2337 -0.2285
  780loPI   C2A10786  15.320   4.019   6.865 -0.0488 -0.0674  0.2265
  780loPI   C3A10787  15.146   4.044   7.258  0.1200 -0.1442 -0.0685
  780loPI   C4A10788  15.127   3.960   7.678 -0.1785  0.2706 -0.0939
  780loPI   C5A10789  14.989   3.684   7.971  0.2160 -0.0848 -0.1535
  780loPI   C6A10790  15.076   3.447   8.266  0.0894 -0.0721  0.1374
  780loPI   C1B10791  14.981   4.230   6.306 -0.0585  0.0460 -0.3145
  780loPI   C2B10792  14.591   4.466   6.526 -0.2103  0.1855 -0.3440
  780loPI   C3B10793  14.462   4.727   6.888  0.0374 -0.3425  0.0748
  780loPI   C4B10794  14.423   4.920   7.287  0.0281  0.1709 -0.2870
  781loPI    C110795   0.196   6.119   5.750  0.2451  0.1346 -0.1029
  781loPI    C210796   0.335   5.801   5.552  0.1894  0.0437  0.0033
  781loPI    C310797   0.151   6.095   5.353  0.1940 -0.0153 -0.0887
  781loPI   PO410798   0.314   6.119   5.991  0.2641  0.0559 -0.5135
  781loPI   GL110799   0.372   6.221   6.466  0.1472 -0.2778 -0.3010
  781loPI   GL210800   0.213   5.931   6.409  0.2494 -0.1122  0.0885
  781loPI   C1A10801   0.334   6.208   6.905  0.2152 -0.1725 -0.0904
  781loPI   C2A10802   0.247   6.232   7.287  0.0378  0.0105  0.3823
  781loPI   C3A10803   0.242   6.277   7.718  0.2259 -0.0578 -0.0807
  781loPI   C4A10804   0.289   6.453   8.049  0.2721 -0.1728  0.1566
  781loPI   C5A10805   0.150   6.289   8.439  0.1610  0.1082  0.1635
  781loPI   C6A10806   0.184   6.471   8.877 -0.0933 -0.1245 -0.3468
  781loPI   C1B10807  -0.050   5.893   6.804 -0.2255 -0.1434  0.3528
  781loPI   C2B10808  -0.139   5.825   7.239  0.1052 -0.3480  0.1412
  781loPI   C3B10809  -0.303   5.931   7.638  0.1663  0.1551  0.2153
  781loPI   C4B10810  -0.033   6.001   8.087 -0.0005 -0.0370  0.3482
  782loPI    C110811   9.872   8.752   5.540 -0.2433 -0.0752  0.0082
  782loPI    C210812   9.694   8.433   5.378  0.0036 -0.1071 -0.2072
  782loPI    C310813  10.057   8.545   5.253 -0.0177  0.1722 -0.0296
  782loPI   PO410814   9.669   8.935   5.536  0.0916  0.0397  0.0182
  782loPI   GL110815   9.551   9.190   5.947  0.0372 -0.2598 -0.0283
  782loPI   GL210816   9.806   9.169   6.043 -0.1572 -0.1582 -0.0504
  782loPI   C1A10817   9.421   9.391   6.489 -0.1752 -0.1033 -0.3612
  782loPI   C2A10818   9.263   9.597   6.880  0.0151 -0.1620  0.1754
  782loPI   C3A10819   9.175   9.704   7.333 -0.1403 -0.0766 -0.2057
  782loPI   C4A10820   9.253   9.738   7.668  0.2436  0.0477 -0.1088
  782loPI   C5A10821   9.278   9.500   8.065  0.2048  0.0507 -0.0833
  782loPI   C6A10822   9.047   9.490   8.461 -0.0556 -0.1119  0.0333
  782loPI   C1B10823   9.914   9.332   6.492  0.3047  0.0199  0.3323
  782loPI   C2B10824   9.685   9.314   6.927 -0.2137 -0.1355 -0.0611
  782loPI   C3B10825   9.608   9.512   7.232  0.1431 -0.0191 -0.5004
  782loPI   C4B10826   9.786   9.576   7.694 -0.2169 -0.0626  0.1126
  783loPI    C110827   6.856   0.252   5.597 -0.1425 -0.1005 -0.0520
  783loPI    C210828   7.064   0.571   5.476 -0.1166 -0.1143 -0.0440
  783loPI    C310829   6.987   0.273   5.220 -0.2656 -0.0358 -0.0918
  783loPI   PO410830   6.737   0.172   5.810 -0.0864  0.1239  0.1373
  783loPI   GL110831   6.954   0.094   6.231  0.1256  0.0693  0.1319
  783loPI   GL210832   7.148  -0.109   6.174  0.1662 -0.1510 -0.4185
  783loPI   C1A10833   6.691   0.271   6.524  0.1059  0.0436  0.3179
  783loPI   C2A10834   6.487   0.322   6.940  0.0319 -0.2574  0.0371
  783loPI   C3A10835   6.521   0.620   7.326 -0.2057 -0.0428 -0.0431
  783loPI   C4A10836   6.628   0.834   7.610  0.0066  0.1143  0.2008
  783loPI   C5A10837   7.057   0.904   7.906  0.0841 -0.1428 -0.0263
  783loPI   C6A10838   7.480   0.935   7.805  0.0888 -0.0700 -0.0714
  783loPI   C1B10839   7.115  -0.206   6.637  0.0527  0.1861 -0.2555
  783loPI   C2B10840   7.134  -0.159   7.021  0.2627  0.1524  0.2632
  783loPI   C3B10841   7.101  -0.118   7.464 -0.0006 -0.2245 -0.1916
  783loPI   C4B10842   7.034  -0.028   7.897  0.1704 -0.0177 -0.1812
  784loPI    C110843   3.056  14.813   5.701  0.0659 -0.2209  0.0307
  784loPI    C210844   3.269  14.885   5.370  0.0126  0.2703  0.0950
  784loPI    C310845   2.928  14.676   5.348  0.0884  0.1674 -0.1331
  784loPI   PO410846   3.177  14.612   5.890  0.0464 -0.2962  0.1642
  784loPI   GL110847   3.139  14.571   6.227  0.0148  0.2532  0.0225
  784loPI   GL210848   2.807  14.733   6.239  0.0462 -0.2106 -0.0442
  784loPI   C1A10849   3.412  14.562   6.588 -0.2867 -0.0589 -0.1706
  784loPI   C2A10850   3.437  14.761   7.093  0.2220 -0.1108 -0.3128
  784loPI   C3A10851   3.376  15.048   7.447  0.1788  0.1546  0.2820
  784loPI   C4A10852   3.489  14.689   7.768 -0.2392 -0.3266 -0.0381
  784loPI   C5A10853   3.364  14.327   7.987  0.3131 -0.1942 -0.1828
  784loPI   C6A10854   3.103  13.911   8.051 -0.1581 -0.3184 -0.0104
  784loPI   C1B10855   2.885  14.649   6.726 -0.3042  0.1951 -0.0122
  784loPI   C2B10856   2.964  14.546   7.189  0.2106 -0.1281 -0.2062
  784loPI   C3B10857   3.084  14.444   7.500 -0.2339  0.0848 -0.2561
  784loPI   C4B10858   2.901  14.377   7.885 -0.2100  0.3045  0.1359
  785loPI    C110859   1.820   2.982   5.263 -0.0229  0.0601  0.0617
  785loPI    C210860   1.431   3.048   5.331 -0.1043 -0.1472 -0.1867
  785loPI    C310861   1.555   2.936   4.967  0.1984 -0.0143 -0.1282
  785loPI   PO410862   1.967   2.941   5.509 -0.2503  0.2855  0.2997
  785loPI   GL110863   2.167   2.780   5.890  0.0979  0.0009  0.1478
  785loPI   GL210864   2.413   2.989   6.049 -0.2778  0.0582  0.0334
  785loPI   C1A10865   2.017   2.494   6.139  0.0088 -0.0394 -0.1867
  785loPI   C2A10866   1.942   2.529   6.522 -0.0408  0.2748  0.3144
  785loPI   C3A10867   1.993   2.366   6.879  0.0426 -0.2497 -0.2850
  785loPI   C4A10868   2.102   2.323   7.249  0.1180 -0.2476 -0.1372
  785loPI   C5A10869   2.191   2.263   7.655  0.1306  0.0206 -0.1151
  785loPI   C6A10870   2.335   2.402   8.065  0.0144  0.1297  0.3068
  785loPI   C1B10871   2.129   3.061   6.313 -0.2231  0.0096  0.1949
  785loPI   C2B10872   2.092   3.035   6.671  0.1158  0.0683  0.2951
  785loPI   C3B10873   2.270   2.800   7.086 -0.0720 -0.2254 -0.3387
  785loPI   C4B10874   2.012   2.776   7.467  0.0560  0.1711  0.2847
  786loPI    C110875   1.540  15.089   5.759 -0.2278 -0.1608 -0.0002
  786loPI    C210876   1.303  15.186   5.452 -0.1816 -0.1194 -0.0229
  786loPI    C310877   1.650  14.999   5.386 -0.2093 -0.1828  0.0105
  786loPI   PO410878   1.480  14.960   5.919 -0.0184 -0.0446  0.0064
  786loPI   GL110879   1.288  15.062   6.276  0.0087 -0.1885  0.0069
  786loPI   GL210880   1.536  15.352   6.494 -0.3315  0.0775 -0.0410
  786loPI   C1A10881   1.251  14.855   6.740 -0.3904 -0.2584 -0.0892
  786loPI   C2A10882   1.361  14.762   7.206  0.1142  0.1386 -0.1306
  786loPI   C3A10883   1.371  14.721   7.605 -0.0161  0.0024 -0.1487
  786loPI   C4A10884   1.362  14.547   7.972 -0.3236  0.2984 -0.1054
  786loPI   C5A10885   1.476  14.128   8.189 -0.0105 -0.0609  0.3034
  786loPI   C6A10886   1.601  13.849   8.352  0.2739 -0.1053  0.0743
  786loPI   C1B10887   1.470  15.316   6.892 -0.1008  0.1309  0.2066
  786loPI   C2B10888   1.554  15.257   7.372  0.1702 -0.0391 -0.3677
  786loPI   C3B10889   1.723  15.344   7.751 -0.0191 -0.2049  0.1191
  786loPI   C4B10890   1.726  15.116   8.220  0.0458  0.0324 -0.1609
  787loPI    C110891   4.362  16.196   5.892  0.2113 -0.1682 -0.0878
  787loPI    C210892   4.449  15.858   5.698 -0.1736 -0.2821 -0.0693
  787loPI    C310893   4.174  16.108   5.550  0.1766  0.0741 -0.1330
  787loPI   PO410894   4.348  16.286   6.129 -0.0752 -0.1162 -0.0687
  787loPI   GL110895   4.478  16.315   6.528 -0.1623 -0.0001 -0.2349
  787loPI   GL210896   4.577  16.668   6.603 -0.1991  0.0313 -0.3065
  787loPI   C1A10897   4.387  16.234   6.901  0.2383 -0.1030 -0.4399
  787loPI   C2A10898   4.301  16.187   7.402  0.0767 -0.4050 -0.0645
  787loPI   C3A10899   4.246  16.368   7.806  0.2417  0.0811  0.0516
  787loPI   C4A10900   4.113  16.422   8.237  0.0580  0.0959  0.1929
  787loPI   C5A10901   4.183  16.070   8.569  0.0840 -0.2368 -0.1050
  787loPI   C6A10902   3.885  15.672   8.541  0.1592  0.1644 -0.3128
  787loPI   C1B10903   4.646  16.662   6.983  0.1749 -0.3488  0.1078
  787loPI   C2B10904   4.643  16.541   7.375 -0.0352  0.1069 -0.1021
  787loPI   C3B10905   4.663  16.704   7.765  0.0611  0.0580 -0.7295
  787loPI   C4B10906   4.672  16.750   8.173 -0.2421 -0.2602  0.0161
  788loPI    C110907  16.373   7.874   5.720 -0.0749  0.2459 -0.1008
  788loPI    C210908  16.128   7.624   5.528 -0.2674  0.2658  0.1147
  788loPI    C310909  16.457   7.760   5.346 -0.0624 -0.2854  0.0565
  788loPI   PO410910  16.367   7.844   5.975  0.1164 -0.0326  0.2908
  788loPI   GL110911  16.072   7.692   6.168  0.2010  0.1383 -0.2068
  788loPI   GL210912  15.714   7.768   6.308  0.3481 -0.0981  0.0791
  788loPI   C1A10913  16.235   7.837   6.606 -0.0632  0.1657 -0.2842
  788loPI   C2A10914  16.250   7.820   7.028 -0.2386 -0.0335 -0.0533
  788loPI   C3A10915  16.148   7.864   7.351  0.0006  0.0304  0.1622
  788loPI   C4A10916  16.319   8.041   7.661 -0.1384 -0.0225 -0.0853
  788loPI   C5A10917  16.430   8.146   8.055 -0.0225  0.1420 -0.0865
  788loPI   C6A10918  16.487   8.050   8.504 -0.0020  0.2980 -0.1623
  788loPI   C1B10919  15.394   7.596   6.575  0.1810 -0.0131  0.0340
  788loPI   C2B10920  15.445   7.288   6.825 -0.1448 -0.3756 -0.2747
  788loPI   C3B10921  15.724   7.151   7.036  0.3443  0.1310  0.2575
  788loPI   C4B10922  15.686   6.918   7.415  0.0733  0.0957  0.1907
  789loPI    C110923   0.938  12.455   5.418 -0.0857 -0.1586  0.0645
  789loPI    C210924   1.074  12.189   5.152 -0.0165 -0.1247  0.0659
  789loPI    C310925   0.688  12.188   5.256  0.0249 -0.3626  0.2245
  789loPI   PO410926   1.117  12.431   5.687  0.1913  0.2885  0.0062
  789loPI   GL110927   1.275  12.632   6.075 -0.2673  0.0486 -0.1735
  789loPI   GL210928   1.578  12.711   6.159 -0.0372  0.0532 -0.0220
  789loPI   C1A10929   0.992  12.578   6.560  0.3851  0.3138  0.3129
  789loPI   C2A10930   0.653  12.762   6.795  0.1312 -0.1164  0.0613
  789loPI   C3A10931   0.583  12.756   7.254  0.0631 -0.0749  0.4370
  789loPI   C4A10932   0.379  12.593   7.643 -0.0545 -0.1259  0.0416
  789loPI   C5A10933   0.311  12.631   8.067 -0.0802 -0.0992 -0.2999
  789loPI   C6A10934   0.490  12.980   8.342 -0.0450 -0.0315 -0.0821
  789loPI   C1B10935   1.488  12.712   6.579  0.0764  0.0515  0.1712
  789loPI   C2B10936   1.311  12.546   6.913 -0.2835  0.0449 -0.0957
  789loPI   C3B10937   1.038  12.344   7.120  0.1748  0.1467 -0.2240
  789loPI   C4B10938   0.601  12.304   7.160  0.0354 -0.0985  0.0939
  790loPI    C110939   0.240   3.398   5.360 -0.1482  0.1883  0.2096
  790loPI    C210940   0.586   3.586   5.432 -0.1264  0.1517  0.2005
  790loPI    C310941   0.397   3.641   5.084  0.0412 -0.0894  0.0684
  790loPI   PO410942   0.256   3.310   5.657  0.0878  0.0072 -0.1330
  790loPI   GL110943   0.348   3.089   5.969  0.0161  0.0573  0.0812
  790loPI   GL210944   0.373   2.822   5.893 -0.1268  0.3799 -0.0703
  790loPI   C1A10945   0.230   3.115   6.342 -0.0669  0.2669 -0.0787
  790loPI   C2A10946   0.273   3.014   6.730  0.1492 -0.3033 -0.0198
  790loPI   C3A10947   0.269   3.077   7.163 -0.1955  0.3981 -0.2200
  790loPI   C4A10948   0.382   2.863   7.566 -0.3015 -0.0100  0.0151
  790loPI   C5A10949   0.230   2.542   7.884 -0.0852 -0.0074  0.1187
  790loPI   C6A10950   0.135   2.215   8.109 -0.0918 -0.2417  0.3131
  790loPI   C1B10951   0.459   2.626   6.295 -0.1603  0.1366 -0.0400
  790loPI   C2B10952   0.687   2.672   6.715  0.1560 -0.0277 -0.1787
  790loPI   C3B10953   0.533   2.608   7.145 -0.0141 -0.3088 -0.0365
  790loPI   C4B10954   0.791   2.573   7.572 -0.3194  0.4432 -0.0920
  791loPI    C110955  15.553  13.798   5.728  0.1676 -0.0675  0.0407
  791loPI    C210956  15.573  13.554   5.411  0.0053 -0.2224  0.1480
  791loPI    C310957  15.642  13.946   5.366  0.0319 -0.2507 -0.0692
  791loPI   PO410958  15.314  13.758   5.813 -0.2184  0.1644  0.3906
  791loPI   GL110959  15.095  13.555   6.151  0.2312 -0.1253  0.0147
  791loPI   GL210960  15.336  13.423   6.187 -0.2197 -0.1781 -0.0864
  791loPI   C1A10961  15.055  13.728   6.588 -0.1452 -0.0617 -0.0559
  791loPI   C2A10962  15.092  13.721   7.077  0.0222  0.2200  0.0436
  791loPI   C3A10963  15.100  13.712   7.544  0.1100  0.0805  0.1051
  791loPI   C4A10964  14.778  13.763   7.836  0.0487  0.1759  0.1261
  791loPI   C5A10965  14.356  13.876   7.927 -0.0177  0.3281 -0.2411
  791loPI   C6A10966  14.335  14.110   7.583  0.1288  0.0468  0.4379
  791loPI   C1B10967  15.504  13.355   6.641 -0.2580  0.1212  0.0519
  791loPI   C2B10968  15.440  13.356   6.992  0.0805 -0.0570  0.0827
  791loPI   C3B10969  15.241  13.238   7.421  0.1912 -0.0126  0.1619
  791loPI   C4B10970  15.071  13.289   7.854 -0.2619 -0.3705 -0.2636
  792loPI    C110971  11.983   2.546   5.432 -0.1225  0.3412  0.1849
  792loPI    C210972  12.348   2.646   5.301 -0.0928 -0.0516 -0.0503
  792loPI    C310973  12.031   2.870   5.203  0.0245  0.0432 -0.2173
  792loPI   PO410974  12.053   2.476   5.714 -0.2742  0.1505  0.2726
  792loPI   GL110975  11.922   2.552   6.054 -0.2068  0.1562  0.0028
  792loPI   GL210976  12.224   2.666   6.195  0.0632 -0.0603 -0.1295
  792loPI   C1A10977  11.751   2.541   6.501 -0.1123 -0.0689 -0.0256
  792loPI   C2A10978  11.884   2.693   6.835 -0.1223  0.0536 -0.0133
  792loPI   C3A10979  12.030   2.797   7.199 -0.1815 -0.0790 -0.3346
  792loPI   C4A10980  12.023   2.992   7.619 -0.1275 -0.0260 -0.3701
  792loPI   C5A10981  11.673   3.073   7.984  0.0100 -0.1370  0.0301
  792loPI   C6A10982  11.400   2.878   8.173  0.0988 -0.4049 -0.0449
  792loPI   C1B10983  12.283   2.817   6.582 -0.2241  0.3149 -0.0278
  792loPI   C2B10984  12.502   2.807   6.960 -0.0701 -0.1019  0.2499
  792loPI   C3B10985  12.474   2.818   7.426  0.2081 -0.1429  0.2405
  792loPI   C4B10986  12.575   2.913   7.834 -0.1967 -0.0382 -0.0202
  793loPI    C110987   8.294  15.045   5.581 -0.1475  0.0059 -0.1668
  793loPI    C210988   8.580  15.271   5.416 -0.0083 -0.0587 -0.0161
  793loPI    C310989   8.320  15.077   5.183  0.1174 -0.0603 -0.1570
  793loPI   PO410990   8.186  15.257   5.745  0.1667 -0.3107  0.0180
  793loPI   GL110991   8.220  15.293   6.287 -0.0554  0.0449 -0.1860
  793loPI   GL210992   7.966  15.158   6.454 -0.2578  0.0860  0.0238
  793loPI   C1A10993   8.409  15.322   6.768 -0.0599 -0.2742  0.0857
  793loPI   C2A10994   8.549  15.435   7.114  0.1658  0.2712 -0.0301
  793loPI   C3A10995   8.575  15.334   7.592  0.2326 -0.0177  0.1629
  793loPI   C4A10996   8.735  15.355   8.018  0.0485 -0.0008  0.0490
  793loPI   C5A10997   9.194  15.288   8.348 -0.1063  0.0428  0.0970
  793loPI   C6A10998   9.460  15.109   8.590 -0.2264 -0.0188 -0.0230
  793loPI   C1B10999   8.057  14.973   6.833  0.1086  0.3019  0.1174
  793loPI   C2B11000   7.940  14.906   7.127  0.4576  0.1358  0.1556
  793loPI   C3B11001   7.897  14.766   7.625  0.1542 -0.2518 -0.0894
  793loPI   C4B11002   7.850  14.679   8.060  0.0659 -0.1749 -0.3472
  794loPI    C111003  17.388   3.292   5.425  0.1834 -0.1589 -0.1534
  794loPI    C211004  17.322   3.684   5.463  0.1544 -0.1947  0.1929
  794loPI    C311005  17.125   3.475   5.186  0.1757  0.0348  0.0010
  794loPI   PO411006  17.353   3.239   5.736  0.1886 -0.1144  0.0081
  794loPI   GL111007  17.558   3.256   6.114 -0.1592  0.0171 -0.0275
  794loPI   GL211008  17.482   3.432   6.363  0.0699  0.0452  0.0299
  794loPI   C1A11009  17.801   2.979   6.299  0.2630 -0.2106  0.0688
  794loPI   C2A11010  17.863   2.891   6.655 -0.3954 -0.1292  0.0331
  794loPI   C3A11011  17.792   2.868   7.018  0.0941 -0.2558  0.2811
  794loPI   C4A11012  17.614   2.666   7.423  0.0896 -0.0329 -0.0030
  794loPI   C5A11013  17.427   2.776   7.833  0.2715  0.1005  0.3308
  794loPI   C6A11014  17.545   3.108   8.168 -0.1288  0.3686  0.0864
  794loPI   C1B11015  17.490   3.489   6.793 -0.1796  0.1245 -0.2357
  794loPI   C2B11016  17.531   3.325   7.151  0.1324  0.1853 -0.0786
  794loPI   C3B11017  17.817   3.226   7.460  0.3556 -0.0405 -0.0139
  794loPI   C4B11018  17.994   2.864   7.701  0.2005 -0.1521 -0.0775
  795loPI    C111019   1.631  16.840   5.533  0.1825 -0.0248 -0.2779
  795loPI    C211020   1.527  17.210   5.645  0.2182 -0.1582  0.2227
  795loPI    C311021   1.256  16.969   5.475  0.1819  0.0758 -0.0605
  795loPI   PO411022   1.828  16.776   5.801  0.0598  0.1128 -0.1060
  795loPI   GL111023   1.817  16.905   6.210 -0.0172  0.2602 -0.5755
  795loPI   GL211024   2.124  16.938   6.360  0.1977  0.2490 -0.4214
  795loPI   C1A11025   1.729  16.964   6.627  0.0391 -0.1123  0.0743
  795loPI   C2A11026   1.634  16.949   7.071  0.2153  0.0240  0.1053
  795loPI   C3A11027   1.633  16.864   7.515  0.1927 -0.0877 -0.2945
  795loPI   C4A11028   1.614  17.138   7.790  0.0651 -0.1848  0.1610
  795loPI   C5A11029   1.747  17.358   8.171  0.1175 -0.1319  0.3107
  795loPI   C6A11030   2.108  17.408   8.459  0.1721 -0.0021  0.1196
  795loPI   C1B11031   2.123  16.804   6.855 -0.0169  0.1895  0.1787
  795loPI   C2B11032   2.003  16.668   7.235  0.2674  0.1041 -0.0035
  795loPI   C3B11033   2.269  16.588   7.637 -0.1167 -0.3367 -0.1057
  795loPI   C4B11034   2.305  16.612   8.078  0.1987 -0.0180 -0.1745
  796loPI    C111035  10.825   8.081   5.608 -0.2722 -0.0761 -0.3310
  796loPI    C211036  10.648   7.723   5.624  0.0464 -0.2261 -0.0206
  796loPI    C311037  10.650   7.930   5.282 -0.6958 -0.2270 -0.0413
  796loPI   PO411038  11.069   8.103   5.857  0.3975  0.1316 -0.0099
  796loPI   GL111039  11.354   8.164   6.130 -0.0603 -0.2668  0.1649
  796loPI   GL211040  11.450   8.378   6.282 -0.0014 -0.2743  0.3670
  796loPI   C1A11041  11.111   7.935   6.508 -0.0227 -0.0660  0.1556
  796loPI   C2A11042  11.033   7.894   6.849 -0.0309 -0.1312 -0.2440
  796loPI   C3A11043  11.121   7.816   7.330  0.2060 -0.4407 -0.1538
  796loPI   C4A11044  11.145   7.657   7.802  0.0324  0.0854 -0.4579
  796loPI   C5A11045  10.907   7.790   8.251 -0.3195 -0.0689  0.2510
  796loPI   C6A11046  10.505   8.148   8.461  0.0034 -0.2130  0.1713
  796loPI   C1B11047  11.563   8.610   6.630  0.0558  0.1522  0.0379
  796loPI   C2B11048  11.579   8.652   7.054 -0.0366 -0.0194 -0.0377
  796loPI   C3B11049  11.454   8.589   7.542 -0.0234  0.0573 -0.0293
  796loPI   C4B11050  11.661   8.713   7.917  0.2564 -0.0129 -0.4069
  797loPI    C111051   4.515  10.002   5.787 -0.0985  0.2395 -0.1280
  797loPI    C211052   4.393  10.161   5.441 -0.1808 -0.0970 -0.2576
  797loPI    C311053   4.433   9.765   5.475 -0.4035 -0.0868  0.1905
  797loPI   PO411054   4.750  10.173   5.893  0.2075 -0.5889  0.1737
  797loPI   GL111055   5.109  10.291   6.202  0.3164 -0.2990 -0.0051
  797loPI   GL211056   5.227  10.563   6.202  0.1244  0.0252 -0.0380
  797loPI   C1A11057   5.548  10.096   6.333  0.0033  0.0323  0.0613
  797loPI   C2A11058   5.828   9.853   6.570 -0.0526 -0.1927 -0.0889
  797loPI   C3A11059   6.074   9.820   6.833  0.1928 -0.4107  0.1171
  797loPI   C4A11060   6.170   9.733   7.207  0.0182 -0.1591 -0.0469
  797loPI   C5A11061   6.368   9.665   7.650  0.2856 -0.0551 -0.1251
  797loPI   C6A11062   6.681   9.356   7.768 -0.3438  0.1162 -0.0109
  797loPI   C1B11063   5.357  10.479   6.604 -0.0771  0.1196  0.3371
  797loPI   C2B11064   5.372  10.493   7.121  0.1629 -0.1722  0.0956
  797loPI   C3B11065   5.175  10.477   7.549 -0.0915 -0.3386 -0.1948
  797loPI   C4B11066   5.026  10.745   7.938  0.2446 -0.1481  0.2640
  798loPI    C111067  15.386   5.575   5.532 -0.1689  0.0316  0.1483
  798loPI    C211068  15.395   5.325   5.220  0.0402 -0.0208  0.1942
  798loPI    C311069  15.232   5.689   5.181 -0.0500 -0.0747  0.0607
  798loPI   PO411070  15.278   5.430   5.788  0.2636 -0.2209 -0.1470
  798loPI   GL111071  15.374   5.524   6.158 -0.1632 -0.0805  0.4316
  798loPI   GL211072  15.207   5.819   6.317 -0.2689 -0.1394 -0.0609
  798loPI   C1A11073  15.780   5.556   6.447 -0.2187 -0.1732  0.1046
  798loPI   C2A11074  15.909   5.410   6.913  0.2917  0.0629 -0.0600
  798loPI   C3A11075  15.785   5.385   7.250 -0.0611  0.0401  0.2158
  798loPI   C4A11076  15.676   5.407   7.645 -0.1649 -0.0758  0.0752
  798loPI   C5A11077  15.341   5.183   7.976  0.0810  0.2801 -0.1925
  798loPI   C6A11078  15.053   5.289   8.376  0.2691  0.1840 -0.1746
  798loPI   C1B11079  15.309   5.599   6.676 -0.3078 -0.0726  0.1534
  798loPI   C2B11080  15.259   5.535   7.136 -0.1523 -0.2010 -0.2321
  798loPI   C3B11081  15.164   5.489   7.513 -0.0561  0.2099  0.0176
  798loPI   C4B11082  15.297   5.653   7.891 -0.0458  0.0936 -0.0942
  799loPI    C111083  11.222  11.309   5.539  0.1580 -0.2771 -0.0576
  799loPI    C211084  11.207  11.597   5.263 -0.2116 -0.0877  0.1516
  799loPI    C311085  11.163  11.215   5.155 -0.0075 -0.0456 -0.0913
  799loPI   PO411086  11.068  11.364   5.823  0.1132  0.4591  0.0428
  799loPI   GL111087  10.968  11.311   6.266  0.0740 -0.4674 -0.1461
  799loPI   GL211088  11.101  11.434   6.480 -0.0389 -0.1468  0.1439
  799loPI   C1A11089  10.615  11.457   6.553 -0.0138  0.0493 -0.1956
  799loPI   C2A11090  10.414  11.383   6.968  0.2522 -0.1839 -0.0890
  799loPI   C3A11091  10.535  11.452   7.394 -0.0564  0.1608  0.2209
  799loPI   C4A11092  10.687  11.608   7.819  0.2333  0.1197  0.5063
  799loPI   C5A11093  10.816  11.473   8.089 -0.1465  0.1040  0.1891
  799loPI   C6A11094  11.100  11.697   8.436  0.2301 -0.1573 -0.0504
  799loPI   C1B11095  11.018  11.439   6.910 -0.2566 -0.2236  0.1431
  799loPI   C2B11096  11.035  11.574   7.406 -0.0285  0.0593 -0.1131
  799loPI   C3B11097  11.236  11.773   7.873  0.2051 -0.0788 -0.2368
  799loPI   C4B11098  11.555  11.538   8.072  0.1759 -0.1015  0.0754
  800loPI    C111099   2.272  10.515   5.662 -0.0843 -0.0911 -0.0330
  800loPI    C211100   2.579  10.627   5.431 -0.1655  0.0474 -0.0750
  800loPI    C311101   2.277  10.416   5.275 -0.0626 -0.1439 -0.0193
  800loPI   PO411102   2.398  10.365   5.907 -0.0045 -0.1297  0.0020
  800loPI   GL111103   2.643  10.460   6.214 -0.2082 -0.2071 -0.0012
  800loPI   GL211104   3.023  10.275   6.172  0.0360  0.0216 -0.1139
  800loPI   C1A11105   2.652  10.473   6.617  0.1592 -0.1108 -0.0862
  800loPI   C2A11106   2.639  10.478   7.176  0.3116  0.1690 -0.4006
  800loPI   C3A11107   2.637  10.476   7.574  0.1072 -0.1452 -0.1864
  800loPI   C4A11108   2.863  10.202   7.905  0.1363 -0.1278  0.4310
  800loPI   C5A11109   2.930   9.739   7.828  0.0798 -0.2926  0.1924
  800loPI   C6A11110   2.674   9.292   7.761 -0.3927 -0.1252 -0.1906
  800loPI   C1B11111   3.245  10.307   6.530  0.0665  0.0357 -0.2192
  800loPI   C2B11112   3.473  10.143   6.899 -0.0424 -0.2499  0.0469
  800loPI   C3B11113   3.358  10.255   7.300 -0.0559 -0.1291  0.3753
  800loPI   C4B11114   3.121  10.542   7.538 -0.0463 -0.0610  0.0829
  801loPI    C111115   2.669  16.190   5.802  0.0804 -0.0434  0.0546
  801loPI    C211116   2.981  16.089   5.573 -0.0946 -0.1275 -0.1503
  801loPI    C311117   2.609  16.056   5.430 -0.1930  0.0922  0.0473
  801loPI   PO411118   2.794  16.143   6.103  0.0208 -0.1268 -0.1553
  801loPI   GL111119   2.688  15.848   6.386 -0.2240  0.1541 -0.3383
  801loPI   GL211120   2.870  15.613   6.417 -0.2840  0.2275  0.2419
  801loPI   C1A11121   2.595  15.995   6.780  0.0958  0.0053  0.0625
  801loPI   C2A11122   2.751  15.926   7.148 -0.0022 -0.5302 -0.1933
  801loPI   C3A11123   2.887  15.950   7.558 -0.0118 -0.2290  0.1362
  801loPI   C4A11124   3.066  15.867   7.790  0.0898 -0.0834  0.3656
  801loPI   C5A11125   3.224  15.772   8.295  0.1068 -0.0717  0.1224
  801loPI   C6A11126   3.323  15.693   8.698 -0.2229 -0.1056  0.2133
  801loPI   C1B11127   2.945  15.549   6.866 -0.0140  0.0387 -0.3273
  801loPI   C2B11128   3.151  15.494   7.298  0.1535 -0.2876  0.0437
  801loPI   C3B11129   3.107  15.370   7.700  0.2582  0.0376  0.1949
  801loPI   C4B11130   2.964  15.239   8.114  0.0606  0.1385  0.0616
  802loPI    C111131  13.455   6.699   5.255 -0.0206 -0.0882  0.2745
  802loPI    C211132  13.077   6.827   5.276 -0.0685 -0.1315 -0.2013
  802loPI    C311133  13.372   7.087   5.202 -0.0186 -0.1199  0.0289
  802loPI   PO411134  13.515   6.521   5.513  0.1377 -0.1673 -0.2255
  802loPI   GL111135  13.676   6.519   5.926  0.1168  0.1264  0.0758
  802loPI   GL211136  13.357   6.560   6.104 -0.0043 -0.1055  0.0108
  802loPI   C1A11137  13.923   6.537   6.259 -0.1057 -0.1436 -0.0638
  802loPI   C2A11138  13.871   6.329   6.648  0.0707 -0.1508 -0.2250
  802loPI   C3A11139  14.061   6.333   7.096  0.1334 -0.3495 -0.0197
  802loPI   C4A11140  13.775   6.487   7.397  0.0278 -0.0455 -0.2457
  802loPI   C5A11141  13.949   6.353   7.758 -0.2673 -0.4116  0.0522
  802loPI   C6A11142  14.137   6.173   8.188 -0.0869  0.1622  0.0177
  802loPI   C1B11143  13.434   6.543   6.600  0.2616 -0.1237 -0.1941
  802loPI   C2B11144  13.411   6.448   7.015 -0.0278 -0.4659 -0.2318
  802loPI   C3B11145  13.374   6.745   7.299  0.0510 -0.2626  0.0479
  802loPI   C4B11146  13.493   7.081   7.438 -0.2704  0.2610 -0.0858
  803loPI    C111147  10.872   3.546   5.689 -0.1729 -0.1337  0.1451
  803loPI    C211148  10.858   3.234   5.439 -0.1008  0.0854 -0.1382
  803loPI    C311149  11.211   3.375   5.564 -0.1352  0.0086  0.0486
  803loPI   PO411150  10.595   3.480   5.843  0.0288 -0.3387  0.2465
  803loPI   GL111151  10.465   3.738   6.206 -0.2471 -0.3162  0.1007
  803loPI   GL211152  10.385   4.096   6.046 -0.0250  0.0597  0.1616
  803loPI   C1A11153  10.877   3.674   6.423  0.0811  0.1222  0.2851
  803loPI   C2A11154  11.186   3.775   6.602  0.1035  0.0980 -0.0237
  803loPI   C3A11155  11.532   3.639   7.008 -0.0628  0.0257 -0.1540
  803loPI   C4A11156  11.862   3.533   7.189  0.2535  0.2389 -0.0070
  803loPI   C5A11157  12.101   3.514   7.577 -0.0790  0.1324 -0.0928
  803loPI   C6A11158  12.443   3.410   7.968  0.2563  0.2193  0.0751
  803loPI   C1B11159  10.440   4.141   6.459  0.1813 -0.1365  0.0067
  803loPI   C2B11160  10.537   3.942   6.812  0.3941 -0.1645  0.4712
  803loPI   C3B11161  10.614   3.972   7.220  0.0990 -0.1347  0.1288
  803loPI   C4B11162  10.886   4.232   7.344 -0.4247  0.2102  0.0922
  804loPI    C111163   5.756   4.453   5.341  0.0991 -0.0114  0.1916
  804loPI    C211164   6.006   4.158   5.236  0.0285  0.0385 -0.1262
  804loPI    C311165   5.612   4.117   5.178  0.0140  0.1763 -0.1297
  804loPI   PO411166   5.824   4.543   5.544 -0.2125  0.1287 -0.0571
  804loPI   GL111167   5.859   4.479   5.961  0.0969 -0.1655  0.1599
  804loPI   GL211168   5.695   4.235   6.069  0.1498 -0.0195  0.0249
  804loPI   C1A11169   5.978   4.687   6.445 -0.2069  0.0774  0.1981
  804loPI   C2A11170   6.159   4.605   6.822 -0.2158 -0.1014  0.0334
  804loPI   C3A11171   6.101   4.780   7.252 -0.1135 -0.2544  0.2676
  804loPI   C4A11172   6.138   4.854   7.581  0.2837 -0.3858  0.0744
  804loPI   C5A11173   6.271   5.192   7.824 -0.0566  0.2213 -0.1616
  804loPI   C6A11174   6.554   5.507   8.092 -0.3205  0.0506  0.1523
  804loPI   C1B11175   5.598   4.259   6.445  0.0264 -0.1366 -0.0722
  804loPI   C2B11176   5.751   4.293   6.890  0.2822 -0.0280  0.0402
  804loPI   C3B11177   5.781   4.391   7.271 -0.0326  0.0495 -0.2493
  804loPI   C4B11178   5.649   4.100   7.704 -0.2963  0.1969 -0.3600
  805loPI    C111179  13.965   2.971   5.505  0.1745 -0.0812  0.0762
  805loPI    C211180  14.150   3.028   5.155  0.0545  0.0792  0.0380
  805loPI    C311181  13.755   2.961   5.164  0.0487  0.1262  0.1453
  805loPI   PO411182  14.121   2.786   5.609  0.1931  0.2220 -0.0921
  805loPI   GL111183  14.324   2.892   6.039 -0.0389  0.1514  0.3030
  805loPI   GL211184  14.160   2.620   6.096  0.1092 -0.0984 -0.0998
  805loPI   C1A11185  14.653   3.081   6.274 -0.1610 -0.1494  0.0928
  805loPI   C2A11186  14.873   2.974   6.655  0.0957 -0.0309 -0.1068
  805loPI   C3A11187  15.132   2.713   6.942  0.2071  0.2841 -0.2133
  805loPI   C4A11188  15.118   2.681   7.362  0.2653  0.0801 -0.0541
  805loPI   C5A11189  14.992   2.689   7.761 -0.0384  0.0373 -0.3294
  805loPI   C6A11190  14.730   2.380   7.904 -0.0452 -0.0309 -0.1864
  805loPI   C1B11191  14.309   2.731   6.492 -0.1114 -0.0314 -0.2290
  805loPI   C2B11192  14.600   2.589   6.695 -0.2273 -0.1635  0.1015
  805loPI   C3B11193  14.673   2.603   7.133  0.0562  0.0586  0.3035
  805loPI   C4B11194  14.504   2.599   7.500  0.2116  0.1211  0.1988
  806loPI    C111195   6.397   7.461   5.352  0.3772 -0.0209 -0.1255
  806loPI    C211196   6.248   7.815   5.237  0.2713 -0.0098  0.0423
  806loPI    C311197   6.165   7.485   5.027 -0.0734 -0.0188  0.1864
  806loPI   PO411198   6.685   7.510   5.464 -0.1818  0.0283  0.2865
  806loPI   GL111199   6.979   7.320   5.735 -0.2148  0.0200 -0.1944
  806loPI   GL211200   7.120   7.163   5.849 -0.0922 -0.2726 -0.0547
  806loPI   C1A11201   7.154   7.629   6.047  0.0966  0.1192 -0.0591
  806loPI   C2A11202   7.029   7.970   6.221  0.1106 -0.3548  0.1996
  806loPI   C3A11203   7.134   8.176   6.594  0.1830  0.2300  0.0142
  806loPI   C4A11204   7.118   8.226   7.068  0.1709  0.0981  0.0234
  806loPI   C5A11205   7.039   8.416   7.533  0.2661 -0.2452 -0.0713
  806loPI   C6A11206   6.606   8.392   7.825  0.1458 -0.4056 -0.2531
  806loPI   C1B11207   7.071   6.844   6.101 -0.0609 -0.1794 -0.2165
  806loPI   C2B11208   7.203   6.729   6.498  0.3536  0.0987 -0.0641
  806loPI   C3B11209   7.053   6.755   6.930  0.1095 -0.1985 -0.1296
  806loPI   C4B11210   6.985   6.764   7.416  0.1354 -0.1249  0.4435
  807loPI    C111211  11.209   2.997   5.828  0.1156  0.0700  0.0601
  807loPI    C211212  11.226   2.844   5.458  0.0819 -0.0056  0.0896
  807loPI    C311213  11.499   2.740   5.732  0.0065 -0.0830  0.1360
  807loPI   PO411214  10.979   2.966   5.863  0.1479  0.1208 -0.2145
  807loPI   GL111215  10.752   2.988   6.158  0.4884  0.0264  0.1261
  807loPI   GL211216  10.605   3.228   6.311  0.3076 -0.0679 -0.0330
  807loPI   C1A11217  10.927   2.992   6.666  0.2599  0.1538  0.0586
  807loPI   C2A11218  10.885   3.050   7.019  0.1105 -0.0790 -0.2531
  807loPI   C3A11219  11.045   2.955   7.344  0.3673  0.0151 -0.1210
  807loPI   C4A11220  11.051   2.871   7.811 -0.0993 -0.0462  0.0267
  807loPI   C5A11221  10.724   2.865   8.116 -0.0058 -0.1281 -0.0021
  807loPI   C6A11222  10.549   2.420   8.192  0.0386 -0.0780  0.1221
  807loPI   C1B11223  10.621   3.410   6.751 -0.1607  0.1226  0.0435
  807loPI   C2B11224  10.567   3.446   7.227 -0.2315  0.0691  0.4976
  807loPI   C3B11225  10.592   3.481   7.586  0.2682 -0.0598  0.0026
  807loPI   C4B11226  10.528   3.302   7.953 -0.0742  0.2571 -0.0702
  808loPI    C111227  13.582  13.427   5.743 -0.0586 -0.1718 -0.1161
  808loPI    C211228  13.449  13.517   5.377 -0.0305  0.0335 -0.0774
  808loPI    C311229  13.743  13.732   5.541 -0.0922 -0.0120  0.0947
  808loPI   PO411230  13.626  13.235   5.785  0.0726  0.1687 -0.2214
  808loPI   GL111231  13.489  13.025   6.193  0.0907  0.2351 -0.0742
  808loPI   GL211232  13.458  12.741   6.460 -0.0222 -0.1944 -0.1865
  808loPI   C1A11233  13.870  13.062   6.509  0.1123 -0.0069 -0.0141
  808loPI   C2A11234  13.884  13.126   6.946 -0.2922  0.0014 -0.5580
  808loPI   C3A11235  13.721  13.035   7.385 -0.1056  0.0682  0.0270
  808loPI   C4A11236  13.741  13.120   7.840 -0.2346  0.0521  0.4284
  808loPI   C5A11237  13.903  12.888   8.095  0.3181  0.0829  0.1987
  808loPI   C6A11238  13.813  12.583   8.532  0.1653 -0.1224 -0.0241
  808loPI   C1B11239  13.451  12.617   6.827 -0.1058 -0.3643 -0.0125
  808loPI   C2B11240  13.446  12.651   7.347 -0.0458  0.3769  0.1443
  808loPI   C3B11241  13.485  12.704   7.896  0.0258  0.1826  0.2129
  808loPI   C4B11242  13.335  13.053   8.185  0.2475 -0.2081  0.4345
  809loPI    C111243   0.091  16.939   5.820  0.0869 -0.0451 -0.1237
  809loPI    C211244   0.160  17.214   5.538  0.0099  0.0592 -0.0417
  809loPI    C311245  -0.124  16.938   5.483 -0.1050  0.1692 -0.0048
  809loPI   PO411246   0.066  17.005   6.017  0.0228 -0.5727 -0.0462
  809loPI   GL111247  -0.088  17.177   6.383  0.1120  0.3275  0.0765
  809loPI   GL211248  -0.319  17.021   6.263 -0.1451  0.2067  0.2226
  809loPI   C1A11249  -0.150  17.223   6.947 -0.0035  0.3347  0.2734
  809loPI   C2A11250  -0.290  17.233   7.287  0.1511 -0.0081 -0.0095
  809loPI   C3A11251  -0.451  16.936   7.581  0.4567 -0.3772  0.0424
  809loPI   C4A11252  -0.678  16.873   7.997  0.2407  0.0538  0.1677
  809loPI   C5A11253  -1.084  16.781   8.178  0.2257 -0.1791  0.3098
  809loPI   C6A11254  -1.546  16.852   8.404 -0.1959  0.0157  0.0249
  809loPI   C1B11255  -0.279  16.764   6.662 -0.1426 -0.2157 -0.1045
  809loPI   C2B11256  -0.322  16.678   7.111 -0.0474 -0.0642  0.0345
  809loPI   C3B11257  -0.235  16.459   7.480 -0.0553  0.1157  0.1622
  809loPI   C4B11258  -0.190  16.321   7.958  0.0676 -0.0363 -0.0660
  810loPI    C111259  12.556  10.028   5.632 -0.0038 -0.0763  0.1186
  810loPI    C211260  12.399   9.963   5.270 -0.1084  0.2307  0.1059
  810loPI    C311261  12.782  10.074   5.305 -0.0253 -0.0478  0.1077
  810loPI   PO411262  12.640   9.850   5.778  0.0235  0.0512  0.0854
  810loPI   GL111263  12.832   9.859   6.207 -0.0997  0.1787 -0.2215
  810loPI   GL211264  13.167   9.875   6.195  0.1471 -0.2582  0.1115
  810loPI   C1A11265  12.728   9.557   6.488  0.0844 -0.0816 -0.0240
  810loPI   C2A11266  12.727   9.500   6.901 -0.0669 -0.0012  0.1941
  810loPI   C3A11267  12.588   9.528   7.352 -0.2961  0.0526  0.0823
  810loPI   C4A11268  12.466   9.486   7.702  0.0140 -0.0758  0.1909
  810loPI   C5A11269  12.635   9.621   8.054 -0.2286  0.2188 -0.1002
  810loPI   C6A11270  12.863   9.718   8.329 -0.0233  0.0301 -0.0567
  810loPI   C1B11271  13.146   9.919   6.659  0.3602  0.3272 -0.2105
  810loPI   C2B11272  13.013  10.084   7.065  0.0576  0.0676 -0.1170
  810loPI   C3B11273  13.054  10.196   7.461 -0.0998  0.2126 -0.0734
  810loPI   C4B11274  13.079  10.558   7.654  0.0047  0.1352 -0.1540
  811loPI    C111275   3.410   2.121   5.585  0.0101  0.2064  0.0235
  811loPI    C211276   3.735   1.925   5.709 -0.2648 -0.2478  0.0503
  811loPI    C311277   3.583   1.851   5.347 -0.2164  0.1236 -0.0503
  811loPI   PO411278   3.359   2.276   5.799  0.4097  0.3490  0.2216
  811loPI   GL111279   3.029   2.423   6.024 -0.0197  0.0489  0.3044
  811loPI   GL211280   3.335   2.483   6.212  0.0865 -0.0295 -0.1025
  811loPI   C1A11281   2.867   2.378   6.370 -0.1872  0.0273 -0.2493
  811loPI   C2A11282   2.859   2.150   6.657  0.1736 -0.2221 -0.0542
  811loPI   C3A11283   2.947   2.213   6.998  0.2682  0.1341 -0.2908
  811loPI   C4A11284   3.132   2.280   7.360  0.0078  0.0130  0.4100
  811loPI   C5A11285   3.162   2.228   7.818  0.2337 -0.0747  0.0994
  811loPI   C6A11286   3.471   1.983   8.004 -0.0341 -0.1107  0.0844
  811loPI   C1B11287   3.519   2.572   6.605 -0.2177  0.1584  0.1736
  811loPI   C2B11288   3.441   2.554   7.035 -0.1494 -0.1068  0.0785
  811loPI   C3B11289   3.448   2.603   7.501  0.1517 -0.0410 -0.3124
  811loPI   C4B11290   3.696   2.443   7.847  0.2466 -0.0572  0.0005
  812loPI    C111291  13.446  12.522   5.816 -0.0711 -0.0330 -0.1477
  812loPI    C211292  13.294  12.877   5.709 -0.1128  0.0133  0.0613
  812loPI    C311293  13.442  12.631   5.431 -0.2695  0.1076 -0.1078
  812loPI   PO411294  13.683  12.509   6.043 -0.2549  0.0645 -0.3608
  812loPI   GL111295  13.926  12.485   6.362 -0.3634  0.0871  0.2032
  812loPI   GL211296  13.882  12.262   6.405 -0.3631 -0.3212  0.0457
  812loPI   C1A11297  14.020  12.713   6.752  0.4296 -0.6706  0.1468
  812loPI   C2A11298  13.953  12.627   7.168  0.0617 -0.0951 -0.0010
  812loPI   C3A11299  13.940  12.660   7.621 -0.1952  0.1793 -0.3376
  812loPI   C4A11300  14.219  12.602   7.885 -0.2410 -0.1341 -0.3042
  812loPI   C5A11301  14.277  12.750   8.359  0.0682 -0.0949 -0.0615
  812loPI   C6A11302  14.008  13.096   8.547 -0.1249 -0.0817 -0.0450
  812loPI   C1B11303  13.698  12.157   6.855 -0.1182  0.2279  0.1037
  812loPI   C2B11304  13.571  12.193   7.281  0.2498 -0.0571  0.1546
  812loPI   C3B11305  13.665  12.247   7.674 -0.0591  0.3032 -0.0557
  812loPI   C4B11306  13.825  12.373   8.072  0.1788  0.2828 -0.3228
  813loPI    C111307  15.645   7.602   5.599  0.1600 -0.0331  0.0669
  813loPI    C211308  15.306   7.788   5.496  0.2841  0.1476 -0.0217
  813loPI    C311309  15.451   7.495   5.266  0.2802  0.1890 -0.0770
  813loPI   PO411310  15.620   7.514   5.858 -0.1554 -0.3193 -0.0893
  813loPI   GL111311  15.769   7.206   6.190  0.0601 -0.0490 -0.1310
  813loPI   GL211312  15.907   6.934   6.273  0.1530 -0.2604 -0.0048
  813loPI   C1A11313  15.885   7.381   6.594 -0.1329  0.0479 -0.0859
  813loPI   C2A11314  15.813   7.633   6.840  0.0735 -0.0235 -0.2491
  813loPI   C3A11315  15.632   7.699   7.209  0.0324  0.1408 -0.1596
  813loPI   C4A11316  15.309   7.646   7.539  0.1068 -0.1289 -0.3036
  813loPI   C5A11317  15.031   7.904   7.836  0.0442  0.1946 -0.2821
  813loPI   C6A11318  14.833   8.151   8.243  0.1179 -0.1723  0.0678
  813loPI   C1B11319  15.613   6.892   6.516 -0.1128  0.1486 -0.2169
  813loPI   C2B11320  15.410   6.765   6.935 -0.3536  0.0239  0.2461
  813loPI   C3B11321  15.242   6.684   7.389 -0.0264 -0.0433  0.1761
  813loPI   C4B11322  15.290   6.693   7.826 -0.1523  0.1943  0.0071
  814loPI    C111323  17.876   5.816   6.028  0.0718  0.4599  0.2568
  814loPI    C211324  17.540   5.873   5.819  0.0764  0.2776  0.1983
  814loPI    C311325  17.890   5.840   5.629  0.0845  0.1423  0.2357
  814loPI   PO411326  17.873   6.098   6.162  0.2007 -0.0837  0.0357
  814loPI   GL111327  17.482   6.283   6.373 -0.0463  0.1187 -0.1609
  814loPI   GL211328  17.269   6.269   6.597  0.3125 -0.1217 -0.0904
  814loPI   C1A11329  17.754   6.356   6.805 -0.1471 -0.1004 -0.0675
  814loPI   C2A11330  17.853   6.284   7.165  0.1081  0.2172 -0.0603
  814loPI   C3A11331  17.863   6.449   7.642 -0.0642 -0.1648 -0.0332
  814loPI   C4A11332  17.859   6.655   8.107  0.1547 -0.1117  0.2777
  814loPI   C5A11333  17.812   6.505   8.572 -0.1906  0.1042 -0.2612
  814loPI   C6A11334  17.816   6.220   8.901 -0.1511 -0.0311 -0.0719
  814loPI   C1B11335  17.300   6.229   7.067  0.0769 -0.0873  0.1654
  814loPI   C2B11336  17.442   6.290   7.477  0.1727 -0.0258 -0.1918
  814loPI   C3B11337  17.473   6.476   7.973  0.2643  0.1692 -0.0763
  814loPI   C4B11338  17.246   6.622   8.371  0.0676  0.0514  0.1485
  815loPI    C111339  12.058   7.842   5.546  0.1008 -0.2784 -0.0795
  815loPI    C211340  11.806   8.135   5.442 -0.0082 -0.2409  0.2756
  815loPI    C311341  11.761   7.769   5.287  0.0622 -0.1011 -0.0866
  815loPI   PO411342  12.066   7.807   5.735 -0.1703 -0.1678 -0.2285
  815loPI   GL111343  11.913   7.907   6.169  0.2746  0.0704  0.1706
  815loPI   GL211344  11.798   7.636   6.155  0.1830 -0.1570 -0.0711
  815loPI   C1A11345  11.787   8.157   6.479 -0.2038  0.3594 -0.0500
  815loPI   C2A11346  11.548   8.154   6.871  0.0335  0.1385  0.1525
  815loPI   C3A11347  11.588   8.196   7.284 -0.0959 -0.2647  0.1798
  815loPI   C4A11348  11.407   8.126   7.724 -0.0497  0.0259  0.1584
  815loPI   C5A11349  11.395   7.999   8.119  0.1897  0.0477 -0.3632
  815loPI   C6A11350  11.625   7.919   8.504  0.3158 -0.1234 -0.1998
  815loPI   C1B11351  11.907   7.611   6.638 -0.1384  0.0782 -0.0076
  815loPI   C2B11352  11.741   7.653   7.069  0.0009  0.0583  0.0353
  815loPI   C3B11353  11.606   7.743   7.501  0.3203 -0.1441 -0.0479
  815loPI   C4B11354  11.689   7.615   7.921  0.2703 -0.2394 -0.1173
  816loPI    C111355   5.134  11.990   5.571 -0.0755  0.3117  0.0943
  816loPI    C211356   4.898  11.698   5.434  0.4402 -0.1035  0.0559
  816loPI    C311357   5.008  11.996   5.191 -0.0776  0.1282  0.0911
  816loPI   PO411358   5.351  11.853   5.653  0.0245 -0.1223  0.1549
  816loPI   GL111359   5.566  11.538   5.953 -0.1105 -0.3349  0.0503
  816loPI   GL211360   5.277  11.630   6.059 -0.0575  0.1493 -0.0554
  816loPI   C1A11361   5.703  11.477   6.345  0.0016 -0.0671  0.0771
  816loPI   C2A11362   5.806  11.580   6.751 -0.2060 -0.2055 -0.0775
  816loPI   C3A11363   5.759  11.519   7.123 -0.0894 -0.1864  0.0111
  816loPI   C4A11364   5.789  11.300   7.571  0.0351  0.2196  0.2928
  816loPI   C5A11365   6.059  11.268   7.911  0.3068  0.1435 -0.1984
  816loPI   C6A11366   6.343  11.059   8.248 -0.3814  0.2166  0.0058
  816loPI   C1B11367   5.374  11.897   6.463 -0.1870 -0.1314  0.1058
  816loPI   C2B11368   5.304  11.997   6.805  0.0255 -0.4593  0.1166
  816loPI   C3B11369   5.410  11.901   7.208  0.0924  0.0904 -0.0855
  816loPI   C4B11370   5.649  11.794   7.632 -0.4966  0.2849  0.2450
  817loPI    C111371  10.795   6.772   5.554 -0.0871 -0.0220 -0.0686
  817loPI    C211372  10.482   6.965   5.397 -0.0122  0.1627  0.0057
  817loPI    C311373  10.721   6.747   5.162  0.0151  0.3190 -0.1128
  817loPI   PO411374  10.848   6.911   5.750  0.3149  0.1888 -0.2218
  817loPI   GL111375  10.707   7.230   5.840  0.2242  0.1078 -0.1635
  817loPI   GL211376  10.779   7.072   6.212  0.0765 -0.0648 -0.2154
  817loPI   C1A11377  10.457   7.559   6.195 -0.1960  0.0567  0.0635
  817loPI   C2A11378  10.523   7.645   6.674 -0.0492 -0.0524  0.0280
  817loPI   C3A11379  10.408   7.578   7.154 -0.0140  0.2530 -0.1496
  817loPI   C4A11380  10.155   7.538   7.491  0.1834  0.1752 -0.0306
  817loPI   C5A11381  10.049   7.364   7.894  0.0939  0.1561 -0.0200
  817loPI   C6A11382  10.235   7.061   8.219 -0.0627  0.0838  0.4230
  817loPI   C1B11383  10.557   7.071   6.596 -0.0651  0.0354 -0.0855
  817loPI   C2B11384  10.436   7.069   6.957 -0.0665 -0.1348  0.0691
  817loPI   C3B11385  10.449   7.103   7.404  0.0022  0.4646  0.1870
  817loPI   C4B11386  10.470   6.933   7.778 -0.3757 -0.1540  0.1534
  818loPI    C111387  12.305   7.415   5.626 -0.0179 -0.1309  0.2694
  818loPI    C211388  12.243   7.031   5.535 -0.1991 -0.0284 -0.0551
  818loPI    C311389  12.155   7.316   5.269  0.1766  0.2248  0.0838
  818loPI   PO411390  12.153   7.391   5.931  0.1831  0.0113 -0.0713
  818loPI   GL111391  11.984   7.283   6.329 -0.2185 -0.1052 -0.0938
  818loPI   GL211392  11.714   7.078   6.294 -0.2222 -0.0241  0.2698
  818loPI   C1A11393  12.161   7.070   6.641  0.2146  0.3258  0.0297
  818loPI   C2A11394  12.165   6.854   6.911  0.1572  0.4505 -0.3457
  818loPI   C3A11395  12.030   6.772   7.285  0.2961 -0.1146 -0.1025
  818loPI   C4A11396  12.137   6.690   7.682 -0.0253 -0.2105  0.0995
  818loPI   C5A11397  12.132   6.793   8.118 -0.2312  0.0218 -0.0827
  818loPI   C6A11398  12.007   6.928   8.485 -0.0727  0.2395  0.0039
  818loPI   C1B11399  11.643   7.125   6.779  0.5889  0.0767 -0.0889
  818loPI   C2B11400  11.677   7.131   7.216  0.0791 -0.4802  0.1065
  818loPI   C3B11401  11.831   7.206   7.675 -0.0151 -0.1622  0.3668
  818loPI   C4B11402  11.993   7.269   8.007 -0.1177  0.0078  0.1872
  819loPI    C111403   5.094   9.270   5.871 -0.2733 -0.1901  0.1386
  819loPI    C211404   4.799   9.102   6.082 -0.4132  0.0182  0.1120
  819loPI    C311405   4.815   9.050   5.686 -0.1663 -0.3498  0.1657
  819loPI   PO411406   5.331   9.177   5.925  0.2537 -0.0690  0.0926
  819loPI   GL111407   5.679   9.316   6.159 -0.0067 -0.2351 -0.1712
  819loPI   GL211408   5.455   9.630   6.153 -0.2102  0.2123 -0.2409
  819loPI   C1A11409   5.801   9.227   6.481  0.1200 -0.3646 -0.2016
  819loPI   C2A11410   5.949   9.107   6.794 -0.1756  0.1259 -0.0187
  819loPI   C3A11411   6.006   8.875   7.199  0.2500 -0.0572  0.1806
  819loPI   C4A11412   5.831   8.785   7.512  0.2495 -0.1349  0.2489
  819loPI   C5A11413   5.793   8.744   7.958 -0.0947 -0.3011 -0.1101
  819loPI   C6A11414   6.094   8.477   8.041 -0.0863  0.4676  0.2212
  819loPI   C1B11415   5.455   9.509   6.626  0.2279  0.2096 -0.4255
  819loPI   C2B11416   5.656   9.482   7.056 -0.1643  0.2354 -0.2006
  819loPI   C3B11417   5.868   9.409   7.358  0.3402 -0.1926  0.1158
  819loPI   C4B11418   5.878   9.204   7.769 -0.3198  0.3066  0.2554
  820loPI    C111419  11.860  12.228   6.162 -0.1403  0.1711  0.1395
  820loPI    C211420  11.504  12.269   5.985  0.0022  0.1407 -0.1594
  820loPI    C311421  11.840  12.292   5.768  0.1724 -0.1582  0.0639
  820loPI   PO411422  11.851  12.330   6.360 -0.3402  0.3328  0.1493
  820loPI   GL111423  11.981  12.670   6.633  0.1866  0.1296 -0.0026
  820loPI   GL211424  12.210  12.374   6.804  0.1215  0.2371  0.1253
  820loPI   C1A11425  11.987  12.634   7.081  0.1448  0.0105 -0.2538
  820loPI   C2A11426  12.022  12.864   7.459 -0.0528  0.0810 -0.2407
  820loPI   C3A11427  12.078  13.231   7.720 -0.3912  0.0526 -0.1916
  820loPI   C4A11428  12.241  13.448   8.090  0.4406  0.0130 -0.0733
  820loPI   C5A11429  12.592  13.583   8.311 -0.1230 -0.2941  0.0106
  820loPI   C6A11430  12.934  13.481   8.368  0.1209 -0.0458  0.1899
  820loPI   C1B11431  12.579  12.285   7.039 -0.1512  0.0838 -0.2501
  820loPI   C2B11432  12.608  12.371   7.464 -0.2927 -0.1204 -0.2398
  820loPI   C3B11433  12.595  12.379   7.907  0.2160 -0.0512  0.0729
  820loPI   C4B11434  12.735  12.158   8.327  0.2401 -0.1893 -0.1767
  821loPI    C111435   8.312  16.120   5.537  0.0132 -0.0911  0.1223
  821loPI    C211436   8.608  15.944   5.741  0.0253 -0.1885  0.0214
  821loPI    C311437   8.342  15.721   5.542 -0.0074 -0.0953 -0.0402
  821loPI   PO411438   8.237  16.301   5.796  0.2641  0.2074 -0.1116
  821loPI   GL111439   8.304  16.320   6.249  0.1619  0.2873 -0.0018
  821loPI   GL211440   8.076  16.039   6.378 -0.1744  0.0486 -0.2516
  821loPI   C1A11441   8.285  16.307   6.748  0.0056 -0.1574 -0.3556
  821loPI   C2A11442   8.419  16.395   7.181  0.0340  0.1874  0.1492
  821loPI   C3A11443   8.287  16.380   7.560 -0.0434  0.1482 -0.0462
  821loPI   C4A11444   8.090  16.616   7.810  0.3116  0.2273 -0.0474
  821loPI   C5A11445   8.072  16.999   8.057  0.0907  0.1773 -0.0138
  821loPI   C6A11446   8.073  17.044   8.531  0.0678 -0.2552 -0.2967
  821loPI   C1B11447   8.275  15.795   6.708  0.0629  0.0425 -0.0887
  821loPI   C2B11448   8.461  15.897   7.112 -0.1489 -0.1275  0.1697
  821loPI   C3B11449   8.330  15.766   7.500 -0.0229 -0.1991 -0.1254
  821loPI   C4B11450   8.465  15.900   7.800  0.1271 -0.2964  0.0933
  822loPI    C111451   2.391   8.576   5.633  0.4000  0.0381  0.0826
  822loPI    C211452   2.574   8.539   5.280  0.0535 -0.0043 -0.0970
  822loPI    C311453   2.175   8.516   5.302  0.0730 -0.0341  0.3030
  822loPI   PO411454   2.610   8.432   5.817  0.0929 -0.1511  0.0477
  822loPI   GL111455   2.829   8.308   6.280  0.3136 -0.1466  0.2225
  822loPI   GL211456   2.997   8.371   6.518  0.1987 -0.0744 -0.0996
  822loPI   C1A11457   2.456   8.421   6.612 -0.0642  0.3125  0.0662
  822loPI   C2A11458   2.383   8.641   6.998 -0.0331  0.0765 -0.2664
  822loPI   C3A11459   2.238   8.607   7.371 -0.0638  0.2022 -0.3191
  822loPI   C4A11460   2.168   8.431   7.805  0.0775 -0.1332  0.0673
  822loPI   C5A11461   2.308   8.125   7.812  0.1026 -0.0443 -0.1007
  822loPI   C6A11462   2.244   7.923   7.549  0.0369  0.3340 -0.3322
  822loPI   C1B11463   3.271   8.391   6.802 -0.1642  0.0578  0.4211
  822loPI   C2B11464   3.337   8.449   7.361 -0.0647  0.0231  0.1117
  822loPI   C3B11465   3.187   8.588   7.772  0.1049  0.2075 -0.0433
  822loPI   C4B11466   3.014   8.886   7.998 -0.3027 -0.0392 -0.2530
  823loPI    C111467   3.734   8.101   5.847 -0.2199  0.1218  0.0937
  823loPI    C211468   3.728   7.703   5.892 -0.1365  0.1282  0.1642
  823loPI    C311469   3.465   7.881   5.648  0.1124 -0.0139 -0.2162
  823loPI   PO411470   3.703   8.251   6.081  0.0297 -0.0288  0.1904
  823loPI   GL111471   3.502   8.392   6.330 -0.2379  0.2005 -0.4296
  823loPI   GL211472   3.545   8.695   6.421  0.2405  0.0083 -0.1041
  823loPI   C1A11473   3.748   8.209   6.666 -0.0698 -0.0736 -0.2295
  823loPI   C2A11474   3.691   8.141   7.061 -0.1911 -0.0460  0.2854
  823loPI   C3A11475   3.812   7.919   7.327 -0.2593  0.0140 -0.1379
  823loPI   C4A11476   3.887   7.874   7.755  0.1807 -0.0257  0.1440
  823loPI   C5A11477   4.008   8.317   8.076 -0.0089  0.0690  0.5137
  823loPI   C6A11478   3.689   8.630   8.102 -0.4081 -0.0819 -0.3959
  823loPI   C1B11479   3.722   8.704   6.786 -0.2337 -0.0471 -0.0469
  823loPI   C2B11480   3.757   8.681   7.187  0.1053 -0.0691  0.1597
  823loPI   C3B11481   3.989   8.874   7.544  0.0896 -0.1988  0.1555
  823loPI   C4B11482   4.162   8.849   7.993  0.1591 -0.1154 -0.1408
  824loPI    C111483   8.405   6.809   4.897 -0.0614 -0.0122  0.0441
  824loPI    C211484   8.439   6.411   4.875 -0.2564 -0.0325  0.0901
  824loPI    C311485   8.102   6.590   4.754 -0.0831  0.1399 -0.1479
  824loPI   PO411486   8.451   6.895   5.245 -0.0690 -0.0968  0.0726
  824loPI   GL111487   8.376   6.911   5.716  0.0222  0.1158  0.0520
  824loPI   GL211488   8.230   6.775   5.878  0.0125 -0.1900  0.1826
  824loPI   C1A11489   8.541   7.250   6.003  0.1045 -0.0850  0.2926
  824loPI   C2A11490   8.633   7.181   6.430 -0.1541  0.2548  0.1438
  824loPI   C3A11491   8.542   7.217   6.831 -0.0402  0.0782 -0.1042
  824loPI   C4A11492   8.655   7.190   7.330  0.0966 -0.1390  0.0413
  824loPI   C5A11493   8.506   7.079   7.624 -0.1482 -0.1576  0.0263
  824loPI   C6A11494   8.430   7.296   8.033 -0.0548 -0.0735  0.1043
  824loPI   C1B11495   8.392   6.817   6.265  0.1661 -0.1547  0.1589
  824loPI   C2B11496   8.483   6.717   6.621  0.4094  0.0178 -0.1140
  824loPI   C3B11497   8.558   6.730   7.087 -0.2649  0.3226  0.1459
  824loPI   C4B11498   8.672   6.552   7.436 -0.0333 -0.2400  0.1723
  825loPI    C111499   3.922  12.455   5.609 -0.3656 -0.1416 -0.0001
  825loPI    C211500   4.089  12.093   5.643  0.1730  0.0705 -0.2720
  825loPI    C311501   3.814  12.161   5.360 -0.2256 -0.2226  0.0337
  825loPI   PO411502   3.872  12.525   5.872 -0.3531 -0.1177 -0.0284
  825loPI   GL111503   3.692  12.264   6.137 -0.1276  0.3247 -0.0133
  825loPI   GL211504   3.977  12.007   6.156 -0.0452 -0.0700 -0.1579
  825loPI   C1A11505   3.643  12.500   6.435  0.0629  0.0456  0.0980
  825loPI   C2A11506   3.709  12.560   6.965  0.1840 -0.1487 -0.0053
  825loPI   C3A11507   3.806  12.646   7.363  0.4158 -0.0174 -0.2766
  825loPI   C4A11508   4.089  12.744   7.650 -0.5595  0.3307 -0.0156
  825loPI   C5A11509   4.252  12.949   7.941 -0.1825  0.1174  0.0136
  825loPI   C6A11510   4.333  13.324   8.066  0.1978  0.2402 -0.1149
  825loPI   C1B11511   3.859  11.719   6.491  0.0058 -0.2141  0.2146
  825loPI   C2B11512   3.725  11.767   6.968 -0.2437  0.0771  0.2811
  825loPI   C3B11513   3.556  11.985   7.276  0.0636 -0.3231 -0.1364
  825loPI   C4B11514   3.365  12.013   7.659  0.2037  0.1022  0.3495
  826loPI    C111515   6.264   3.627   5.536 -0.0823 -0.0274  0.1230
  826loPI    C211516   6.658   3.572   5.580 -0.1168 -0.2843  0.1264
  826loPI    C311517   6.443   3.313   5.365 -0.3082 -0.2243  0.2428
  826loPI   PO411518   6.160   3.550   5.757 -0.1863  0.1073  0.0975
  826loPI   GL111519   5.830   3.688   6.115  0.2117 -0.3580  0.1863
  826loPI   GL211520   5.516   3.596   6.161 -0.1323  0.1806  0.0957
  826loPI   C1A11521   5.917   3.834   6.396 -0.0789 -0.0639  0.1667
  826loPI   C2A11522   5.878   3.824   6.842 -0.0684  0.1016  0.1643
  826loPI   C3A11523   5.807   3.787   7.223 -0.3244  0.1675 -0.1210
  826loPI   C4A11524   6.168   3.778   7.560  0.3695  0.0961  0.4063
  826loPI   C5A11525   6.405   3.667   7.977  0.0942  0.1843 -0.2203
  826loPI   C6A11526   6.407   3.309   8.218  0.0997  0.5703  0.1620
  826loPI   C1B11527   5.433   3.650   6.518 -0.1225 -0.2651  0.2086
  826loPI   C2B11528   5.389   3.951   6.840  0.1914  0.1401 -0.1980
  826loPI   C3B11529   5.374   4.010   7.298  0.2191 -0.2045 -0.1015
  826loPI   C4B11530   5.530   3.621   7.610  0.1648  0.0742 -0.1079
  827loPI    C111531  15.390   0.056   5.787 -0.0458  0.0349 -0.1279
  827loPI    C211532  15.586   0.226   5.483  0.0220 -0.0377 -0.1252
  827loPI    C311533  15.377  -0.110   5.423  0.3087 -0.2386 -0.0222
  827loPI   PO411534  15.358   0.198   5.989  0.1538 -0.0195  0.1141
  827loPI   GL111535  15.173   0.407   6.353 -0.0366  0.0660 -0.2956
  827loPI   GL211536  15.339   0.714   6.276  0.0268  0.1404 -0.1248
  827loPI   C1A11537  15.194   0.116   6.653 -0.2178 -0.0978  0.1461
  827loPI   C2A11538  15.384   0.053   7.007 -0.2865  0.1681  0.1726
  827loPI   C3A11539  15.699  -0.143   7.154  0.1553 -0.3002 -0.2387
  827loPI   C4A11540  15.966  -0.245   7.503  0.2988  0.0342 -0.0560
  827loPI   C5A11541  16.302  -0.193   7.874  0.0855 -0.0867  0.2130
  827loPI   C6A11542  16.025  -0.416   8.267 -0.1675 -0.0629  0.0898
  827loPI   C1B11543  15.295   0.825   6.675  0.0074 -0.2274  0.2816
  827loPI   C2B11544  15.451   1.101   6.981 -0.2734 -0.0199 -0.1436
  827loPI   C3B11545  15.646   1.373   7.209 -0.0810  0.1966  0.1430
  827loPI   C4B11546  15.875   1.556   7.543 -0.0122 -0.0504  0.3024
  828loPI    C111547  15.502   6.084   5.291  0.0997 -0.0537  0.1207
  828loPI    C211548  15.451   6.478   5.252 -0.2980 -0.1048  0.0870
  828loPI    C311549  15.426   6.240   4.931  0.1073 -0.1442  0.0795
  828loPI   PO411550  15.663   6.171   5.558  0.1600 -0.1322  0.1190
  828loPI   GL111551  15.666   6.187   5.938 -0.4669  0.3110  0.0364
  828loPI   GL211552  15.455   6.240   6.144 -0.0871  0.0655 -0.1753
  828loPI   C1A11553  16.025   5.994   6.197 -0.1234 -0.2357  0.1942
  828loPI   C2A11554  16.117   5.939   6.719 -0.1556 -0.1423  0.1578
  828loPI   C3A11555  16.277   5.959   7.224  0.2416  0.2350  0.1613
  828loPI   C4A11556  16.323   6.006   7.622 -0.2191 -0.1233 -0.1954
  828loPI   C5A11557  16.603   6.099   8.023  0.3195  0.0573  0.2051
  828loPI   C6A11558  16.987   6.308   7.935  0.3333  0.2202 -0.1594
  828loPI   C1B11559  15.604   6.054   6.476 -0.1206 -0.4242  0.1635
  828loPI   C2B11560  15.728   5.850   6.995  0.1635 -0.0142 -0.1425
  828loPI   C3B11561  15.846   5.859   7.398 -0.0784 -0.2141  0.0957
  828loPI   C4B11562  15.823   5.845   7.816 -0.2410 -0.1853 -0.0982
  829loPI    C111563  13.788   5.801   5.857 -0.2783  0.1032  0.1498
  829loPI    C211564  13.969   6.137   5.976 -0.0799  0.0304  0.0572
  829loPI    C311565  13.833   6.105   5.601 -0.0729 -0.0026  0.0575
  829loPI   PO411566  13.942   5.649   5.959  0.4162  0.0273 -0.3371
  829loPI   GL111567  13.851   5.702   6.347  0.1575  0.2283 -0.0149
  829loPI   GL211568  13.954   5.895   6.433  0.1691 -0.1003 -0.2204
  829loPI   C1A11569  13.824   5.420   6.672 -0.2773 -0.0432 -0.1259
  829loPI   C2A11570  13.613   5.506   7.110 -0.1668 -0.0404  0.2646
  829loPI   C3A11571  13.781   5.544   7.633 -0.0405 -0.1296  0.2058
  829loPI   C4A11572  13.722   5.154   7.903  0.2473  0.0335  0.1680
  829loPI   C5A11573  13.331   5.105   8.188 -0.0260 -0.3512  0.2623
  829loPI   C6A11574  12.970   5.248   8.130 -0.0158 -0.1219 -0.2147
  829loPI   C1B11575  13.542   5.908   6.716 -0.2715 -0.2169  0.0023
  829loPI   C2B11576  13.601   6.008   7.117 -0.0919  0.0781  0.0637
  829loPI   C3B11577  13.649   6.030   7.539  0.2070 -0.2980  0.2294
  829loPI   C4B11578  13.353   5.889   7.774 -0.1641 -0.0251 -0.1187
  830loPI    C111579   2.060   1.954   5.230 -0.0127  0.1529 -0.0207
  830loPI    C211580   2.310   2.062   4.937 -0.0742 -0.0296 -0.1424
  830loPI    C311581   2.205   1.679   4.979  0.0085 -0.0204  0.1791
  830loPI   PO411582   2.042   2.034   5.452 -0.2982 -0.1636 -0.0135
  830loPI   GL111583   1.810   1.742   5.801  0.1175 -0.1730 -0.0797
  830loPI   GL211584   1.766   2.042   5.916 -0.1781 -0.1869 -0.2866
  830loPI   C1A11585   1.905   1.557   6.147 -0.0812 -0.0799  0.0424
  830loPI   C2A11586   1.717   1.468   6.426  0.2559  0.0957 -0.0612
  830loPI   C3A11587   1.617   1.407   6.852  0.1825 -0.0602  0.2910
  830loPI   C4A11588   1.669   1.429   7.241  0.0486  0.0273 -0.3490
  830loPI   C5A11589   1.719   1.579   7.722 -0.0636 -0.0464 -0.0806
  830loPI   C6A11590   2.042   1.567   7.989  0.0901 -0.1898  0.0864
  830loPI   C1B11591   1.659   1.973   6.363 -0.2087  0.1360  0.0408
  830loPI   C2B11592   1.764   1.873   6.756  0.0069  0.4285  0.1104
  830loPI   C3B11593   1.933   1.841   7.133 -0.1564  0.0246  0.0092
  830loPI   C4B11594   2.057   1.854   7.450 -0.0109 -0.1108 -0.3704
  831loPI    C111595   6.111   2.387   5.623  0.0300 -0.1711 -0.0568
  831loPI    C211596   5.789   2.333   5.391 -0.0988  0.1762  0.0358
  831loPI    C311597   6.047   2.629   5.311  0.0583  0.0622  0.1155
  831loPI   PO411598   6.063   2.398   5.877  0.0591 -0.1535 -0.1356
  831loPI   GL111599   6.155   2.418   6.213 -0.1332  0.1539 -0.0381
  831loPI   GL211600   6.248   2.756   6.241 -0.0468  0.3586  0.0589
  831loPI   C1A11601   5.910   2.320   6.482 -0.0517  0.0343 -0.1021
  831loPI   C2A11602   5.793   2.321   6.895  0.1926  0.0613  0.0084
  831loPI   C3A11603   5.821   2.152   7.266  0.1948  0.3748 -0.1310
  831loPI   C4A11604   5.786   2.309   7.705 -0.1867  0.2216  0.0138
  831loPI   C5A11605   5.629   2.323   8.160 -0.1611 -0.2487 -0.1135
  831loPI   C6A11606   5.405   2.383   8.508  0.0251 -0.0549 -0.0056
  831loPI   C1B11607   6.183   2.745   6.692 -0.0257  0.1076  0.2468
  831loPI   C2B11608   6.030   2.832   7.091  0.0547  0.2884 -0.2859
  831loPI   C3B11609   6.185   2.871   7.514 -0.1342  0.1427 -0.0922
  831loPI   C4B11610   6.463   2.889   7.811  0.2433 -0.0057  0.0874
  832loPI    C111611  10.744  14.568   5.503  0.0927 -0.1197  0.0389
  832loPI    C211612  10.808  14.245   5.276 -0.0147 -0.1009 -0.0184
  832loPI    C311613  10.443  14.318   5.423 -0.0089  0.0357 -0.0707
  832loPI   PO411614  11.043  14.601   5.698 -0.1398 -0.2231  0.1796
  832loPI   GL111615  11.169  14.453   6.191  0.3148  0.0519  0.1844
  832loPI   GL211616  11.083  14.763   6.270 -0.0375 -0.2655  0.3842
  832loPI   C1A11617  11.124  14.347   6.722 -0.0309 -0.2033  0.1279
  832loPI   C2A11618  11.035  14.452   7.106  0.0259 -0.2236  0.1279
  832loPI   C3A11619  11.087  14.544   7.531  0.1606  0.1044  0.0893
  832loPI   C4A11620  10.928  14.543   7.931  0.0379 -0.1287 -0.3986
  832loPI   C5A11621  11.006  14.685   8.319 -0.0105 -0.0550 -0.0972
  832loPI   C6A11622  11.146  14.490   8.741 -0.1345 -0.0800 -0.0740
  832loPI   C1B11623  10.820  14.985   6.572 -0.0177 -0.1033 -0.0690
  832loPI   C2B11624  10.838  14.901   6.985  0.0759  0.3022  0.1288
  832loPI   C3B11625  10.708  14.919   7.452  0.0737 -0.0984 -0.0780
  832loPI   C4B11626  10.748  15.021   7.933  0.2214  0.1126 -0.0595
  833loPI    C111627  14.170  14.980   6.135 -0.3618  0.1124 -0.0732
  833loPI    C211628  13.995  14.759   5.851  0.2621 -0.2540 -0.1905
  833loPI    C311629  14.151  14.582   6.175  0.1354  0.0963  0.0678
  833loPI   PO411630  13.975  15.252   6.119  0.3012 -0.2377  0.1527
  833loPI   GL111631  13.731  15.336   6.410 -0.0053  0.0348 -0.0569
  833loPI   GL211632  13.402  15.485   6.447 -0.1289 -0.2362 -0.1571
  833loPI   C1A11633  13.485  15.034   6.755  0.1837 -0.1859  0.0450
  833loPI   C2A11634  13.437  15.059   7.157  0.2493  0.0158 -0.2318
  833loPI   C3A11635  13.238  14.913   7.595 -0.2204 -0.0620 -0.1159
  833loPI   C4A11636  12.807  14.783   7.830  0.1866 -0.2033  0.0184
  833loPI   C5A11637  12.487  14.650   7.980  0.2875 -0.3180  0.3225
  833loPI   C6A11638  12.134  14.476   8.276  0.1311  0.0894 -0.1646
  833loPI   C1B11639  13.350  15.518   6.907 -0.1387  0.1851  0.1832
  833loPI   C2B11640  13.250  15.487   7.343 -0.3242  0.1455  0.0287
  833loPI   C3B11641  13.108  15.410   7.744  0.1466  0.3595 -0.1674
  833loPI   C4B11642  13.382  15.188   8.027  0.0584  0.1842  0.0681
  834loPI    C111643   4.628   3.376   5.674 -0.1080 -0.0415 -0.2183
  834loPI    C211644   4.779   3.541   5.343  0.0616  0.1211 -0.0620
  834loPI    C311645   4.941   3.207   5.491  0.1735  0.2111  0.0203
  834loPI   PO411646   4.608   3.624   5.849 -0.0585  0.1584 -0.0036
  834loPI   GL111647   4.565   3.677   6.313  0.0137 -0.1880 -0.0345
  834loPI   GL211648   4.898   3.577   6.271  0.2596 -0.4886 -0.0620
  834loPI   C1A11649   4.439   3.617   6.818  0.1926  0.1380  0.0292
  834loPI   C2A11650   4.373   3.642   7.268 -0.0133  0.0681  0.4411
  834loPI   C3A11651   4.294   3.609   7.664 -0.1051 -0.0091 -0.3750
  834loPI   C4A11652   4.309   3.676   8.184  0.1813  0.0076  0.1024
  834loPI   C5A11653   4.336   3.522   8.634 -0.2686 -0.1193  0.1105
  834loPI   C6A11654   4.001   3.431   8.912 -0.1026  0.1232  0.0876
  834loPI   C1B11655   4.973   3.547   6.721 -0.0416 -0.0529  0.4121
  834loPI   C2B11656   4.893   3.620   7.129  0.0995 -0.3278 -0.2754
  834loPI   C3B11657   4.935   3.403   7.434  0.0338  0.1095  0.0328
  834loPI   C4B11658   4.719   3.417   7.883  0.1533 -0.0662 -0.0370
  835loPI    C111659   0.393   2.384   5.449  0.0362  0.0317  0.1695
  835loPI    C211660   0.513   2.194   5.118 -0.0108  0.1320  0.0942
  835loPI    C311661   0.240   2.026   5.358 -0.0612  0.1098  0.0217
  835loPI   PO411662   0.678   2.496   5.558 -0.1053 -0.1008 -0.2380
  835loPI   GL111663   0.780   2.429   5.942 -0.0741 -0.2022  0.1344
  835loPI   GL211664   0.555   2.238   5.980 -0.1165  0.1242 -0.3075
  835loPI   C1A11665   0.973   2.453   6.356  0.1771 -0.3285  0.0389
  835loPI   C2A11666   0.941   2.289   6.675 -0.4861  0.1262  0.0741
  835loPI   C3A11667   1.010   2.331   7.027 -0.0273 -0.1594  0.0790
  835loPI   C4A11668   1.072   2.180   7.414  0.1012  0.0614  0.3672
  835loPI   C5A11669   1.164   2.326   7.805  0.3444 -0.1789  0.2213
  835loPI   C6A11670   1.255   2.674   7.968  0.0849 -0.4457 -0.0811
  835loPI   C1B11671   0.419   2.159   6.446 -0.1734  0.0107  0.2550
  835loPI   C2B11672   0.420   2.125   6.913 -0.2490  0.1975  0.0061
  835loPI   C3B11673   0.354   2.104   7.311 -0.4148 -0.3235  0.0157
  835loPI   C4B11674   0.097   2.110   7.603  0.0049  0.3517 -0.3149
  836loPI    C111675   2.629   6.511   5.884 -0.0322  0.0719  0.1667
  836loPI    C211676   2.693   6.148   6.040 -0.0080 -0.0128 -0.0379
  836loPI    C311677   2.780   6.219   5.656 -0.0674  0.1936 -0.0143
  836loPI   PO411678   2.590   6.590   6.235 -0.0160  0.5312  0.1611
  836loPI   GL111679   2.241   6.480   6.492 -0.4298 -0.0017 -0.3184
  836loPI   GL211680   2.001   6.729   6.558  0.0353 -0.1331 -0.0414
  836loPI   C1A11681   2.354   6.543   6.874 -0.0906  0.0560 -0.1839
  836loPI   C2A11682   2.320   6.441   7.289  0.0604 -0.0510  0.3333
  836loPI   C3A11683   2.404   6.704   7.636  0.1900 -0.1842 -0.0438
  836loPI   C4A11684   2.366   7.018   7.995  0.0360 -0.0524 -0.3111
  836loPI   C5A11685   2.623   7.368   8.092 -0.1956  0.3083 -0.0590
  836loPI   C6A11686   2.848   7.431   8.504 -0.3027 -0.1692  0.0509
  836loPI   C1B11687   2.065   6.978   6.897 -0.0729  0.0344 -0.0227
  836loPI   C2B11688   2.064   6.869   7.262 -0.1628 -0.0743  0.0585
  836loPI   C3B11689   1.985   7.006   7.661 -0.1170 -0.3279 -0.1774
  836loPI   C4B11690   1.840   7.208   7.989  0.0297 -0.1357  0.0387
  837loPI    C111691  16.071   5.257   5.604  0.0376  0.1296 -0.3798
  837loPI    C211692  15.677   5.190   5.615  0.1195 -0.3484  0.0544
  837loPI    C311693  15.878   5.146   5.272 -0.2079 -0.0416 -0.1841
  837loPI   PO411694  16.061   5.262   5.876  0.0462 -0.0060  0.0052
  837loPI   GL111695  16.163   5.017   6.179  0.0048  0.0468  0.0675
  837loPI   GL211696  16.014   4.805   6.023 -0.1808  0.3195 -0.3561
  837loPI   C1A11697  16.072   5.090   6.572 -0.0313 -0.0638  0.1979
  837loPI   C2A11698  16.094   4.999   7.049  0.2741 -0.2337  0.0295
  837loPI   C3A11699  16.028   4.937   7.429 -0.1897 -0.1638  0.0519
  837loPI   C4A11700  15.911   4.987   7.802  0.1393 -0.3117 -0.1228
  837loPI   C5A11701  15.846   5.396   8.101 -0.1300  0.1194 -0.4048
  837loPI   C6A11702  15.541   5.244   8.419  0.0323  0.3246  0.2058
  837loPI   C1B11703  15.888   4.587   6.402 -0.5525 -0.1065 -0.0594
  837loPI   C2B11704  15.969   4.556   6.799  0.0874 -0.0747 -0.0623
  837loPI   C3B11705  15.527   4.476   7.030 -0.0202  0.2568  0.3110
  837loPI   C4B11706  15.227   4.520   7.359 -0.3946  0.1316 -0.2188
  838loPI    C111707   3.158  11.469   5.630  0.1704 -0.1257 -0.1523
  838loPI    C211708   3.475  11.323   5.435  0.2895  0.0942 -0.1264
  838loPI    C311709   3.380  11.711   5.402  0.0530  0.0407 -0.0926
  838loPI   PO411710   3.147  11.383   5.930  0.2104 -0.1832  0.0176
  838loPI   GL111711   2.929  11.344   6.291  0.0436  0.2232  0.1454
  838loPI   GL211712   2.882  11.653   6.326  0.2089 -0.0948 -0.0883
  838loPI   C1A11713   3.036  11.208   6.759 -0.0205 -0.0887 -0.4033
  838loPI   C2A11714   3.063  11.057   7.200  0.2019  0.2517  0.0874
  838loPI   C3A11715   3.227  11.119   7.660 -0.2375  0.0897 -0.3929
  838loPI   C4A11716   3.471  10.999   7.998 -0.0955 -0.1634 -0.0932
  838loPI   C5A11717   3.745  11.145   8.132  0.4337 -0.2539 -0.1887
  838loPI   C6A11718   4.183  11.340   8.093 -0.1477  0.1745 -0.2219
  838loPI   C1B11719   3.000  11.712   6.783 -0.0693  0.2659  0.0490
  838loPI   C2B11720   3.126  11.683   7.134 -0.1270 -0.1323 -0.1529
  838loPI   C3B11721   3.425  11.479   7.432 -0.1439 -0.1570 -0.2580
  838loPI   C4B11722   3.823  11.737   7.652  0.1986  0.1510 -0.1761
  839loPI    C111723   9.189   1.605   5.677 -0.1458  0.2262 -0.1955
  839loPI    C211724   9.340   1.333   5.425  0.1351 -0.0015  0.2077
  839loPI    C311725   8.967   1.469   5.373  0.0907 -0.2511 -0.1634
  839loPI   PO411726   9.138   1.543   5.917  0.1213 -0.0043  0.0700
  839loPI   GL111727   9.112   1.375   6.309  0.0780  0.4006  0.0174
  839loPI   GL211728   9.418   1.389   6.313 -0.3946 -0.2221 -0.0915
  839loPI   C1A11729   9.126   1.228   6.690 -0.2892  0.0641  0.0669
  839loPI   C2A11730   9.129   1.215   7.088  0.2876  0.1843  0.1127
  839loPI   C3A11731   9.154   1.226   7.529 -0.1339  0.0309 -0.0614
  839loPI   C4A11732   8.939   1.225   7.905  0.1522  0.0302  0.0301
  839loPI   C5A11733   8.576   1.268   8.277  0.3122 -0.0746 -0.2957
  839loPI   C6A11734   8.500   1.636   8.556  0.3326  0.0392  0.1868
  839loPI   C1B11735   9.604   1.365   6.670 -0.2031  0.0627 -0.1648
  839loPI   C2B11736   9.588   1.490   7.116  0.0127  0.1250 -0.0617
  839loPI   C3B11737   9.751   1.515   7.466 -0.0369 -0.0653 -0.3641
  839loPI   C4B11738   9.488   1.453   7.836  0.0219 -0.0627 -0.0201
  840loPI    C111739  17.794   6.351   5.739 -0.0550  0.1064  0.0543
  840loPI    C211740  17.445   6.333   5.545 -0.0224 -0.1231  0.0133
  840loPI    C311741  17.788   6.309   5.341  0.0205  0.1691  0.0464
  840loPI   PO411742  17.694   6.542   5.953 -0.3544  0.2278 -0.0334
  840loPI   GL111743  17.694   6.854   6.281 -0.0309 -0.0858  0.0208
  840loPI   GL211744  17.837   6.801   6.618  0.3855 -0.0382  0.1070
  840loPI   C1A11745  17.680   7.320   6.587 -0.1913 -0.0969  0.1898
  840loPI   C2A11746  17.507   7.354   7.025  0.1832  0.0210 -0.0572
  840loPI   C3A11747  17.474   7.384   7.487  0.2238  0.2431  0.0237
  840loPI   C4A11748  17.656   7.444   7.877 -0.5313 -0.1112  0.0118
  840loPI   C5A11749  17.795   7.782   8.145 -0.1139  0.0255  0.0362
  840loPI   C6A11750  17.920   8.002   8.360 -0.0188  0.0487 -0.4009
  840loPI   C1B11751  18.149   6.642   6.942  0.1632  0.0167  0.0896
  840loPI   C2B11752  18.172   6.715   7.348 -0.3243 -0.2131 -0.0054
  840loPI   C3B11753  18.215   6.830   7.772 -0.0400  0.1804 -0.0927
  840loPI   C4B11754  18.360   7.025   8.157 -0.1419 -0.0021  0.3726
  841loPI    C111755   9.578  13.041   5.725 -0.0137 -0.0693 -0.1338
  841loPI    C211756   9.821  12.921   5.431  0.0654 -0.0088 -0.0936
  841loPI    C311757   9.425  12.880   5.392  0.0836 -0.1481 -0.1409
  841loPI   PO411758   9.613  12.880   5.937 -0.1831 -0.0090  0.0663
  841loPI   GL111759   9.790  12.589   6.204  0.1338 -0.0913 -0.1799
  841loPI   GL211760   9.588  12.314   6.152 -0.4080  0.1024 -0.1599
  841loPI   C1A11761   9.928  12.458   6.513  0.0042  0.2508 -0.0586
  841loPI   C2A11762   9.868  12.454   6.925  0.2164 -0.2082  0.0181
  841loPI   C3A11763   9.846  12.276   7.274 -0.0016  0.1304  0.2268
  841loPI   C4A11764   9.800  12.233   7.658 -0.2894 -0.3574  0.0353
  841loPI   C5A11765   9.493  12.280   7.861  0.2328  0.0591  0.1254
  841loPI   C6A11766   9.213  12.277   8.225  0.2370  0.0140  0.0953
  841loPI   C1B11767   9.499  12.143   6.553  0.1094  0.1772 -0.4503
  841loPI   C2B11768   9.736  11.981   6.907 -0.2696 -0.0003  0.0295
  841loPI   C3B11769   9.759  11.760   7.363  0.3765 -0.2439  0.2029
  841loPI   C4B11770   9.800  11.778   7.817  0.3589 -0.2264  0.1813
  842loPI    C111771  16.822  14.166   5.490  0.0522 -0.2000 -0.3050
  842loPI    C211772  16.448  14.040   5.426 -0.0488  0.0038 -0.1304
  842loPI    C311773  16.639  14.248   5.143 -0.0710 -0.0901 -0.2153
  842loPI   PO411774  16.887  14.300   5.640  0.0954  0.3075  0.0703
  842loPI   GL111775  16.797  14.573   5.929  0.2698  0.1909  0.2118
  842loPI   GL211776  16.927  14.698   6.243 -0.2212 -0.0853 -0.2769
  842loPI   C1A11777  16.527  14.352   6.333  0.0262 -0.0870 -0.2312
  842loPI   C2A11778  16.456  14.328   6.846 -0.0659  0.0210  0.0767
  842loPI   C3A11779  16.259  14.251   7.323  0.2939  0.1069  0.2618
  842loPI   C4A11780  16.013  14.543   7.571  0.0361  0.2602 -0.1444
  842loPI   C5A11781  15.723  14.695   7.738  0.1305 -0.1515 -0.1569
  842loPI   C6A11782  15.718  14.881   8.140 -0.0097 -0.1026 -0.0642
  842loPI   C1B11783  16.758  14.772   6.729 -0.0653 -0.1470 -0.2434
  842loPI   C2B11784  16.593  14.779   7.244 -0.2447 -0.1661  0.0320
  842loPI   C3B11785  16.453  14.743   7.654 -0.2656 -0.2977  0.0934
  842loPI   C4B11786  16.165  14.899   7.897  0.4363 -0.1929 -0.1722
  843loPI    C111787  11.918   9.166   5.558  0.3712 -0.1252  0.2900
  843loPI    C211788  11.605   8.918   5.538  0.1176  0.2096 -0.0289
  843loPI    C311789  11.886   8.908   5.254  0.1662  0.2100  0.0191
  843loPI   PO411790  12.006   9.189   5.782 -0.1314 -0.1804  0.2409
  843loPI   GL111791  12.087   9.170   6.266  0.0168 -0.0561 -0.0512
  843loPI   GL211792  12.380   9.145   6.292  0.5169 -0.0402 -0.1849
  843loPI   C1A11793  11.811   9.048   6.507  0.0158  0.1246 -0.0954
  843loPI   C2A11794  11.822   9.105   6.958 -0.0934  0.2837 -0.0590
  843loPI   C3A11795  11.688   8.994   7.448  0.2274 -0.0181 -0.0997
  843loPI   C4A11796  11.370   9.113   7.760 -0.1373  0.0348  0.3839
  843loPI   C5A11797  11.245   8.819   8.132  0.2733  0.3651 -0.0407
  843loPI   C6A11798  11.252   8.726   8.588  0.1326 -0.0474 -0.4303
  843loPI   C1B11799  12.336   9.119   6.715 -0.1326  0.0543 -0.1141
  843loPI   C2B11800  12.338   9.130   7.151 -0.1685 -0.0594  0.0200
  843loPI   C3B11801  12.155   9.013   7.515 -0.0841  0.0446 -0.1674
  843loPI   C4B11802  11.892   9.164   7.903 -0.1516  0.4716 -0.0714
  844loPI    C111803   0.214  10.319   5.679  0.3555 -0.1673 -0.0902
  844loPI    C211804  -0.089  10.354   5.420  0.0853 -0.0538  0.2346
  844loPI    C311805   0.256  10.190   5.302 -0.0185  0.0297 -0.2048
  844loPI   PO411806   0.226  10.482   5.772 -0.1422 -0.0542 -0.0482
  844loPI   GL111807   0.009  10.773   6.136 -0.1656  0.0601 -0.1992
  844loPI   GL211808   0.220  10.616   6.377  0.4066  0.1162 -0.4855
  844loPI   C1A11809  -0.112  10.972   6.480 -0.1105  0.1026 -0.0659
  844loPI   C2A11810  -0.157  11.019   6.898  0.0980 -0.1246  0.1621
  844loPI   C3A11811  -0.168  11.041   7.426 -0.0091  0.2313 -0.0390
  844loPI   C4A11812  -0.180  10.999   7.900  0.2031  0.0091 -0.1357
  844loPI   C5A11813  -0.074  11.180   8.202  0.1037 -0.0350 -0.1670
  844loPI   C6A11814   0.205  11.390   8.489  0.0789 -0.0614  0.2984
  844loPI   C1B11815   0.065  10.502   6.694 -0.0848 -0.0008  0.2742
  844loPI   C2B11816  -0.063  10.623   7.183 -0.3792  0.0311  0.2525
  844loPI   C3B11817   0.123  10.666   7.604 -0.0870  0.0480  0.0120
  844loPI   C4B11818   0.259  10.759   7.969 -0.0482  0.1582 -0.1673
  845loPI    C111819   2.219   9.678   5.675  0.4263 -0.0571  0.0943
  845loPI    C211820   2.129   9.797   5.304  0.0855  0.1649  0.2426
  845loPI    C311821   2.264   9.426   5.368  0.2139  0.1468 -0.1091
  845loPI   PO411822   2.057   9.969   5.887 -0.0014  0.0558  0.0522
  845loPI   GL111823   2.082  10.090   6.226  0.0227  0.2230  0.2475
  845loPI   GL211824   2.347  10.102   6.358 -0.1109 -0.2867  0.0592
  845loPI   C1A11825   1.892  10.078   6.573 -0.0826  0.0949  0.0785
  845loPI   C2A11826   1.953   9.957   6.939 -0.1954  0.1908  0.0981
  845loPI   C3A11827   1.916  10.146   7.304 -0.2561  0.2284  0.1632
  845loPI   C4A11828   2.099  10.322   7.652  0.0753  0.0880  0.1071
  845loPI   C5A11829   2.384  10.373   7.984 -0.0722 -0.4638 -0.1696
  845loPI   C6A11830   2.589  10.181   8.313 -0.4397  0.0322 -0.1876
  845loPI   C1B11831   2.393  10.130   6.804 -0.0126 -0.1665 -0.0195
  845loPI   C2B11832   2.420  10.048   7.257 -0.1007  0.1618  0.1653
  845loPI   C3B11833   2.479   9.992   7.655  0.1626 -0.1606  0.0381
  845loPI   C4B11834   2.421   9.833   7.980  0.1335  0.3716 -0.2140
  846loPI    C111835  16.781   3.802   5.890 -0.0516 -0.0635  0.0542
  846loPI    C211836  16.701   3.814   5.498  0.2857  0.3056 -0.0103
  846loPI    C311837  16.896   3.501   5.653  0.0056  0.0804 -0.1030
  846loPI   PO411838  16.529   3.835   6.044  0.0013 -0.1351  0.1989
  846loPI   GL111839  16.422   3.412   6.196 -0.0864 -0.0560  0.0257
  846loPI   GL211840  16.754   3.375   6.129 -0.0617 -0.3786 -0.0778
  846loPI   C1A11841  16.264   3.238   6.621 -0.1580  0.1204 -0.2056
  846loPI   C2A11842  16.060   3.171   6.921  0.0258 -0.2914  0.0473
  846loPI   C3A11843  16.037   3.146   7.345  0.0406  0.3056  0.0294
  846loPI   C4A11844  15.905   3.123   7.732  0.0658  0.5072 -0.1317
  846loPI   C5A11845  15.826   3.173   8.224  0.0541  0.0678 -0.2119
  846loPI   C6A11846  15.625   3.425   8.476  0.0056 -0.0470 -0.2347
  846loPI   C1B11847  17.001   3.374   6.584  0.1563  0.1775 -0.1745
  846loPI   C2B11848  17.044   3.375   7.014 -0.2596 -0.0066 -0.1387
  846loPI   C3B11849  17.003   3.343   7.411 -0.0263  0.1646 -0.0136
  846loPI   C4B11850  16.728   3.240   7.830  0.0387  0.0214  0.3903
  847loPI    C111851  15.472   9.383   6.043 -0.0894  0.0318 -0.0269
  847loPI    C211852  15.415   9.259   5.668  0.1152 -0.1742  0.0079
  847loPI    C311853  15.629   9.589   5.738 -0.0679 -0.0385 -0.0636
  847loPI   PO411854  15.563   9.236   6.167 -0.1730  0.3248  0.3581
  847loPI   GL111855  15.421   8.915   6.403 -0.1968  0.2286  0.1120
  847loPI   GL211856  15.570   8.589   6.445 -0.1463 -0.0850  0.0383
  847loPI   C1A11857  15.092   8.845   6.657 -0.1619  0.0560 -0.0079
  847loPI   C2A11858  14.916   9.029   6.939  0.0275  0.2177 -0.1445
  847loPI   C3A11859  14.920   9.216   7.217 -0.3113 -0.0268 -0.0084
  847loPI   C4A11860  14.982   9.245   7.619  0.1424  0.2885 -0.2875
  847loPI   C5A11861  14.965   9.046   7.977 -0.0036 -0.0008  0.1007
  847loPI   C6A11862  14.658   8.627   7.851 -0.1020  0.1530  0.0891
  847loPI   C1B11863  15.507   8.603   6.943 -0.1210 -0.1685  0.3136
  847loPI   C2B11864  15.569   8.519   7.376  0.0621  0.0834 -0.0103
  847loPI   C3B11865  15.556   8.695   7.819  0.0531  0.0612 -0.2690
  847loPI   C4B11866  15.559   8.931   8.234  0.1018  0.1925  0.0407
  848loPI    C111867   5.399   9.584   5.606 -0.0124 -0.2220  0.1197
  848loPI    C211868   5.292   9.573   5.220 -0.0396 -0.0550  0.1217
  848loPI    C311869   5.678   9.599   5.320 -0.0301 -0.1347  0.1068
  848loPI   PO411870   5.183   9.735   5.728 -0.1014 -0.0213 -0.2797
  848loPI   GL111871   4.971   9.836   6.129 -0.2743  0.2117  0.0361
  848loPI   GL211872   4.942   9.598   6.357  0.0197 -0.0669  0.1450
  848loPI   C1A11873   5.131   9.975   6.552  0.2870 -0.0394  0.1571
  848loPI   C2A11874   5.371   9.977   6.902  0.0228 -0.3769  0.1115
  848loPI   C3A11875   5.715   9.966   7.221 -0.1092  0.0564 -0.1522
  848loPI   C4A11876   6.008  10.032   7.545  0.0371 -0.0041 -0.3286
  848loPI   C5A11877   6.093  10.183   7.900  0.0563  0.3366 -0.2702
  848loPI   C6A11878   5.947  10.210   8.322 -0.1650 -0.0229  0.0129
  848loPI   C1B11879   5.034   9.484   6.871  0.0561  0.1359  0.1795
  848loPI   C2B11880   5.225   9.505   7.282  0.0107 -0.0490 -0.2590
  848loPI   C3B11881   5.055   9.543   7.698  0.0277  0.2225  0.1766
  848loPI   C4B11882   5.093   9.844   7.951 -0.0347  0.0581 -0.0116
  849loPI    C111883   9.469  10.707   6.030  0.0022  0.0414  0.1078
  849loPI    C211884   9.256  10.551   5.730 -0.0041  0.2498  0.0017
  849loPI    C311885   9.650  10.607   5.688  0.0452  0.0181  0.1372
  849loPI   PO411886   9.324  10.900   6.142  0.3920  0.0323 -0.2369
  849loPI   GL111887   9.306  10.992   6.569 -0.2669 -0.0846  0.0153
  849loPI   GL211888   9.337  11.304   6.666 -0.0821 -0.0986 -0.0154
  849loPI   C1A11889   9.204  10.969   7.031  0.2059 -0.0614  0.3726
  849loPI   C2A11890   9.376  11.041   7.448 -0.1139  0.0197 -0.1838
  849loPI   C3A11891   9.566  11.336   7.789 -0.1195  0.0535 -0.2276
  849loPI   C4A11892   9.474  11.408   8.254 -0.0841 -0.1184 -0.0613
  849loPI   C5A11893   9.176  11.378   8.664  0.2422  0.2287  0.0691
  849loPI   C6A11894   9.093  11.512   8.990  0.0227  0.2003 -0.1687
  849loPI   C1B11895   9.483  11.486   7.067 -0.0219 -0.0275 -0.1312
  849loPI   C2B11896   9.318  11.663   7.523 -0.2176  0.1799 -0.1899
  849loPI   C3B11897   8.974  11.751   7.658  0.1182  0.1177  0.2112
  849loPI   C4B11898   8.562  11.575   7.687 -0.1736  0.1340 -0.0887
  850loPI    C111899   9.882   7.265   5.576 -0.1995  0.1505 -0.0431
  850loPI    C211900  10.116   7.571   5.682 -0.0352  0.0499 -0.1119
  850loPI    C311901  10.225   7.196   5.769 -0.1939  0.0049 -0.1035
  850loPI   PO411902   9.634   7.339   5.737 -0.0539  0.2160 -0.3426
  850loPI   GL111903   9.371   7.103   6.027 -0.3272  0.3035  0.4228
  850loPI   GL211904   9.515   7.368   6.183 -0.0143 -0.1265 -0.2205
  850loPI   C1A11905   9.066   7.293   6.191 -0.0422 -0.0925  0.0011
  850loPI   C2A11906   9.065   7.444   6.554  0.1968 -0.0980 -0.0894
  850loPI   C3A11907   8.977   7.573   6.937  0.1766 -0.1861 -0.0232
  850loPI   C4A11908   8.957   7.832   7.443 -0.0195  0.0559 -0.0301
  850loPI   C5A11909   8.807   7.557   7.774  0.3064  0.1221  0.0310
  850loPI   C6A11910   8.918   7.434   8.280  0.1631  0.0654  0.3080
  850loPI   C1B11911   9.448   7.194   6.650  0.0618 -0.0895  0.0861
  850loPI   C2B11912   9.330   7.298   7.016 -0.1422  0.1491 -0.2911
  850loPI   C3B11913   9.204   7.352   7.429 -0.1148  0.2173  0.3455
  850loPI   C4B11914   9.298   7.278   7.909  0.0648  0.0491 -0.0291
  851loPI    C111915  14.581  16.558   5.732  0.0941 -0.1835  0.0157
  851loPI    C211916  14.758  16.508   5.377 -0.0217 -0.3019 -0.0261
  851loPI    C311917  14.487  16.798   5.426  0.1645 -0.1353  0.0315
  851loPI   PO411918  14.741  16.434   5.994 -0.0788  0.1104  0.0567
  851loPI   GL111919  14.803  16.563   6.373 -0.2069 -0.0246 -0.0701
  851loPI   GL211920  15.105  16.455   6.457  0.1157  0.2819  0.0960
  851loPI   C1A11921  14.544  16.871   6.544 -0.0470 -0.4118  0.1119
  851loPI   C2A11922  14.277  17.255   6.479  0.1706 -0.1684  0.2224
  851loPI   C3A11923  14.127  17.395   6.884  0.1417 -0.0300 -0.3150
  851loPI   C4A11924  14.113  17.390   7.300 -0.2122  0.1698  0.3163
  851loPI   C5A11925  14.202  17.228   7.499 -0.4758  0.3361  0.0541
  851loPI   C6A11926  14.444  16.791   7.528 -0.0644  0.0496 -0.2804
  851loPI   C1B11927  15.182  16.345   6.902 -0.2611  0.1251  0.1012
  851loPI   C2B11928  15.397  16.226   7.252  0.0824  0.0111 -0.1262
  851loPI   C3B11929  15.443  16.408   7.702 -0.2229 -0.0871  0.0261
  851loPI   C4B11930  15.467  16.097   8.104  0.1710  0.2394 -0.0000
  852loPI    C111931   1.495  17.918   5.731  0.0357  0.1795  0.0704
  852loPI    C211932   1.621  18.187   5.999  0.0354  0.2803 -0.0302
  852loPI    C311933   1.258  18.223   5.834 -0.0345  0.1202  0.0857
  852loPI   PO411934   1.611  17.680   5.824  0.0359 -0.1671 -0.3550
  852loPI   GL111935   1.768  17.752   6.230  0.1189  0.1367  0.1449
  852loPI   GL211936   2.091  17.859   6.137 -0.0184  0.0087  0.0367
  852loPI   C1A11937   1.861  17.824   6.641  0.3186 -0.1092  0.0386
  852loPI   C2A11938   1.873  17.776   7.109 -0.0179 -0.2711 -0.1903
  852loPI   C3A11939   1.881  17.503   7.559 -0.2586  0.0260 -0.1371
  852loPI   C4A11940   2.087  17.663   7.933  0.2608  0.2095 -0.0281
  852loPI   C5A11941   2.052  17.938   8.242 -0.2565 -0.0025  0.2975
  852loPI   C6A11942   1.686  17.763   8.457  0.1010  0.2260  0.3172
  852loPI   C1B11943   2.283  17.962   6.496  0.1389 -0.0374 -0.0892
  852loPI   C2B11944   2.395  17.886   6.938 -0.0159  0.2038 -0.1332
  852loPI   C3B11945   2.411  17.623   7.333  0.0015  0.0952  0.1262
  852loPI   C4B11946   2.498  17.447   7.727 -0.0077  0.0574  0.1398
  853loPI    C111947  14.361  12.087   5.612  0.2813  0.0257  0.3009
  853loPI    C211948  14.704  12.266   5.715  0.2012  0.3781 -0.0237
  853loPI    C311949  14.654  12.130   5.342  0.0241  0.2384  0.0499
  853loPI   PO411950  14.312  11.961   5.855  0.0257 -0.1692 -0.2084
  853loPI   GL111951  14.539  12.116   6.161 -0.1731 -0.1487 -0.0889
  853loPI   GL211952  14.664  11.902   6.375 -0.1456 -0.3001  0.3418
  853loPI   C1A11953  14.339  12.317   6.562  0.1574 -0.2634 -0.1791
  853loPI   C2A11954  14.216  12.256   7.002 -0.2280 -0.0254 -0.2799
  853loPI   C3A11955  14.072  12.157   7.440 -0.1565  0.2260 -0.0766
  853loPI   C4A11956  14.067  12.036   7.814 -0.0820 -0.4588  0.1070
  853loPI   C5A11957  14.102  11.940   8.232  0.0088  0.0457 -0.1598
  853loPI   C6A11958  14.063  11.694   8.643  0.2428 -0.0465  0.0605
  853loPI   C1B11959  14.501  11.790   6.719  0.0780 -0.1465  0.1865
  853loPI   C2B11960  14.414  11.839   7.233  0.2647  0.0184  0.0521
  853loPI   C3B11961  14.459  11.743   7.646  0.2277  0.0429  0.0175
  853loPI   C4B11962  14.762  11.818   8.030  0.3704  0.1066  0.1899
  854loPI    C111963  10.871  12.151   6.007 -0.0977  0.0161 -0.1096
  854loPI    C211964  10.971  12.272   5.639  0.4937 -0.1063  0.0014
  854loPI    C311965  10.896  11.885   5.709 -0.0385 -0.0231 -0.0698
  854loPI   PO411966  11.009  12.250   6.176 -0.4819 -0.3021 -0.1669
  854loPI   GL111967  10.975  12.239   6.591 -0.1285 -0.1708 -0.1680
  854loPI   GL211968  10.879  11.913   6.524  0.0619 -0.0826  0.1318
  854loPI   C1A11969  11.162  11.997   7.040  0.2125  0.0489 -0.0084
  854loPI   C2A11970  11.226  12.130   7.449  0.4275 -0.2858  0.0850
  854loPI   C3A11971  11.237  12.339   7.914 -0.1849  0.0190  0.1521
  854loPI   C4A11972  11.508  12.625   8.194 -0.1219 -0.2528 -0.0893
  854loPI   C5A11973  11.277  12.958   8.345 -0.0884  0.1394 -0.2072
  854loPI   C6A11974  11.012  13.185   8.655  0.0758 -0.1540 -0.0011
  854loPI   C1B11975  10.728  11.844   6.932 -0.0069  0.2457 -0.2493
  854loPI   C2B11976  10.673  11.991   7.419 -0.0377  0.0737  0.2394
  854loPI   C3B11977  10.814  12.045   7.814  0.2329 -0.0331 -0.3192
  854loPI   C4B11978  10.903  12.051   8.209 -0.0224 -0.2157  0.3584
  855loPI    C111979  11.169  16.734   5.798  0.0630  0.1177  0.0062
  855loPI    C211980  10.940  17.027   5.652 -0.0099  0.0644  0.0128
  855loPI    C311981  10.806  16.650   5.652  0.0570  0.0405  0.0646
  855loPI   PO411982  11.208  16.933   6.066 -0.0481 -0.4090 -0.1101
  855loPI   GL111983  11.060  16.724   6.446 -0.1239  0.0642  0.0515
  855loPI   GL211984  10.939  17.005   6.511 -0.4008 -0.4304 -0.3163
  855loPI   C1A11985  11.036  16.630   6.836 -0.1139 -0.2033  0.1291
  855loPI   C2A11986  10.944  16.774   7.257  0.0875  0.1054  0.1006
  855loPI   C3A11987  10.852  16.805   7.633  0.4427 -0.0153 -0.2271
  855loPI   C4A11988  10.985  17.027   8.042 -0.1030 -0.1162 -0.2190
  855loPI   C5A11989  11.065  17.159   8.487  0.1629 -0.0566  0.0453
  855loPI   C6A11990  11.092  17.168   8.849  0.1057  0.0606 -0.1181
  855loPI   C1B11991  10.972  17.169   6.993  0.0201  0.2504 -0.1075
  855loPI   C2B11992  11.103  17.277   7.418  0.0196  0.0600 -0.0215
  855loPI   C3B11993  11.231  17.359   7.811  0.5136 -0.1463  0.2446
  855loPI   C4B11994  11.393  17.502   8.169  0.0488  0.2013 -0.2413
  856loPI    C111995   3.779   3.432   5.553 -0.1405 -0.1059  0.0133
  856loPI    C211996   3.660   3.418   5.172 -0.0224 -0.3078 -0.0181
  856loPI    C311997   3.990   3.224   5.285  0.1199  0.0095  0.1251
  856loPI   PO411998   3.549   3.418   5.699  0.1497 -0.2797 -0.3079
  856loPI   GL111999   3.349   3.347   6.077  0.1676  0.1818 -0.4673
  856loPI   GL212000   3.706   3.489   6.146 -0.1761 -0.1099 -0.2335
  856loPI   C1A12001   3.143   3.372   6.466  0.0014  0.2487 -0.0392
  856loPI   C2A12002   3.035   3.306   6.814  0.2266  0.1007 -0.1631
  856loPI   C3A12003   3.039   3.277   7.208  0.1393  0.0293  0.0666
  856loPI   C4A12004   3.002   3.288   7.589  0.2884  0.1072 -0.2807
  856loPI   C5A12005   3.024   3.276   8.017  0.0555  0.0842 -0.0796
  856loPI   C6A12006   3.207   3.050   8.320 -0.0903  0.1186 -0.3174
  856loPI   C1B12007   3.567   3.622   6.610 -0.0282  0.0081 -0.0861
  856loPI   C2B12008   3.502   3.543   6.988  0.2611  0.2070 -0.1445
  856loPI   C3B12009   3.466   3.529   7.479  0.0351 -0.0280  0.3065
  856loPI   C4B12010   3.431   3.544   7.940  0.0838  0.1546 -0.0598
  857loPI    C112011  15.028   9.586   5.917  0.0382  0.1001 -0.0440
  857loPI    C212012  14.710   9.405   5.756  0.0987 -0.2407  0.2082
  857loPI    C312013  14.749   9.802   5.728 -0.0125 -0.2624 -0.3974
  857loPI   PO412014  14.957   9.500   6.180  0.1660  0.4124 -0.2656
  857loPI   GL112015  15.187   9.350   6.482 -0.2326  0.0938  0.1709
  857loPI   GL212016  15.420   9.597   6.472  0.2974  0.2180 -0.0603
  857loPI   C1A12017  15.436   9.137   6.883 -0.1473  0.4056 -0.1278
  857loPI   C2A12018  15.470   9.048   7.264 -0.3349  0.1005 -0.3002
  857loPI   C3A12019  15.541   9.145   7.596 -0.2659 -0.3689  0.1779
  857loPI   C4A12020  15.787   9.184   7.909  0.0402  0.1436  0.0540
  857loPI   C5A12021  16.063   9.431   8.147 -0.0599  0.2944 -0.2364
  857loPI   C6A12022  16.010   9.646   8.483 -0.0730 -0.4339 -0.3569
  857loPI   C1B12023  15.409   9.621   6.891 -0.1390  0.1455  0.0199
  857loPI   C2B12024  15.332   9.532   7.284  0.1748  0.1978 -0.1994
  857loPI   C3B12025  15.324   9.609   7.700 -0.1189 -0.1325 -0.1215
  857loPI   C4B12026  15.299   9.350   8.096 -0.1468 -0.1662  0.4236
  858loPI    C112027  12.170   5.914   5.595 -0.1338 -0.1584  0.0194
  858loPI    C212028  11.889   6.111   5.389  0.2465 -0.1469 -0.5097
  858loPI    C312029  12.256   6.266   5.426  0.1969 -0.1603  0.1753
  858loPI   PO412030  12.090   5.858   5.808  0.1148 -0.0285 -0.1009
  858loPI   GL112031  12.104   6.072   6.230 -0.3144  0.2292 -0.1716
  858loPI   GL212032  12.125   5.827   6.351 -0.0698  0.1168 -0.1810
  858loPI   C1A12033  11.680   6.046   6.565  0.0226  0.1102 -0.0937
  858loPI   C2A12034  11.569   6.174   6.960  0.1800  0.2249  0.1296
  858loPI   C3A12035  11.477   6.197   7.358 -0.1344 -0.1391 -0.0364
  858loPI   C4A12036  11.529   6.209   7.762  0.0013 -0.3307  0.3424
  858loPI   C5A12037  11.522   6.327   8.246 -0.5222  0.0923 -0.2646
  858loPI   C6A12038  11.074   6.353   8.446  0.2785 -0.1003 -0.0863
  858loPI   C1B12039  12.008   5.826   6.833  0.0624  0.3263  0.0207
  858loPI   C2B12040  11.759   5.812   7.269 -0.1686  0.1350  0.0248
  858loPI   C3B12041  11.822   5.796   7.746 -0.2533 -0.3545  0.1775
  858loPI   C4B12042  12.019   5.597   8.005 -0.0366  0.2345 -0.2166
  859loPI    C112043  12.722   7.086   5.702  0.0123 -0.1551 -0.1921
  859loPI    C212044  12.974   7.305   5.483 -0.0480 -0.0585 -0.1654
  859loPI    C312045  12.671   7.115   5.306 -0.0165 -0.0917 -0.1838
  859loPI   PO412046  12.668   7.255   5.884  0.0855  0.0594  0.2462
  859loPI   GL112047  12.557   7.197   6.271 -0.0899 -0.0382 -0.1910
  859loPI   GL212048  12.398   7.575   6.386 -0.2742  0.2127  0.0439
  859loPI   C1A12049  12.623   7.197   6.596  0.1979 -0.3933  0.2108
  859loPI   C2A12050  12.704   7.207   7.040  0.0083  0.1938  0.1456
  859loPI   C3A12051  12.882   7.281   7.385  0.0860  0.2440 -0.0665
  859loPI   C4A12052  13.123   7.248   7.772 -0.1278 -0.2154 -0.0635
  859loPI   C5A12053  13.436   7.397   8.047  0.0987 -0.0025  0.1300
  859loPI   C6A12054  13.654   7.076   8.316 -0.2279  0.1146  0.2228
  859loPI   C1B12055  12.352   7.540   6.860  0.0016 -0.0924  0.1767
  859loPI   C2B12056  12.152   7.301   7.127  0.2505  0.0196  0.0681
  859loPI   C3B12057  12.376   7.061   7.429 -0.0364 -0.1848 -0.1384
  859loPI   C4B12058  12.517   7.079   7.795 -0.1650 -0.2133 -0.1892
  860loPI    C112059   1.184   7.704   6.042  0.3583  0.2038 -0.0209
  860loPI    C212060   0.911   7.822   5.775  0.1023 -0.0856  0.1076
  860loPI    C312061   1.261   7.673   5.650  0.0821  0.0070 -0.0626
  860loPI   PO412062   1.182   7.883   6.187  0.0020 -0.0655  0.0961
  860loPI   GL112063   1.220   7.783   6.560 -0.2438 -0.3295 -0.0131
  860loPI   GL212064   1.586   7.659   6.531  0.2160 -0.0330  0.0465
  860loPI   C1A12065   1.122   7.764   7.010 -0.0117  0.0458  0.3303
  860loPI   C2A12066   1.177   7.584   7.480 -0.1470  0.0674 -0.2257
  860loPI   C3A12067   1.072   7.555   8.005  0.4522  0.0574  0.0458
  860loPI   C4A12068   1.058   7.567   8.538  0.6268  0.0841 -0.1525
  860loPI   C5A12069   1.161   7.816   8.812  0.1023  0.5966 -0.0070
  860loPI   C6A12070   1.418   8.010   9.080 -0.2106  0.2968 -0.1935
  860loPI   C1B12071   1.660   7.607   6.987  0.0880  0.2210  0.0219
  860loPI   C2B12072   1.672   7.749   7.342  0.0742  0.0623  0.0648
  860loPI   C3B12073   1.828   7.695   7.696 -0.1664 -0.0688  0.3886
  860loPI   C4B12074   1.553   7.621   8.054  0.0371  0.2248  0.1949
  861loPI    C112075  16.191  17.245   5.765  0.0968  0.0668  0.2375
  861loPI    C212076  15.877  17.271   6.011  0.0488  0.2394  0.1599
  861loPI    C312077  15.978  17.583   5.783  0.0696  0.0684 -0.0683
  861loPI   PO412078  16.200  16.924   5.741 -0.0933  0.0680  0.0430
  861loPI   GL112079  16.314  16.760   6.118 -0.2117  0.0779  0.0199
  861loPI   GL212080  16.335  17.037   6.266  0.0113  0.2285  0.2010
  861loPI   C1A12081  16.065  16.470   6.441 -0.0310 -0.1424 -0.2944
  861loPI   C2A12082  16.147  16.185   6.841  0.1119  0.0921  0.1829
  861loPI   C3A12083  15.885  15.976   7.258  0.1844  0.0729 -0.1619
  861loPI   C4A12084  15.822  16.064   7.686  0.0203 -0.0728  0.0698
  861loPI   C5A12085  15.930  15.857   8.014  0.1343  0.3613  0.2000
  861loPI   C6A12086  16.063  15.793   8.372 -0.2194 -0.0735 -0.1086
  861loPI   C1B12087  16.580  17.324   6.558 -0.0718 -0.1181 -0.1049
  861loPI   C2B12088  16.388  17.665   6.877  0.1515  0.0824 -0.1897
  861loPI   C3B12089  16.533  17.661   7.284  0.4081 -0.2492 -0.1541
  861loPI   C4B12090  16.562  17.566   7.667  0.3192 -0.1602 -0.1992
  862loPI    C112091  17.028  15.456   6.040  0.3625  0.1653  0.2080
  862loPI    C212092  16.888  15.714   5.769  0.3026 -0.2823 -0.2024
  862loPI    C312093  16.851  15.794   6.159 -0.3023  0.0209 -0.3101
  862loPI   PO412094  17.325  15.411   5.981 -0.0392  0.0323  0.2178
  862loPI   GL112095  17.648  15.153   6.180 -0.0594 -0.0180  0.1407
  862loPI   GL212096  17.908  14.872   6.298  0.2042 -0.1287  0.0297
  862loPI   C1A12097  17.662  15.200   6.676 -0.0897  0.0702  0.1605
  862loPI   C2A12098  17.583  15.135   7.077  0.2131 -0.2233  0.2486
  862loPI   C3A12099  17.895  15.132   7.391 -0.1681 -0.2971  0.1822
  862loPI   C4A12100  17.800  14.925   7.881 -0.3982 -0.0920  0.2812
  862loPI   C5A12101  17.548  14.562   8.050  0.2086 -0.0715 -0.1345
  862loPI   C6A12102  17.176  14.507   8.133  0.0809 -0.1025 -0.0643
  862loPI   C1B12103  17.761  14.705   6.691 -0.1504 -0.1517  0.3330
  862loPI   C2B12104  17.648  14.641   7.049 -0.2737 -0.3000  0.2997
  862loPI   C3B12105  17.488  14.452   7.313 -0.0191 -0.2502  0.1372
  862loPI   C4B12106  17.446  14.384   7.593  0.0420  0.1233 -0.2630
  863loPI    C112107   2.261   1.132   5.536 -0.2433 -0.0293 -0.2327
  863loPI    C212108   2.135   1.507   5.475  0.0595  0.1637  0.2631
  863loPI    C312109   1.892   1.240   5.648 -0.0414  0.2245  0.2164
  863loPI   PO412110   2.488   1.234   5.780  0.1236  0.2209 -0.0650
  863loPI   GL112111   2.404   1.367   6.207 -0.0964  0.2226 -0.0077
  863loPI   GL212112   2.484   1.054   6.227  0.0731 -0.2145 -0.3053
  863loPI   C1A12113   2.253   1.490   6.473  0.1952 -0.0689  0.0469
  863loPI   C2A12114   2.127   1.502   6.853  0.0451 -0.1142  0.0771
  863loPI   C3A12115   2.242   1.412   7.300  0.1579 -0.0238  0.0613
  863loPI   C4A12116   2.425   1.575   7.601 -0.0403 -0.1234  0.3373
  863loPI   C5A12117   2.531   1.905   7.853 -0.1320  0.0429  0.1013
  863loPI   C6A12118   2.723   2.194   7.656  0.1817  0.4959  0.1433
  863loPI   C1B12119   2.479   1.150   6.726 -0.2072  0.3115  0.2358
  863loPI   C2B12120   2.554   1.061   7.062  0.0813 -0.1295 -0.0910
  863loPI   C3B12121   2.406   1.003   7.522  0.1866 -0.1817  0.0902
  863loPI   C4B12122   2.196   1.104   7.920 -0.2719  0.1554  0.0153
  864loPI    C112123  16.901   0.457   5.127  0.0536  0.1354 -0.1406
  864loPI    C212124  16.565   0.407   5.339  0.1472  0.1420  0.0106
  864loPI    C312125  16.548   0.433   4.941  0.0054 -0.2294 -0.0120
  864loPI   PO412126  17.038   0.476   5.433 -0.4718 -0.0546  0.0518
  864loPI   GL112127  16.966   0.341   5.810  0.0943  0.0282 -0.0236
  864loPI   GL212128  17.225   0.146   6.055  0.0418  0.0170 -0.0468
  864loPI   C1A12129  17.037   0.641   6.074  0.1881 -0.0962 -0.1947
  864loPI   C2A12130  17.105   0.732   6.464  0.0798 -0.3204  0.1521
  864loPI   C3A12131  17.034   0.514   6.880  0.0241 -0.0885 -0.2782
  864loPI   C4A12132  16.945   0.396   7.297  0.0158  0.1176  0.1024
  864loPI   C5A12133  16.781   0.476   7.645  0.1097 -0.0115 -0.1378
  864loPI   C6A12134  16.524   0.765   7.941 -0.3696  0.3137 -0.0266
  864loPI   C1B12135  16.941   0.273   6.440  0.3113  0.0047 -0.2194
  864loPI   C2B12136  16.619   0.479   6.647  0.0865 -0.0968  0.0355
  864loPI   C3B12137  16.479   0.591   7.056  0.1508 -0.1997  0.2826
  864loPI   C4B12138  16.314   0.775   7.431  0.0819 -0.1302 -0.2609
  865loPI    C112139  12.949  17.421   5.573 -0.1206 -0.0402 -0.1416
  865loPI    C212140  12.875  17.543   5.200  0.2035 -0.0389 -0.2080
  865loPI    C312141  12.896  17.810   5.497  0.0300 -0.0309 -0.2022
  865loPI   PO412142  12.739  17.281   5.658  0.2435 -0.0614  0.0797
  865loPI   GL112143  12.538  17.415   6.092  0.0135 -0.0320 -0.1637
  865loPI   GL212144  12.652  17.697   6.268 -0.1380 -0.2953  0.3838
  865loPI   C1A12145  12.347  17.397   6.658 -0.0914  0.0355 -0.2426
  865loPI   C2A12146  12.295  17.447   7.123  0.1624  0.1083  0.1767
  865loPI   C3A12147  12.181  17.440   7.503 -0.1559  0.0856  0.2006
  865loPI   C4A12148  12.297  17.733   7.930 -0.3563  0.1292  0.1371
  865loPI   C5A12149  12.290  18.078   8.189  0.1087 -0.0357 -0.2244
  865loPI   C6A12150  11.952  18.377   8.265 -0.0286  0.1884  0.0693
  865loPI   C1B12151  12.672  17.856   6.674  0.1041 -0.0856 -0.0900
  865loPI   C2B12152  12.593  17.941   7.112 -0.1102  0.0857  0.1403
  865loPI   C3B12153  12.514  17.852   7.496  0.0061 -0.3115  0.0940
  865loPI   C4B12154  12.657  18.132   7.766 -0.1971  0.0436  0.1024
  866loPI    C112155   8.126   9.958   4.970  0.1411 -0.3133 -0.1203
  866loPI    C212156   7.883   9.747   4.732 -0.0307 -0.0380 -0.1925
  866loPI    C312157   8.060  10.079   4.595  0.0314  0.0098  0.0006
  866loPI   PO412158   8.054   9.923   5.275  0.1924  0.2520 -0.0490
  866loPI   GL112159   7.884   9.816   5.670  0.0105 -0.1327 -0.1021
  866loPI   GL212160   7.870  10.085   5.802  0.2566 -0.0972  0.0394
  866loPI   C1A12161   7.890   9.494   6.105 -0.0251 -0.2971 -0.0720
  866loPI   C2A12162   7.798   9.501   6.568 -0.1155  0.1968  0.1829
  866loPI   C3A12163   7.787   9.516   6.947  0.0426 -0.1517 -0.1002
  866loPI   C4A12164   8.025   9.518   7.291  0.3383  0.3138 -0.0303
  866loPI   C5A12165   8.178   9.611   7.652  0.4033 -0.1343  0.4711
  866loPI   C6A12166   8.379   9.776   7.837  0.1223 -0.3159  0.1179
  866loPI   C1B12167   7.657  10.352   6.084  0.3201 -0.0495  0.1824
  866loPI   C2B12168   7.774  10.350   6.461  0.2813 -0.4177 -0.0261
  866loPI   C3B12169   7.599  10.670   6.787  0.2656  0.2180 -0.0583
  866loPI   C4B12170   7.610  10.800   7.115  0.2123  0.3813 -0.2912
  867loPI    C112171   7.613   2.940   5.930 -0.2018  0.1102 -0.0562
  867loPI    C212172   7.386   2.926   5.601  0.3722 -0.0781 -0.4599
  867loPI    C312173   7.437   2.597   5.823 -0.1749  0.0957 -0.0539
  867loPI   PO412174   7.811   3.117   5.880  0.0760  0.0875 -0.0107
  867loPI   GL112175   7.933   3.423   6.168 -0.3363 -0.0343  0.0621
  867loPI   GL212176   7.776   3.164   6.398  0.0276 -0.0242  0.5031
  867loPI   C1A12177   8.083   3.657   6.583  0.3357 -0.1139  0.0643
  867loPI   C2A12178   8.258   3.821   6.978  0.0758 -0.0686 -0.2013
  867loPI   C3A12179   8.234   3.976   7.448  0.0028 -0.1911 -0.0783
  867loPI   C4A12180   8.420   4.121   7.789 -0.2496 -0.0060  0.1353
  867loPI   C5A12181   8.605   4.502   7.963  0.0339 -0.2631  0.2740
  867loPI   C6A12182   8.379   4.947   8.199  0.0625  0.0870  0.0575
  867loPI   C1B12183   7.765   3.355   6.754  0.2059  0.0587 -0.5004
  867loPI   C2B12184   7.858   3.592   7.203 -0.1229  0.0983 -0.2102
  867loPI   C3B12185   7.773   3.807   7.620  0.1298 -0.0944 -0.1484
  867loPI   C4B12186   7.769   4.204   7.889 -0.2263 -0.2498  0.0451
  868loPI    C112187  14.997   8.315   5.452  0.0177 -0.0656 -0.1437
  868loPI    C212188  14.813   8.075   5.191  0.0947 -0.0120 -0.2480
  868loPI    C312189  14.693   8.454   5.232 -0.1828 -0.1304  0.0874
  868loPI   PO412190  14.984   8.285   5.691  0.0406 -0.0149  0.0639
  868loPI   GL112191  14.875   8.060   6.089 -0.3846 -0.0942 -0.0692
  868loPI   GL212192  14.722   8.374   6.227 -0.0301 -0.2515 -0.0466
  868loPI   C1A12193  14.915   7.756   6.367 -0.1245  0.0088 -0.0971
  868loPI   C2A12194  14.942   7.604   6.757  0.0600  0.0311  0.3672
  868loPI   C3A12195  15.124   7.548   7.091 -0.1737 -0.1425  0.2150
  868loPI   C4A12196  15.287   7.233   7.311 -0.0755  0.1687 -0.0736
  868loPI   C5A12197  15.300   7.190   7.708 -0.1184  0.1437  0.2896
  868loPI   C6A12198  15.280   7.496   8.078 -0.2410  0.1126  0.0052
  868loPI   C1B12199  14.641   8.179   6.577 -0.0387 -0.1704  0.0021
  868loPI   C2B12200  14.678   7.943   6.973  0.0213 -0.2644 -0.0172
  868loPI   C3B12201  14.776   7.746   7.361 -0.2009 -0.1998  0.2336
  868loPI   C4B12202  14.811   7.450   7.582  0.0243 -0.1824  0.0314
  869loPI    C112203  10.311   5.462   5.562 -0.3106  0.0901 -0.0671
  869loPI    C212204  10.321   5.785   5.326 -0.0425  0.0839 -0.0669
  869loPI    C312205  10.239   5.426   5.170  0.0306  0.0957 -0.1327
  869loPI   PO412206  10.311   5.449   5.819 -0.0584 -0.1921 -0.0344
  869loPI   GL112207  10.491   5.600   6.108  0.0895 -0.2024  0.1228
  869loPI   GL212208  10.624   5.940   6.279 -0.1783  0.3814  0.2327
  869loPI   C1A12209  10.526   5.519   6.581 -0.2204  0.0646 -0.0106
  869loPI   C2A12210  10.808   5.510   6.979 -0.3573 -0.1112  0.1552
  869loPI   C3A12211  10.846   5.505   7.406 -0.4330 -0.1523 -0.0186
  869loPI   C4A12212  10.964   5.698   7.898  0.2133 -0.0776 -0.0174
  869loPI   C5A12213  11.251   5.924   8.163 -0.0521  0.1427 -0.0581
  869loPI   C6A12214  11.571   5.793   8.461  0.0698  0.0316  0.0854
  869loPI   C1B12215  10.764   5.941   6.561 -0.2276 -0.3006 -0.0693
  869loPI   C2B12216  10.878   6.027   6.952  0.1043 -0.1797  0.0124
  869loPI   C3B12217  11.093   5.968   7.286  0.1130  0.1126 -0.0597
  869loPI   C4B12218  11.277   5.690   7.468  0.0322 -0.1643 -0.1270
  870loPI    C112219   2.924  13.097   5.564 -0.0747  0.0743  0.0414
  870loPI    C212220   3.001  13.202   5.186  0.0648 -0.2047 -0.0109
  870loPI    C312221   2.676  12.985   5.272 -0.2740  0.3304  0.1092
  870loPI   PO412222   3.185  13.191   5.657  0.1918 -0.0189 -0.1325
  870loPI   GL112223   3.504  13.356   5.920 -0.2890 -0.0824 -0.1567
  870loPI   GL212224   3.210  13.590   5.964  0.1554  0.2709  0.0249
  870loPI   C1A12225   3.660  13.649   6.263  0.1104  0.3515  0.2444
  870loPI   C2A12226   3.499  13.925   6.619 -0.2871 -0.1179 -0.5132
  870loPI   C3A12227   3.502  13.809   6.992 -0.1665 -0.1382  0.0025
  870loPI   C4A12228   3.624  13.597   7.334 -0.1281  0.1155  0.3233
  870loPI   C5A12229   3.740  13.581   7.795  0.0192 -0.1888 -0.0122
  870loPI   C6A12230   4.039  13.751   8.052 -0.2964  0.0567 -0.0976
  870loPI   C1B12231   3.218  13.604   6.394 -0.2182 -0.1491  0.0292
  870loPI   C2B12232   3.324  13.392   6.806 -0.1923 -0.2262  0.1812
  870loPI   C3B12233   3.234  13.310   7.244 -0.2385 -0.2040 -0.0988
  870loPI   C4B12234   3.299  13.426   7.613  0.5166  0.1376 -0.0585
  871loPI    C112235   8.277  11.455   5.327 -0.0524  0.3382 -0.0753
  871loPI    C212236   8.367  11.698   5.022  0.0691  0.0815 -0.2478
  871loPI    C312237   8.317  11.307   4.957 -0.1995  0.0692  0.0143
  871loPI   PO412238   8.235  11.651   5.570 -0.1752 -0.1256  0.2256
  871loPI   GL112239   8.246  11.651   6.047 -0.0082 -0.0117 -0.2509
  871loPI   GL212240   7.975  11.713   5.961 -0.2141  0.0712  0.2337
  871loPI   C1A12241   8.335  11.793   6.485 -0.0870  0.1091 -0.2148
  871loPI   C2A12242   8.571  11.796   6.838 -0.4103  0.0340 -0.4756
  871loPI   C3A12243   8.727  11.856   7.233 -0.0894 -0.0566  0.3671
  871loPI   C4A12244   8.618  12.104   7.543 -0.0213  0.0737 -0.2609
  871loPI   C5A12245   8.519  12.096   7.865  0.0477  0.1864 -0.1172
  871loPI   C6A12246   8.685  12.129   8.239  0.0838  0.1825  0.1078
  871loPI   C1B12247   7.854  11.583   6.402  0.1682  0.2643  0.0871
  871loPI   C2B12248   7.997  11.653   6.790 -0.0187  0.0078 -0.1417
  871loPI   C3B12249   7.836  11.394   7.148 -0.0839  0.2822  0.0486
  871loPI   C4B12250   7.915  11.259   7.473  0.2229  0.2952  0.2147
  872loPI    C112251   5.115  14.101   5.892  0.0780 -0.0877  0.1519
  872loPI    C212252   5.201  13.780   5.668 -0.0872  0.1791 -0.3068
  872loPI    C312253   4.841  13.952   5.641 -0.0444  0.3292  0.0309
  872loPI   PO412254   5.257  13.999   6.076 -0.0661 -0.3734 -0.0303
  872loPI   GL112255   5.252  13.613   6.460  0.0480 -0.4595 -0.2808
  872loPI   GL212256   5.537  13.311   6.508 -0.3716 -0.1682 -0.0713
  872loPI   C1A12257   5.226  13.710   6.908  0.0999 -0.1260  0.1189
  872loPI   C2A12258   5.325  13.744   7.330  0.1889  0.0530 -0.3186
  872loPI   C3A12259   5.510  13.717   7.626  0.2619  0.2009 -0.0262
  872loPI   C4A12260   5.607  13.620   8.020  0.0599  0.0095  0.1905
  872loPI   C5A12261   5.468  13.727   8.406 -0.0386 -0.1634  0.0545
  872loPI   C6A12262   5.698  13.873   8.763 -0.0778 -0.2710  0.1619
  872loPI   C1B12263   5.417  13.205   6.889  0.1076  0.3285 -0.0921
  872loPI   C2B12264   5.306  12.903   7.114 -0.3053  0.3214  0.3028
  872loPI   C3B12265   5.083  12.749   7.321 -0.2016  0.2170  0.0299
  872loPI   C4B12266   5.047  12.591   7.809 -0.0938  0.0135 -0.0375
  873loPI    C112267   7.681  17.067   5.938  0.1659  0.0863 -0.2966
  873loPI    C212268   7.753  16.747   5.709  0.0264 -0.1497 -0.0173
  873loPI    C312269   7.451  16.992   5.619  0.0948 -0.1296 -0.1968
  873loPI   PO412270   7.675  16.905   6.181  0.4791 -0.0824  0.1841
  873loPI   GL112271   7.643  17.028   6.534  0.0404  0.0594  0.1922
  873loPI   GL212272   7.321  17.003   6.521 -0.0549 -0.0263 -0.1438
  873loPI   C1A12273   7.800  17.200   6.898 -0.1070  0.0051 -0.1155
  873loPI   C2A12274   7.673  17.294   7.226  0.4036 -0.1505 -0.3399
  873loPI   C3A12275   7.748  17.113   7.554 -0.0360 -0.1480 -0.2468
  873loPI   C4A12276   7.659  17.190   7.947 -0.0134 -0.2624  0.1725
  873loPI   C5A12277   7.617  17.158   8.400 -0.1232 -0.3004 -0.1175
  873loPI   C6A12278   7.578  17.424   8.804 -0.0134  0.0799  0.1589
  873loPI   C1B12279   7.396  16.891   6.939  0.1882 -0.1959  0.1876
  873loPI   C2B12280   7.282  16.988   7.334 -0.1956  0.1414 -0.1926
  873loPI   C3B12281   7.227  17.120   7.670 -0.0098 -0.0053  0.2826
  873loPI   C4B12282   7.084  17.239   8.083 -0.0491  0.0303 -0.0984
  874loPI    C112283   7.402   5.117   5.276 -0.1151 -0.1717 -0.2565
  874loPI    C212284   7.212   4.779   5.180 -0.3015 -0.1080 -0.1177
  874loPI    C312285   7.022   5.130   5.152 -0.1980 -0.0415  0.0029
  874loPI   PO412286   7.572   5.061   5.558  0.1909  0.0869  0.0668
  874loPI   GL112287   7.717   4.830   5.898  0.0808 -0.0672 -0.2657
  874loPI   GL212288   7.545   4.556   6.014 -0.2051 -0.1452  0.0652
  874loPI   C1A12289   7.540   4.953   6.281 -0.2236  0.2276  0.1694
  874loPI   C2A12290   7.553   4.987   6.676  0.3268  0.3259  0.1368
  874loPI   C3A12291   7.462   4.995   7.062 -0.1854  0.0511  0.3626
  874loPI   C4A12292   7.791   4.903   7.364 -0.2514  0.1628  0.3310
  874loPI   C5A12293   7.685   4.805   7.791  0.2466 -0.1650 -0.2075
  874loPI   C6A12294   7.594   4.561   8.159 -0.0457 -0.1931  0.0570
  874loPI   C1B12295   7.252   4.554   6.286 -0.0709 -0.0532  0.1724
  874loPI   C2B12296   7.030   4.803   6.446 -0.3025 -0.0653 -0.0659
  874loPI   C3B12297   6.992   4.846   6.857 -0.3392  0.4167 -0.2290
  874loPI   C4B12298   6.939   4.809   7.266 -0.3823 -0.2637  0.1598
  875loPI    C112299   1.445   9.092   5.670 -0.0329 -0.0938 -0.0586
  875loPI    C212300   1.489   8.699   5.610  0.0476 -0.1062  0.0783
  875loPI    C312301   1.428   8.942   5.299  0.0839 -0.2162 -0.0156
  875loPI   PO412302   1.655   9.161   5.852 -0.2825 -0.1227  0.0497
  875loPI   GL112303   1.865   9.355   6.271  0.3426  0.0814  0.1225
  875loPI   GL212304   1.816   9.662   6.313  0.1926 -0.2495 -0.2686
  875loPI   C1A12305   1.892   9.364   6.775 -0.2552  0.1138 -0.5218
  875loPI   C2A12306   1.919   9.389   7.201 -0.0652  0.1149 -0.3710
  875loPI   C3A12307   1.861   9.285   7.611  0.2081  0.0996 -0.0495
  875loPI   C4A12308   1.824   9.252   8.079 -0.0948 -0.2107  0.1475
  875loPI   C5A12309   1.413   9.308   8.295 -0.4783  0.0492  0.1247
  875loPI   C6A12310   1.118   9.571   8.329 -0.1601 -0.0344 -0.1792
  875loPI   C1B12311   2.283   9.695   6.629 -0.0107 -0.2166 -0.1915
  875loPI   C2B12312   2.351   9.537   7.027 -0.0260  0.1902 -0.0715
  875loPI   C3B12313   2.260   9.549   7.510 -0.1181  0.0611  0.0044
  875loPI   C4B12314   2.003   9.677   7.822 -0.2921  0.1124  0.3175
  876loPI    C112315  16.119  10.076   5.991  0.0907 -0.0437 -0.0143
  876loPI    C212316  15.896  10.015   5.665  0.0525 -0.0182  0.0070
  876loPI    C312317  16.273  10.142   5.627  0.0283  0.0449 -0.0250
  876loPI   PO412318  15.929  10.239   6.137 -0.0533  0.0449  0.1596
  876loPI   GL112319  15.905  10.502   6.455  0.0251  0.1732 -0.4146
  876loPI   GL212320  16.126  10.668   6.425  0.0938  0.2962  0.2008
  876loPI   C1A12321  16.061  10.530   6.897 -0.0550  0.0409  0.1563
  876loPI   C2A12322  15.990  10.563   7.350 -0.0900 -0.2661 -0.0167
  876loPI   C3A12323  15.857  10.663   7.652 -0.0213 -0.2803  0.0402
  876loPI   C4A12324  15.856  10.690   8.030  0.0559  0.0402 -0.4206
  876loPI   C5A12325  15.988  11.086   8.259 -0.0762 -0.0207 -0.3677
  876loPI   C6A12326  16.222  11.471   8.425  0.0156 -0.1924 -0.2577
  876loPI   C1B12327  16.516  10.611   6.658  0.1320 -0.0093 -0.0430
  876loPI   C2B12328  16.927  10.528   6.850  0.0245 -0.2599  0.0193
  876loPI   C3B12329  17.025  10.497   7.232 -0.4255  0.2655  0.3126
  876loPI   C4B12330  17.053  10.567   7.647 -0.2834 -0.3611 -0.0597
  877loPI    C112331  14.652  15.958   5.898 -0.0903 -0.1987 -0.0213
  877loPI    C212332  14.677  15.699   5.594 -0.2347 -0.1458 -0.0785
  877loPI    C312333  14.537  16.069   5.532 -0.1197 -0.0849  0.0221
  877loPI   PO412334  14.542  15.791   6.091 -0.1481 -0.1080 -0.0611
  877loPI   GL112335  14.375  15.762   6.398 -0.0964  0.1542 -0.0907
  877loPI   GL212336  14.124  15.790   6.320 -0.2328  0.1089  0.2517
  877loPI   C1A12337  14.225  15.883   6.814  0.2099 -0.2094 -0.0436
  877loPI   C2A12338  14.286  16.024   7.180  0.0443 -0.1979 -0.0804
  877loPI   C3A12339  14.353  15.901   7.558 -0.0984 -0.0163 -0.1384
  877loPI   C4A12340  14.525  16.047   8.045 -0.2261 -0.0173  0.0877
  877loPI   C5A12341  14.535  16.309   8.333 -0.1669 -0.0410 -0.1089
  877loPI   C6A12342  14.632  16.708   8.355  0.0096  0.0592  0.1683
  877loPI   C1B12343  13.787  15.739   6.641  0.0578 -0.3001 -0.0164
  877loPI   C2B12344  13.646  15.869   7.038 -0.1383 -0.1015 -0.0092
  877loPI   C3B12345  13.848  15.980   7.426 -0.2087  0.1374 -0.0864
  877loPI   C4B12346  13.889  15.914   7.841  0.1166  0.1925 -0.0030
  878loPI    C112347   9.616  16.371   5.663  0.0686 -0.2641 -0.0807
  878loPI    C212348   9.946  16.394   5.438  0.0584  0.1196 -0.0629
  878loPI    C312349   9.737  16.725   5.521 -0.2977 -0.1102 -0.0204
  878loPI   PO412350   9.682  16.168   5.900 -0.0870  0.2440 -0.0959
  878loPI   GL112351  10.044  16.124   6.166  0.2855 -0.0896  0.1435
  878loPI   GL212352  10.084  16.356   6.336  0.1916 -0.1107 -0.0970
  878loPI   C1A12353   9.706  16.078   6.571 -0.0905  0.0563  0.2035
  878loPI   C2A12354   9.387  16.021   6.799  0.1397  0.0520 -0.0353
  878loPI   C3A12355   9.285  16.155   7.322  0.1406  0.1025 -0.0126
  878loPI   C4A12356   9.249  16.285   7.778  0.5822  0.3141 -0.3647
  878loPI   C5A12357   9.470  16.459   8.107 -0.2245 -0.1153 -0.0327
  878loPI   C6A12358   9.386  16.663   8.523  0.1918 -0.2175 -0.2835
  878loPI   C1B12359  10.142  16.295   6.696 -0.6109  0.0900  0.0319
  878loPI   C2B12360  10.242  16.172   7.110  0.3171 -0.1037  0.2949
  878loPI   C3B12361  10.143  16.307   7.530  0.0082 -0.0840  0.0759
  878loPI   C4B12362  10.207  16.209   7.972 -0.1537 -0.0488 -0.0144
  879loPI    C112363  17.032   9.282   5.399  0.0730  0.0896  0.2778
  879loPI    C212364  17.323   9.007   5.388  0.0784  0.1063 -0.0916
  879loPI    C312365  16.982   8.947   5.187 -0.1052  0.1669  0.1957
  879loPI   PO412366  17.044   9.350   5.659  0.2276 -0.0645 -0.0995
  879loPI   GL112367  16.927   9.467   6.077  0.2804 -0.3645  0.2027
  879loPI   GL212368  17.070   9.196   6.218 -0.1715 -0.3012 -0.0288
  879loPI   C1A12369  16.827   9.440   6.606  0.4505 -0.0287 -0.1564
  879loPI   C2A12370  16.412   9.600   6.860  0.1609 -0.0569 -0.0065
  879loPI   C3A12371  16.322   9.538   7.173 -0.2372  0.3342 -0.0743
  879loPI   C4A12372  16.396   9.631   7.623  0.2318 -0.0745  0.1956
  879loPI   C5A12373  16.692   9.419   7.893  0.1670 -0.0472  0.2405
  879loPI   C6A12374  17.063   9.179   8.134 -0.0524 -0.1112 -0.2556
  879loPI   C1B12375  16.792   8.935   6.637  0.2825  0.1106  0.2527
  879loPI   C2B12376  16.954   8.739   6.967  0.1203 -0.0307 -0.2749
  879loPI   C3B12377  16.959   8.695   7.362  0.2135  0.1512  0.2614
  879loPI   C4B12378  17.090   9.000   7.627 -0.3479 -0.3644  0.2357
  880loPI    C112379  17.147  13.319   5.929  0.0421  0.0708  0.0305
  880loPI    C212380  17.472  13.304   5.696 -0.0002 -0.0604 -0.0209
  880loPI    C312381  17.254  12.974   5.759 -0.0326 -0.0090  0.1438
  880loPI   PO412382  17.285  13.427   6.128 -0.3235  0.0687  0.1503
  880loPI   GL112383  17.138  13.269   6.556  0.0839  0.2458 -0.0905
  880loPI   GL212384  17.250  12.954   6.364  0.1693 -0.0501  0.0668
  880loPI   C1A12385  17.007  13.148   6.916  0.1271 -0.0300 -0.1026
  880loPI   C2A12386  16.950  13.025   7.351  0.2427 -0.0292 -0.0522
  880loPI   C3A12387  16.951  13.077   7.750  0.0379 -0.2802 -0.0343
  880loPI   C4A12388  16.950  13.061   8.240  0.1024  0.1609 -0.2447
  880loPI   C5A12389  16.877  12.685   8.470 -0.3319  0.0162  0.0803
  880loPI   C6A12390  16.897  12.621   8.992  0.2627  0.0581 -0.0166
  880loPI   C1B12391  17.365  12.775   6.773 -0.0198  0.0494  0.0395
  880loPI   C2B12392  17.358  12.855   7.109 -0.0216 -0.3204  0.1357
  880loPI   C3B12393  17.475  12.831   7.608 -0.0742  0.2527 -0.1828
  880loPI   C4B12394  17.566  12.607   7.982 -0.0658 -0.0809 -0.1037
  881loPI    C112395  12.653  15.620   5.827 -0.1432  0.0923  0.0639
  881loPI    C212396  12.555  15.733   5.457 -0.2507  0.0699  0.0853
  881loPI    C312397  12.818  15.437   5.512 -0.0873  0.2030  0.0285
  881loPI   PO412398  12.370  15.637   5.952 -0.0941 -0.1117  0.1078
  881loPI   GL112399  12.192  15.968   6.290 -0.0625  0.0341 -0.1355
  881loPI   GL212400  11.716  15.964   6.295 -0.1532  0.1212 -0.2602
  881loPI   C1A12401  11.944  16.051   6.691 -0.1402 -0.1044  0.0877
  881loPI   C2A12402  11.932  16.032   7.114 -0.1459  0.3574  0.0832
  881loPI   C3A12403  12.141  16.060   7.566 -0.1262 -0.1761 -0.1692
  881loPI   C4A12404  12.272  15.749   7.877 -0.2937 -0.1836 -0.2086
  881loPI   C5A12405  12.125  15.387   8.006 -0.0200 -0.0332 -0.0676
  881loPI   C6A12406  11.710  15.204   7.793 -0.0563  0.3421 -0.2041
  881loPI   C1B12407  11.532  15.776   6.756 -0.1341 -0.0044  0.1001
  881loPI   C2B12408  11.503  15.820   7.205  0.1158  0.0630  0.1959
  881loPI   C3B12409  11.682  15.808   7.675 -0.2555  0.2655  0.1185
  881loPI   C4B12410  11.908  16.091   8.060 -0.1003 -0.2234 -0.1677
  882loPI    C112411   6.160  17.380   5.814 -0.0816  0.1527  0.0734
  882loPI    C212412   6.095  17.745   5.664 -0.0081  0.1663  0.0738
  882loPI    C312413   5.922  17.426   5.496  0.1405  0.1717 -0.0933
  882loPI   PO412414   6.194  17.464   6.074  0.2007  0.1629  0.1349
  882loPI   GL112415   6.451  17.553   6.397 -0.1535 -0.1543  0.0229
  882loPI   GL212416   6.576  17.823   6.480 -0.0273  0.0352  0.0631
  882loPI   C1A12417   6.232  17.628   6.784  0.2754  0.1234 -0.0587
  882loPI   C2A12418   6.077  17.749   7.202 -0.0255  0.0961 -0.1509
  882loPI   C3A12419   5.869  17.903   7.530  0.1861 -0.0836 -0.3020
  882loPI   C4A12420   5.552  17.831   7.812  0.0716  0.1096  0.3188
  882loPI   C5A12421   5.605  17.658   8.280  0.0225 -0.1568  0.0262
  882loPI   C6A12422   5.827  17.341   8.425  0.3861  0.1942  0.0619
  882loPI   C1B12423   6.682  17.994   6.888  0.1199  0.2945  0.1817
  882loPI   C2B12424   6.609  18.042   7.328 -0.1331 -0.0789  0.1974
  882loPI   C3B12425   6.587  18.045   7.797 -0.1619 -0.2383  0.0559
  882loPI   C4B12426   6.176  18.188   8.072 -0.0405  0.1178  0.5240
  883loPI    C112427  16.309   0.019   5.681  0.0905 -0.0068 -0.4250
  883loPI    C212428  16.303   0.402   5.793 -0.2759 -0.1455  0.0626
  883loPI    C312429  16.108   0.287   5.463  0.1088  0.1328 -0.2714
  883loPI   PO412430  16.283  -0.114   5.960  0.0898 -0.0734  0.2702
  883loPI   GL112431  16.186   0.090   6.424 -0.1598  0.3834  0.1643
  883loPI   GL212432  16.154  -0.277   6.378 -0.0751 -0.1389  0.2828
  883loPI   C1A12433  16.193  -0.008   6.867 -0.1651  0.0128 -0.3278
  883loPI   C2A12434  16.439   0.067   7.269 -0.1057 -0.2094  0.1011
  883loPI   C3A12435  16.725  -0.008   7.617  0.1908  0.0853  0.0003
  883loPI   C4A12436  17.011  -0.392   7.796  0.0909  0.0355 -0.0412
  883loPI   C5A12437  17.363  -0.422   8.067  0.2781  0.1096  0.0359
  883loPI   C6A12438  17.594  -0.435   8.431  0.3046  0.1749  0.0490
  883loPI   C1B12439  16.123  -0.641   6.455 -0.0009  0.0956 -0.0330
  883loPI   C2B12440  16.111  -1.058   6.717  0.0716 -0.0187  0.0658
  883loPI   C3B12441  16.373  -1.290   7.052  0.2793  0.1717  0.0393
  883loPI   C4B12442  16.707  -1.561   7.141  0.1992 -0.1167 -0.4314
  884loPI    C112443  13.705  16.929   5.626  0.0885 -0.0369 -0.2898
  884loPI    C212444  13.877  17.289   5.599 -0.0716  0.0775  0.1414
  884loPI    C312445  14.100  16.966   5.679  0.0353  0.1193  0.0160
  884loPI   PO412446  13.467  17.059   5.841  0.2873 -0.0247  0.1171
  884loPI   GL112447  13.007  17.152   6.025 -0.1012 -0.2701  0.1354
  884loPI   GL212448  13.005  16.895   6.197 -0.3211  0.0505  0.0488
  884loPI   C1A12449  12.854  17.299   6.443 -0.3730  0.1787  0.2119
  884loPI   C2A12450  12.888  17.353   6.890  0.2340 -0.1230  0.0699
  884loPI   C3A12451  12.799  17.388   7.243 -0.1793 -0.4148  0.0289
  884loPI   C4A12452  12.690  17.387   7.672  0.0242 -0.0209  0.2498
  884loPI   C5A12453  12.555  17.252   8.035  0.0021 -0.1174 -0.1422
  884loPI   C6A12454  12.259  17.072   8.434  0.1564 -0.3031  0.2023
  884loPI   C1B12455  13.075  16.825   6.608  0.0298 -0.0720  0.0052
  884loPI   C2B12456  13.188  16.985   7.077 -0.0095  0.0097 -0.1450
  884loPI   C3B12457  13.065  16.934   7.416  0.3417 -0.1456  0.1749
  884loPI   C4B12458  13.444  16.780   7.643 -0.1937 -0.0585  0.1874
  885loPI    C112459   5.328   3.895   5.542 -0.1451  0.2021  0.2649
  885loPI    C212460   4.939   3.953   5.612 -0.2464  0.1250 -0.1977
  885loPI    C312461   5.104   4.094   5.277  0.1099  0.0896 -0.0414
  885loPI   PO412462   5.420   3.951   5.764 -0.1587  0.0250  0.0630
  885loPI   GL112463   5.226   3.972   6.176  0.1042 -0.0132 -0.0623
  885loPI   GL212464   5.191   4.235   6.070  0.1579 -0.0106  0.2357
  885loPI   C1A12465   4.896   4.048   6.507  0.0573 -0.1532  0.0311
  885loPI   C2A12466   4.861   4.040   6.802 -0.3168  0.1869 -0.2793
  885loPI   C3A12467   4.900   4.183   7.228  0.0025 -0.0357  0.0795
  885loPI   C4A12468   4.750   3.970   7.585 -0.2375  0.4497 -0.2095
  885loPI   C5A12469   4.751   3.859   8.036  0.3577 -0.1611  0.0266
  885loPI   C6A12470   4.909   3.623   8.319  0.2249  0.1256 -0.3528
  885loPI   C1B12471   5.158   4.486   6.518  0.2710  0.0828 -0.3169
  885loPI   C2B12472   5.283   4.510   6.977 -0.1029  0.0505  0.0175
  885loPI   C3B12473   5.273   4.534   7.368  0.0941 -0.0957 -0.1475
  885loPI   C4B12474   5.216   4.247   7.700  0.0658 -0.0688 -0.1097
  886loPI    C112475  14.617  10.323   5.704 -0.0165 -0.0042  0.2392
  886loPI    C212476  14.330  10.585   5.610  0.0262 -0.0170  0.0699
  886loPI    C312477  14.690  10.716   5.723  0.0953 -0.0002 -0.1635
  886loPI   PO412478  14.428  10.131   5.917  0.1182 -0.0351  0.2119
  886loPI   GL112479  14.353  10.138   6.303 -0.0789 -0.2316  0.1190
  886loPI   GL212480  14.530  10.027   6.551 -0.1172 -0.0825  0.1487
  886loPI   C1A12481  14.021  10.129   6.611 -0.1103 -0.5040 -0.1027
  886loPI   C2A12482  13.923  10.213   6.997 -0.3344  0.0807  0.1460
  886loPI   C3A12483  13.992  10.017   7.362 -0.2358  0.2362 -0.1123
  886loPI   C4A12484  13.888   9.822   7.749 -0.0113  0.0742 -0.2893
  886loPI   C5A12485  13.861   9.964   8.148 -0.1462  0.1308 -0.4883
  886loPI   C6A12486  14.182  10.262   8.304  0.1211  0.3401  0.0114
  886loPI   C1B12487  14.499   9.935   6.879  0.0499 -0.3346 -0.1378
  886loPI   C2B12488  14.479   9.776   7.258  0.1223 -0.2762  0.0539
  886loPI   C3B12489  14.371   9.738   7.661  0.3284 -0.0861 -0.0660
  886loPI   C4B12490  14.341   9.763   8.093 -0.1043 -0.2078  0.3916
  887loPI    C112491   0.622   4.852   5.417  0.0503 -0.0994  0.0186
  887loPI    C212492   0.391   4.592   5.218 -0.1549 -0.1109  0.2662
  887loPI    C312493   0.264   4.966   5.279  0.1071  0.0291 -0.0231
  887loPI   PO412494   0.710   4.798   5.559  0.1708 -0.1945 -0.1551
  887loPI   GL112495   0.685   4.495   5.932  0.4609 -0.0006 -0.2469
  887loPI   GL212496   0.582   4.191   5.977  0.0921  0.3762  0.1637
  887loPI   C1A12497   0.777   4.542   6.319 -0.2772  0.2036 -0.1718
  887loPI   C2A12498   0.657   4.410   6.841 -0.0161 -0.2784  0.2890
  887loPI   C3A12499   0.706   4.448   7.299  0.0543 -0.1443  0.1180
  887loPI   C4A12500   0.511   4.261   7.638  0.0644  0.3148 -0.0299
  887loPI   C5A12501   0.312   4.281   7.964  0.0893  0.1684  0.1230
  887loPI   C6A12502   0.270   4.580   8.372  0.0370 -0.0035  0.2720
  887loPI   C1B12503   0.470   4.152   6.470  0.0090 -0.3436 -0.0848
  887loPI   C2B12504   0.511   3.969   6.849 -0.0606  0.2026  0.4293
  887loPI   C3B12505   0.538   3.880   7.253 -0.2169  0.1029 -0.2127
  887loPI   C4B12506   0.718   3.779   7.651 -0.2338 -0.2543  0.1227
  888loPI    C112507  12.812   8.945   5.780 -0.1520 -0.1189  0.1625
  888loPI    C212508  12.710   8.563   5.724  0.0798 -0.1947  0.2427
  888loPI    C312509  13.069   8.693   5.606 -0.0609  0.0406  0.0631
  888loPI   PO412510  12.791   8.999   6.073 -0.1916  0.1266  0.3797
  888loPI   GL112511  12.836   8.912   6.436 -0.2715 -0.3583 -0.2629
  888loPI   GL212512  12.822   9.045   6.715  0.0003 -0.3217 -0.1810
  888loPI   C1A12513  12.615   8.602   6.714 -0.2171 -0.3094 -0.3543
  888loPI   C2A12514  12.599   8.624   7.161 -0.1442  0.4500  0.2810
  888loPI   C3A12515  12.550   8.533   7.576  0.0013 -0.0806  0.0881
  888loPI   C4A12516  12.482   8.368   8.073  0.3037  0.1135  0.1230
  888loPI   C5A12517  12.055   8.332   8.248  0.3686  0.0032  0.2539
  888loPI   C6A12518  11.659   8.390   8.354 -0.0505 -0.1757  0.2229
  888loPI   C1B12519  12.851   9.085   7.182  0.0981 -0.3840  0.2412
  888loPI   C2B12520  12.639   8.997   7.524 -0.1826 -0.0748  0.1426
  888loPI   C3B12521  12.324   8.799   7.948 -0.1681 -0.0221  0.0609
  888loPI   C4B12522  12.113   8.791   8.362  0.0365 -0.6212  0.1107
  889loPI    C112523  13.758   8.286   5.218  0.0792  0.1125  0.0669
  889loPI    C212524  13.410   8.473   5.279  0.1060  0.1381  0.1422
  889loPI    C312525  13.579   8.479   4.917 -0.0022  0.0738  0.0901
  889loPI   PO412526  13.884   8.313   5.450 -0.2446  0.0656  0.1505
  889loPI   GL112527  13.845   8.233   5.853 -0.1172  0.3897 -0.1855
  889loPI   GL212528  14.021   8.449   6.009  0.0464 -0.2041  0.1856
  889loPI   C1A12529  13.703   8.270   6.300 -0.1121 -0.0951  0.0054
  889loPI   C2A12530  13.664   8.222   6.703  0.0031  0.2463 -0.1093
  889loPI   C3A12531  13.480   8.413   7.126  0.0460 -0.0536  0.1544
  889loPI   C4A12532  13.672   8.566   7.539 -0.0409 -0.1108  0.1758
  889loPI   C5A12533  13.617   8.517   7.945  0.0891  0.0214 -0.0822
  889loPI   C6A12534  13.602   8.665   8.280 -0.0060  0.1849 -0.2588
  889loPI   C1B12535  14.168   8.520   6.464 -0.1252  0.1243  0.0058
  889loPI   C2B12536  14.315   8.346   6.960 -0.1781 -0.1111  0.3133
  889loPI   C3B12537  14.455   8.215   7.377  0.1041  0.1232  0.1153
  889loPI   C4B12538  14.642   8.146   7.701 -0.5530  0.2063  0.3939
  890loPI    C112539  12.928   7.806   5.576  0.1390  0.0957 -0.1445
  890loPI    C212540  12.622   7.660   5.365  0.0186  0.1287  0.0052
  890loPI    C312541  12.977   7.717   5.190 -0.0934  0.2050 -0.2009
  890loPI   PO412542  12.976   7.682   5.752 -0.1987  0.0060  0.1869
  890loPI   GL112543  13.090   7.629   6.072 -0.0748 -0.0597  0.1811
  890loPI   GL212544  12.883   7.567   6.309  0.2354  0.0833 -0.0928
  890loPI   C1A12545  13.207   8.024   6.385  0.3100  0.0722 -0.1305
  890loPI   C2A12546  13.206   8.072   6.865 -0.4862 -0.1967 -0.2952
  890loPI   C3A12547  13.341   8.000   7.291  0.0071 -0.2647  0.5029
  890loPI   C4A12548  13.435   8.065   7.756 -0.1069 -0.4001  0.2096
  890loPI   C5A12549  13.640   7.946   8.139 -0.2846 -0.1939  0.0769
  890loPI   C6A12550  14.031   7.764   8.153 -0.1324 -0.2723 -0.0019
  890loPI   C1B12551  12.874   7.658   6.686  0.3533  0.1886 -0.1939
  890loPI   C2B12552  12.902   7.679   7.086  0.3908 -0.0656  0.0932
  890loPI   C3B12553  12.567   7.618   7.396 -0.0631  0.0607 -0.2981
  890loPI   C4B12554  12.152   7.612   7.596  0.0513  0.2185  0.0563
  891loPI    C112555  17.050   5.516   5.546  0.0261  0.1165  0.1351
  891loPI    C212556  17.085   5.912   5.499 -0.0811  0.0889 -0.2010
  891loPI    C312557  16.748   5.726   5.390 -0.1526 -0.0552  0.2452
  891loPI   PO412558  17.196   5.466   5.744  0.1422 -0.1037 -0.0491
  891loPI   GL112559  17.114   5.207   6.098 -0.0372 -0.0256 -0.0324
  891loPI   GL212560  16.722   5.167   6.121  0.1550 -0.1676  0.0740
  891loPI   C1A12561  17.090   5.204   6.475  0.1904 -0.2398 -0.1458
  891loPI   C2A12562  17.081   5.212   6.900  0.3637 -0.0226  0.2443
  891loPI   C3A12563  17.132   5.243   7.327  0.3338 -0.3397 -0.0575
  891loPI   C4A12564  17.313   5.066   7.745 -0.2033 -0.3674 -0.0780
  891loPI   C5A12565  17.083   4.889   8.026 -0.1252 -0.1956 -0.2207
  891loPI   C6A12566  16.676   4.917   8.429  0.3175 -0.1803 -0.0013
  891loPI   C1B12567  16.598   5.162   6.503  0.1804 -0.1569 -0.0951
  891loPI   C2B12568  16.574   5.076   6.965 -0.1120  0.0712 -0.1034
  891loPI   C3B12569  16.642   5.091   7.455 -0.0360  0.0614  0.2446
  891loPI   C4B12570  16.418   4.663   7.655 -0.2277  0.1249 -0.2301
  892loPI    C112571  10.186   9.131   5.715 -0.0771 -0.2348 -0.0826
  892loPI    C212572  10.269   8.999   5.347  0.0650  0.1919 -0.2103
  892loPI    C312573  10.235   9.391   5.415 -0.1470  0.1085  0.1968
  892loPI   PO412574  10.262   8.890   5.847  0.0237  0.1810 -0.1970
  892loPI   GL112575  10.046   8.685   6.032 -0.0881  0.0582  0.0180
  892loPI   GL212576  10.437   8.623   6.239 -0.0315  0.1665  0.0046
  892loPI   C1A12577  10.181   8.884   6.541  0.1275  0.0250 -0.1778
  892loPI   C2A12578  10.200   8.967   6.923  0.0153 -0.4246  0.0813
  892loPI   C3A12579  10.056   9.174   7.352 -0.2269 -0.0436 -0.1951
  892loPI   C4A12580   9.888   9.050   7.824  0.1097  0.0230 -0.0661
  892loPI   C5A12581   9.779   9.366   8.130  0.0319  0.0577  0.0822
  892loPI   C6A12582   9.514   9.566   8.480 -0.0974  0.2305 -0.1970
  892loPI   C1B12583  10.544   8.601   6.746  0.0484  0.1282  0.1544
  892loPI   C2B12584  10.552   8.487   7.216 -0.1473 -0.0742 -0.2067
  892loPI   C3B12585  10.480   8.407   7.649  0.0021  0.0083  0.0809
  892loPI   C4B12586  10.442   8.257   7.973 -0.4069 -0.1690  0.0544
  893loPI    C112587   9.648   1.595   5.782 -0.1469  0.1997  0.1771
  893loPI    C212588   9.507   1.949   5.662  0.0051  0.1450 -0.1741
  893loPI    C312589   9.713   1.719   5.408  0.1221 -0.0868  0.1249
  893loPI   PO412590   9.845   1.692   6.031  0.2633  0.0546  0.0801
  893loPI   GL112591   9.941   1.720   6.399 -0.0933  0.1394  0.0396
  893loPI   GL212592   9.737   1.886   6.533 -0.0312 -0.1794 -0.3095
  893loPI   C1A12593  10.172   1.610   6.730  0.2895  0.0832  0.3535
  893loPI   C2A12594  10.091   1.782   7.084  0.2134  0.0991  0.1564
  893loPI   C3A12595  10.122   1.956   7.409  0.0130  0.1920 -0.0679
  893loPI   C4A12596  10.270   2.112   7.827 -0.3536  0.2151  0.3586
  893loPI   C5A12597  10.144   2.474   7.972 -0.1328  0.1661  0.2168
  893loPI   C6A12598  10.185   2.895   8.008  0.0616  0.0297  0.1348
  893loPI   C1B12599   9.702   1.965   6.946  0.0585 -0.3652 -0.0606
  893loPI   C2B12600   9.503   1.923   7.311  0.0028  0.3697  0.1830
  893loPI   C3B12601   9.319   1.911   7.759  0.0374 -0.0814  0.0378
  893loPI   C4B12602   9.187   1.685   8.144  0.4901  0.0997 -0.0290
  894loPI    C112603   3.404   0.856   5.373 -0.1054  0.2394 -0.1233
  894loPI    C212604   3.773   0.888   5.222  0.0306 -0.0141  0.1453
  894loPI    C312605   3.468   0.781   4.986  0.1624  0.0109 -0.0380
  894loPI   PO412606   3.493   0.939   5.664 -0.0770 -0.2614  0.0577
  894loPI   GL112607   3.190   0.987   6.057  0.2078  0.0149  0.0157
  894loPI   GL212608   3.381   1.295   6.090 -0.2546 -0.2563  0.0119
  894loPI   C1A12609   3.383   0.776   6.362  0.3519 -0.0502  0.2636
  894loPI   C2A12610   3.485   0.556   6.918 -0.2865  0.3988  0.1146
  894loPI   C3A12611   3.483   0.563   7.329  0.1449  0.0490  0.2170
  894loPI   C4A12612   3.513   0.477   7.834  0.0514 -0.0325  0.0518
  894loPI   C5A12613   3.493   0.740   8.161  0.0580  0.3334  0.1368
  894loPI   C6A12614   3.676   0.889   8.460 -0.3071 -0.1003  0.1601
  894loPI   C1B12615   3.603   1.260   6.517 -0.3416  0.3632  0.0239
  894loPI   C2B12616   3.619   1.442   6.899 -0.0241 -0.0906  0.1077
  894loPI   C3B12617   3.647   1.483   7.334 -0.0650  0.3166 -0.0070
  894loPI   C4B12618   3.551   1.472   7.802 -0.1109 -0.1786 -0.2646
  895loPI    C112619  16.908   8.405   5.758 -0.0966 -0.0647 -0.0797
  895loPI    C212620  16.645   8.238   5.507  0.0027 -0.1779 -0.1093
  895loPI    C312621  16.914   8.500   5.370 -0.0379 -0.1284 -0.0946
  895loPI   PO412622  16.833   8.250   5.995  0.3593  0.1323  0.4602
  895loPI   GL112623  16.977   7.947   6.286 -0.1658 -0.1315 -0.1641
  895loPI   GL212624  16.704   7.897   6.410 -0.3232 -0.1242  0.0668
  895loPI   C1A12625  17.218   7.773   6.578  0.2155 -0.2991  0.2024
  895loPI   C2A12626  17.123   7.779   7.007 -0.1628 -0.1435  0.2506
  895loPI   C3A12627  17.006   7.782   7.379  0.0716  0.2168 -0.1834
  895loPI   C4A12628  16.871   7.860   7.885  0.2032 -0.0685  0.1920
  895loPI   C5A12629  16.421   7.658   8.160  0.0606 -0.1431  0.0435
  895loPI   C6A12630  16.202   7.365   8.237  0.1481 -0.3242 -0.1393
  895loPI   C1B12631  16.665   7.645   6.802  0.3610 -0.1313 -0.4270
  895loPI   C2B12632  16.582   7.504   7.222  0.0681  0.2210 -0.2672
  895loPI   C3B12633  16.701   7.474   7.631 -0.4724  0.1233 -0.1632
  895loPI   C4B12634  16.680   7.209   7.956 -0.0798 -0.0017 -0.1807
  896loPI    C112635   5.567  14.759   5.887  0.0297  0.0039  0.0686
  896loPI    C212636   5.445  15.139   5.861 -0.2202 -0.0850 -0.0940
  896loPI    C312637   5.618  14.963   5.547  0.1448 -0.0243  0.0685
  896loPI   PO412638   5.759  14.744   6.026 -0.0542 -0.0819  0.2129
  896loPI   GL112639   5.761  14.612   6.422  0.0864  0.2018  0.2314
  896loPI   GL212640   6.147  14.720   6.483 -0.1035  0.0915  0.0783
  896loPI   C1A12641   5.682  14.620   6.736 -0.1794  0.2867 -0.3000
  896loPI   C2A12642   5.685  14.663   7.193  0.2040  0.1258  0.1879
  896loPI   C3A12643   5.830  14.745   7.652  0.0494  0.0669 -0.4284
  896loPI   C4A12644   6.041  14.475   8.043  0.3222  0.1502 -0.1540
  896loPI   C5A12645   6.032  14.779   8.421  0.2761  0.1188  0.2081
  896loPI   C6A12646   6.266  15.111   8.510  0.0944 -0.0928 -0.2128
  896loPI   C1B12647   6.135  14.643   6.949 -0.0126  0.0600 -0.2498
  896loPI   C2B12648   6.177  14.701   7.313  0.0332  0.2403 -0.2876
  896loPI   C3B12649   6.355  14.723   7.671 -0.1667 -0.0287  0.3479
  896loPI   C4B12650   6.349  15.009   7.973  0.2471  0.0034 -0.0641
  897loPI    C112651   6.519  14.542   5.651 -0.0358 -0.0525  0.1926
  897loPI    C212652   6.177  14.738   5.586  0.0361 -0.0338 -0.1472
  897loPI    C312653   6.272  14.421   5.362  0.1918 -0.1051  0.0168
  897loPI   PO412654   6.653  14.539   5.885  0.1469  0.0002  0.1252
  897loPI   GL112655   6.520  14.255   6.315  0.1585  0.3727 -0.4004
  897loPI   GL212656   6.536  13.919   6.547  0.0949  0.1450 -0.0285
  897loPI   C1A12657   6.476  14.367   6.708  0.0607  0.1636  0.1354
  897loPI   C2A12658   6.456  14.261   7.076  0.0927  0.2897  0.2150
  897loPI   C3A12659   6.367  14.192   7.510  0.1177 -0.1248 -0.1692
  897loPI   C4A12660   6.506  14.267   7.914  0.1889 -0.0652 -0.3762
  897loPI   C5A12661   6.540  14.586   8.195  0.0491 -0.1862 -0.1575
  897loPI   C6A12662   6.728  15.009   8.329 -0.0388 -0.1497  0.3382
  897loPI   C1B12663   6.310  13.828   6.825  0.0913 -0.1157 -0.1817
  897loPI   C2B12664   6.308  13.689   7.306  0.0793 -0.0434 -0.2915
  897loPI   C3B12665   6.029  13.558   7.630 -0.1731 -0.1960 -0.0906
  897loPI   C4B12666   5.785  13.167   7.851  0.0388  0.1613 -0.0443
  898loPI    C112667  10.533  10.112   5.641  0.0243 -0.0013 -0.0988
  898loPI    C212668  10.524   9.773   5.429  0.1311 -0.0321 -0.0551
  898loPI    C312669  10.468  10.125   5.247  0.1363 -0.0646 -0.1199
  898loPI   PO412670  10.580  10.018   5.879  0.1055 -0.0201  0.2551
  898loPI   GL112671  10.751   9.949   6.284 -0.0194  0.0400 -0.1033
  898loPI   GL212672  10.624  10.319   6.327  0.0816  0.1612 -0.2676
  898loPI   C1A12673  10.693   9.774   6.665 -0.0565  0.3442  0.3878
  898loPI   C2A12674  10.659   9.877   7.163  0.0999 -0.1446  0.1101
  898loPI   C3A12675  10.633  10.029   7.674  0.0040  0.0588  0.1128
  898loPI   C4A12676  10.669   9.871   8.078  0.0505 -0.1912 -0.1030
  898loPI   C5A12677  10.402   9.851   8.346  0.1101  0.3193 -0.0364
  898loPI   C6A12678   9.969   9.700   8.468 -0.1043 -0.0353  0.0800
  898loPI   C1B12679  10.896  10.302   6.712  0.2077  0.1092  0.0806
  898loPI   C2B12680  10.875  10.406   7.123 -0.0835 -0.1010 -0.1708
  898loPI   C3B12681  10.911  10.390   7.537  0.1881 -0.1896  0.0587
  898loPI   C4B12682  10.933  10.267   7.990 -0.0849 -0.5959 -0.3285
  899loPI    C112683   2.890  12.592   5.570 -0.2645  0.1640  0.0924
  899loPI    C212684   3.176  12.733   5.328 -0.1196  0.0278  0.1823
  899loPI    C312685   2.898  12.482   5.186  0.0960 -0.2283  0.2042
  899loPI   PO412686   3.050  12.672   5.837 -0.0928  0.2297 -0.0982
  899loPI   GL112687   3.102  12.973   6.131  0.0214  0.0384 -0.1869
  899loPI   GL212688   3.432  12.841   6.190  0.5770  0.1637 -0.0199
  899loPI   C1A12689   2.964  12.950   6.619  0.0685 -0.1745  0.2651
  899loPI   C2A12690   2.798  13.191   7.023 -0.1805 -0.1066 -0.0352
  899loPI   C3A12691   2.716  13.293   7.433  0.1259  0.0374  0.1160
  899loPI   C4A12692   2.754  13.707   7.642 -0.5123  0.2081 -0.2462
  899loPI   C5A12693   2.533  13.865   8.089  0.0227  0.1814  0.1216
  899loPI   C6A12694   2.132  13.898   8.384  0.1558  0.0908 -0.1095
  899loPI   C1B12695   3.479  12.854   6.661 -0.2534 -0.0761 -0.1836
  899loPI   C2B12696   3.570  13.021   7.085  0.2347  0.1427  0.2370
  899loPI   C3B12697   3.646  13.101   7.569 -0.3225 -0.2172  0.1656
  899loPI   C4B12698   3.786  13.060   7.904 -0.1773 -0.5108 -0.0442
  900loPI    C112699   2.413   3.767   5.505  0.0198 -0.1516  0.0795
  900loPI    C212700   2.061   3.771   5.694  0.0153  0.1198  0.0690
  900loPI    C312701   2.077   3.841   5.301  0.0788  0.0837  0.0652
  900loPI   PO412702   2.571   3.811   5.735  0.1631 -0.2701  0.2441
  900loPI   GL112703   2.373   4.189   6.072  0.0297 -0.0215  0.1727
  900loPI   GL212704   2.159   4.379   6.106 -0.1712 -0.4172  0.1429
  900loPI   C1A12705   2.351   3.998   6.433  0.1422 -0.1959  0.0984
  900loPI   C2A12706   2.456   4.082   6.809 -0.0438  0.2204 -0.1404
  900loPI   C3A12707   2.532   4.043   7.219  0.0420 -0.0342 -0.4899
  900loPI   C4A12708   2.492   4.118   7.651  0.4516  0.1305 -0.0333
  900loPI   C5A12709   2.242   4.053   8.041 -0.1215 -0.0711  0.0826
  900loPI   C6A12710   1.956   4.147   8.358  0.2715  0.0438 -0.0466
  900loPI   C1B12711   1.956   4.378   6.530 -0.0810  0.1989  0.0811
  900loPI   C2B12712   1.916   4.285   6.934  0.1656 -0.2158  0.1792
  900loPI   C3B12713   2.063   4.162   7.359 -0.0791  0.4148  0.0110
  900loPI   C4B12714   1.894   4.029   7.684 -0.3150  0.1053 -0.1100
  901loPI    C112715   8.160  14.119   5.664  0.0282  0.0733  0.0008
  901loPI    C212716   8.498  13.991   5.493  0.1969  0.2592  0.1898
  901loPI    C312717   8.208  14.151   5.268  0.1797 -0.0169  0.0111
  901loPI   PO412718   8.086  13.896   5.843  0.4382 -0.2375 -0.0083
  901loPI   GL112719   8.064  13.884   6.288  0.1116 -0.1251  0.4066
  901loPI   GL212720   8.280  14.135   6.448 -0.2660 -0.0265 -0.0853
  901loPI   C1A12721   8.123  13.604   6.657  0.0546  0.1282  0.2019
  901loPI   C2A12722   8.306  13.626   7.068  0.0600  0.0124 -0.5565
  901loPI   C3A12723   8.441  13.653   7.447 -0.0282 -0.0242 -0.3437
  901loPI   C4A12724   8.551  13.805   7.857  0.1637 -0.1164 -0.1763
  901loPI   C5A12725   8.679  13.916   8.237  0.0243 -0.0148  0.0816
  901loPI   C6A12726   8.457  14.187   8.491 -0.0668  0.0523  0.3478
  901loPI   C1B12727   8.039  14.011   6.839  0.2011  0.1147  0.2111
  901loPI   C2B12728   7.956  13.953   7.135 -0.4967 -0.0398 -0.0084
  901loPI   C3B12729   8.106  14.048   7.582 -0.0178  0.1976  0.1595
  901loPI   C4B12730   8.256  14.271   7.854  0.1772  0.2049 -0.2134
  902loPI    C112731   1.101   4.065   5.124  0.1107 -0.0799 -0.2149
  902loPI    C212732   1.469   4.222   5.115  0.0307  0.1195 -0.0737
  902loPI    C312733   1.214   4.293   4.815 -0.0164  0.2891  0.0056
  902loPI   PO412734   1.077   3.921   5.400 -0.2423  0.4007 -0.1455
  902loPI   GL112735   1.070   3.967   5.794  0.0794 -0.1510 -0.0018
  902loPI   GL212736   0.841   3.771   5.850  0.1171 -0.2625  0.1664
  902loPI   C1A12737   1.041   4.081   6.215 -0.3575  0.2057 -0.5958
  902loPI   C2A12738   0.982   4.003   6.626  0.0059  0.0866  0.1760
  902loPI   C3A12739   1.039   4.030   7.085 -0.0224 -0.0316  0.1374
  902loPI   C4A12740   1.010   4.133   7.451 -0.1307 -0.2227  0.0724
  902loPI   C5A12741   1.241   4.442   7.479  0.1660 -0.0729  0.0854
  902loPI   C6A12742   1.270   4.581   7.821 -0.1540 -0.0494 -0.0542
  902loPI   C1B12743   1.047   3.603   6.293  0.2532 -0.0495  0.1703
  902loPI   C2B12744   1.125   3.302   6.593  0.0783 -0.1421  0.1545
  902loPI   C3B12745   1.279   3.212   6.862 -0.1399  0.3477 -0.2995
  902loPI   C4B12746   1.730   3.302   6.917  0.0270 -0.3999  0.2908
  903loPI    C112747  11.330  15.182   5.702  0.0625 -0.2256  0.2523
  903loPI    C212748  10.976  15.085   5.544  0.0279  0.1810  0.0676
  903loPI    C312749  11.311  14.924   5.398 -0.0574  0.0165  0.0509
  903loPI   PO412750  11.333  15.107   5.982 -0.1211 -0.0272 -0.1004
  903loPI   GL112751  11.480  15.027   6.364  0.0636  0.1012 -0.2496
  903loPI   GL212752  11.607  15.310   6.394  0.0239 -0.0694  0.1953
  903loPI   C1A12753  11.321  14.811   6.708 -0.1649 -0.2264 -0.0547
  903loPI   C2A12754  11.323  14.890   7.197 -0.1809 -0.2157  0.0776
  903loPI   C3A12755  11.166  15.025   7.621  0.0474 -0.3195  0.2395
  903loPI   C4A12756  11.246  15.065   8.138  0.1472 -0.3333 -0.0066
  903loPI   C5A12757  11.560  15.252   8.354  0.1026  0.3240  0.0744
  903loPI   C6A12758  11.589  15.574   8.254  0.0186 -0.3740  0.1623
  903loPI   C1B12759  11.797  15.334   6.819 -0.2129  0.2086 -0.1450
  903loPI   C2B12760  12.085  15.619   6.916 -0.3633 -0.1239 -0.0636
  903loPI   C3B12761  12.544  15.753   6.794  0.3005  0.0532 -0.0186
  903loPI   C4B12762  12.967  15.835   6.553  0.0461  0.0034 -0.0807
  904loPI    C112763   0.406   6.715   5.807 -0.0403  0.3526 -0.1067
  904loPI    C212764   0.465   6.676   5.413  0.2275  0.0997 -0.0453
  904loPI    C312765   0.113   6.573   5.574  0.2040 -0.0400 -0.1839
  904loPI   PO412766   0.621   6.850   5.865 -0.0880  0.0657 -0.0768
  904loPI   GL112767   0.783   6.844   6.170  0.0922  0.2954  0.2222
  904loPI   GL212768   0.540   6.678   6.354  0.0179  0.0246  0.3736
  904loPI   C1A12769   0.805   7.036   6.610 -0.0823 -0.3775  0.0534
  904loPI   C2A12770   1.054   6.743   6.852  0.1319  0.2593  0.0221
  904loPI   C3A12771   1.080   6.654   7.246 -0.1211  0.0085 -0.0762
  904loPI   C4A12772   1.117   6.503   7.717 -0.0585 -0.0420 -0.0377
  904loPI   C5A12773   0.803   6.330   7.992 -0.0232  0.1933 -0.3662
  904loPI   C6A12774   0.480   6.001   8.213  0.0576  0.2338  0.4553
  904loPI   C1B12775   0.488   6.673   6.782  0.1824 -0.1093 -0.0451
  904loPI   C2B12776   0.643   6.929   7.094 -0.0626 -0.2643 -0.1676
  904loPI   C3B12777   0.894   7.088   7.475 -0.0592  0.3808 -0.0254
  904loPI   C4B12778   1.247   7.120   7.728  0.1423 -0.0144  0.0145
  905loPI    C112779   0.904   3.128   5.386 -0.0550  0.0885  0.0770
  905loPI    C212780   0.668   3.191   5.069  0.0363 -0.1425 -0.0389
  905loPI    C312781   1.018   3.002   5.024  0.1726  0.0579  0.1576
  905loPI   PO412782   0.676   3.120   5.558  0.1020  0.2555  0.2550
  905loPI   GL112783   0.770   3.283   5.948  0.0210 -0.2196 -0.2764
  905loPI   GL212784   0.877   2.926   5.954  0.1332  0.2697  0.2184
  905loPI   C1A12785   0.722   3.086   6.459 -0.0031  0.2960  0.3436
  905loPI   C2A12786   0.811   3.107   6.920  0.0425  0.0071  0.2280
  905loPI   C3A12787   0.695   3.201   7.419 -0.2993 -0.0065  0.3679
  905loPI   C4A12788   0.729   3.135   7.876 -0.0103 -0.4725 -0.1641
  905loPI   C5A12789   0.740   2.784   8.120 -0.2198 -0.1636  0.0645
  905loPI   C6A12790   0.686   2.690   8.571 -0.0400  0.1797 -0.0146
  905loPI   C1B12791   1.184   2.903   6.338 -0.3642 -0.2379  0.0055
  905loPI   C2B12792   1.135   2.779   6.691  0.2660  0.0388  0.0306
  905loPI   C3B12793   1.134   2.767   7.092 -0.1617 -0.0051 -0.2237
  905loPI   C4B12794   1.127   2.897   7.551 -0.1914  0.1239 -0.0265
  906loPI    C112795   5.916   6.975   5.573  0.0314 -0.1252 -0.0001
  906loPI    C212796   5.812   7.275   5.330 -0.0532 -0.0145  0.1709
  906loPI    C312797   5.840   6.903   5.187 -0.0338  0.0601 -0.0229
  906loPI   PO412798   6.131   7.000   5.602 -0.1853  0.0778  0.1711
  906loPI   GL112799   6.408   7.145   5.842 -0.1804  0.0949  0.3127
  906loPI   GL212800   6.571   6.918   5.864 -0.0697 -0.1838  0.2905
  906loPI   C1A12801   6.235   7.332   6.167 -0.2326  0.0008 -0.0293
  906loPI   C2A12802   6.372   7.319   6.654 -0.1279  0.1974 -0.1634
  906loPI   C3A12803   6.575   7.359   7.070  0.3273 -0.0303  0.1943
  906loPI   C4A12804   6.881   7.267   7.395 -0.1563 -0.1624 -0.0568
  906loPI   C5A12805   6.963   7.098   7.799 -0.6104 -0.4998  0.0668
  906loPI   C6A12806   7.285   7.227   8.080 -0.1357  0.0492 -0.0367
  906loPI   C1B12807   6.604   6.903   6.386 -0.1056 -0.0476  0.1859
  906loPI   C2B12808   6.568   6.917   6.895  0.2269 -0.0114  0.3514
  906loPI   C3B12809   6.441   6.964   7.255 -0.4116  0.5107 -0.1717
  906loPI   C4B12810   6.512   7.035   7.643 -0.1138  0.1337 -0.0932
  907loPI    C112811   8.929   1.063   5.725 -0.1546  0.3211 -0.1898
  907loPI    C212812   9.104   0.762   5.528 -0.2482  0.0419  0.1422
  907loPI    C312813   8.839   0.997   5.341 -0.1411 -0.0520 -0.1327
  907loPI   PO412814   8.927   0.965   5.954  0.0063 -0.0509 -0.2396
  907loPI   GL112815   9.135   0.864   6.385  0.0338  0.0263 -0.3382
  907loPI   GL212816   9.235   0.503   6.320  0.4941 -0.0259 -0.2225
  907loPI   C1A12817   9.151   0.734   6.818 -0.2938  0.0565  0.2841
  907loPI   C2A12818   9.179   0.717   7.253 -0.2444  0.2535  0.0058
  907loPI   C3A12819   9.207   0.747   7.577  0.2958  0.3685 -0.1797
  907loPI   C4A12820   9.199   0.804   8.016 -0.1116 -0.1924 -0.0315
  907loPI   C5A12821   9.171   1.047   8.387 -0.1445  0.0446  0.0524
  907loPI   C6A12822   8.951   1.413   8.650 -0.4123 -0.2245 -0.0570
  907loPI   C1B12823   9.494   0.324   6.611 -0.1018 -0.0078 -0.0682
  907loPI   C2B12824   9.501   0.437   7.016 -0.0819 -0.2037 -0.2097
  907loPI   C3B12825   9.644   0.433   7.496 -0.2753  0.0250 -0.1570
  907loPI   C4B12826   9.818   0.394   7.974 -0.2187 -0.0085 -0.1137
  908loPI    C112827  11.923  10.305   5.912  0.1907  0.0990 -0.0931
  908loPI    C212828  11.545  10.180   5.956  0.2626 -0.0007  0.2797
  908loPI    C312829  11.632  10.464   5.688 -0.0723  0.0091  0.1769
  908loPI   PO412830  12.128  10.082   5.916  0.1476 -0.0419 -0.1195
  908loPI   GL112831  12.447  10.181   6.219 -0.4853  0.1666  0.2893
  908loPI   GL212832  12.546  10.446   6.472  0.0947  0.0063  0.1441
  908loPI   C1A12833  12.630  10.001   6.663  0.2479  0.3539 -0.0753
  908loPI   C2A12834  12.527   9.929   7.074  0.3866 -0.2126  0.2729
  908loPI   C3A12835  12.402   9.957   7.503 -0.0037  0.1620 -0.3154
  908loPI   C4A12836  12.366  10.014   7.942  0.0291 -0.0016  0.1083
  908loPI   C5A12837  12.258   9.894   8.224 -0.2533  0.0408  0.0880
  908loPI   C6A12838  11.940   9.674   8.340  0.2214 -0.2923 -0.2140
  908loPI   C1B12839  12.655  10.415   6.986 -0.0718  0.0680  0.0820
  908loPI   C2B12840  12.628  10.420   7.461  0.1500 -0.1853  0.0226
  908loPI   C3B12841  12.582  10.512   7.966  0.1547 -0.2451 -0.0947
  908loPI   C4B12842  12.305  10.365   8.278  0.2697  0.1014 -0.1707
  909loPI    C112843  16.435   4.896   5.671 -0.0686  0.0478 -0.0295
  909loPI    C212844  16.661   4.673   5.429  0.2590  0.2297  0.1031
  909loPI    C312845  16.364   4.893   5.277  0.1471 -0.0346 -0.0688
  909loPI   PO412846  16.517   4.810   5.891  0.4387 -0.0408  0.1336
  909loPI   GL112847  16.623   4.706   6.322 -0.0165 -0.1995 -0.2684
  909loPI   GL212848  16.390   4.414   6.162  0.0501  0.0455  0.2153
  909loPI   C1A12849  16.517   4.657   6.702 -0.4218  0.0068 -0.0055
  909loPI   C2A12850  16.436   4.616   7.147  0.2436 -0.0761  0.0120
  909loPI   C3A12851  16.036   4.477   7.316 -0.1889 -0.1478  0.4825
  909loPI   C4A12852  15.753   4.520   7.614 -0.0388 -0.0101 -0.1303
  909loPI   C5A12853  15.523   4.656   7.958 -0.0034 -0.1429 -0.2522
  909loPI   C6A12854  15.212   4.394   8.267  0.1376 -0.1200 -0.0962
  909loPI   C1B12855  16.309   4.213   6.577  0.2707 -0.0125 -0.0811
  909loPI   C2B12856  16.336   4.081   6.976 -0.4585 -0.1120 -0.0289
  909loPI   C3B12857  16.372   4.146   7.413  0.0183 -0.1809 -0.1260
  909loPI   C4B12858  16.501   4.175   7.865  0.1194  0.1692 -0.0973
  910loPI    C112859  11.713  16.750   5.938  0.0756 -0.1749 -0.0441
  910loPI    C212860  11.844  16.897   5.590 -0.2325  0.0646 -0.0634
  910loPI    C312861  11.581  16.595   5.594  0.0383 -0.1754 -0.0297
  910loPI   PO412862  11.979  16.753   6.054  0.3497  0.1635 -0.0475
  910loPI   GL112863  12.099  17.028   6.337  0.3768 -0.0714 -0.0705
  910loPI   GL212864  12.028  17.313   6.295  0.2534 -0.0302  0.3608
  910loPI   C1A12865  12.018  17.032   6.784  0.1465 -0.0813  0.0126
  910loPI   C2A12866  12.052  17.012   7.181  0.1246  0.2699 -0.1442
  910loPI   C3A12867  11.799  16.889   7.577 -0.2992 -0.2279  0.3843
  910loPI   C4A12868  11.560  16.990   8.095 -0.0968 -0.0184 -0.0324
  910loPI   C5A12869  11.658  17.070   8.452 -0.2656 -0.0716  0.2969
  910loPI   C6A12870  11.557  17.386   8.735  0.1300  0.2193 -0.1451
  910loPI   C1B12871  11.893  17.545   6.590 -0.3071 -0.0355 -0.1836
  910loPI   C2B12872  11.774  17.489   6.969 -0.0064  0.1192  0.0815
  910loPI   C3B12873  11.649  17.304   7.348  0.2216  0.2149 -0.1357
  910loPI   C4B12874  11.799  17.383   7.787 -0.0163  0.1810 -0.1832
  911loPI    C112875  14.196  14.223   5.801 -0.1676  0.1363 -0.1160
  911loPI    C212876  14.149  14.081   5.430  0.0367  0.2099 -0.1711
  911loPI    C312877  14.516  14.131   5.581 -0.0436  0.2573  0.0116
  911loPI   PO412878  13.880  14.281   5.814  0.2861 -0.0384 -0.0369
  911loPI   GL112879  13.614  14.391   6.211 -0.3495 -0.2825  0.4282
  911loPI   GL212880  13.703  14.708   6.295  0.1731  0.1590 -0.0645
  911loPI   C1A12881  13.737  14.241   6.558  0.2909  0.1108  0.3194
  911loPI   C2A12882  13.774  14.304   6.915  0.1241  0.1524 -0.2950
  911loPI   C3A12883  13.953  14.006   7.216  0.2230  0.3137  0.1673
  911loPI   C4A12884  13.861  14.005   7.694 -0.1918  0.0306  0.0452
  911loPI   C5A12885  13.873  13.811   8.043 -0.1472  0.0911  0.1704
  911loPI   C6A12886  13.762  13.441   8.284 -0.0206  0.1675 -0.4427
  911loPI   C1B12887  13.962  14.810   6.582  0.1479  0.0549 -0.1023
  911loPI   C2B12888  13.916  14.768   7.037 -0.1120 -0.0457 -0.1816
  911loPI   C3B12889  13.951  15.042   7.424  0.1531  0.0066 -0.1022
  911loPI   C4B12890  13.897  14.916   7.789  0.1369 -0.0434  0.3863
  912loPI    C112891  10.075   9.885   5.410  0.2123 -0.0867  0.2002
  912loPI    C212892   9.827   9.679   5.174 -0.0249  0.1952  0.1984
  912loPI    C312893  10.200   9.757   5.053 -0.0337  0.0376  0.0671
  912loPI   PO412894  10.111   9.809   5.678  0.5416  0.1082  0.1689
  912loPI   GL112895  10.116   9.655   5.996  0.0437  0.0596  0.0435
  912loPI   GL212896  10.300   9.361   6.218 -0.3908 -0.0717 -0.1503
  912loPI   C1A12897  10.223   9.788   6.477  0.3533 -0.0472  0.0916
  912loPI   C2A12898  10.278   9.968   6.849 -0.2852 -0.0408  0.1977
  912loPI   C3A12899  10.133   9.980   7.301  0.0930 -0.0046 -0.0227
  912loPI   C4A12900  10.129  10.067   7.709  0.1460  0.0824 -0.0858
  912loPI   C5A12901   9.917  10.071   8.107  0.0721  0.0255 -0.1131
  912loPI   C6A12902   9.648  10.061   8.550  0.1415  0.4862 -0.1142
  912loPI   C1B12903  10.386   9.333   6.646  0.0730 -0.0327 -0.0351
  912loPI   C2B12904  10.464   9.377   7.076 -0.2223  0.0478  0.0545
  912loPI   C3B12905  10.343   9.507   7.552 -0.1237 -0.0970  0.0192
  912loPI   C4B12906  10.194   9.577   7.965  0.0830  0.2292  0.0488
  913loPI    C112907   4.328   1.331   5.517 -0.1268 -0.1355  0.0172
  913loPI    C212908   4.048   1.612   5.468  0.0243 -0.0086 -0.1332
  913loPI    C312909   4.066   1.301   5.217 -0.0621 -0.0858 -0.0447
  913loPI   PO412910   4.391   1.389   5.749 -0.0192  0.0701  0.1016
  913loPI   GL112911   4.373   1.307   6.160  0.0632  0.1713 -0.0492
  913loPI   GL212912   4.069   1.259   6.271 -0.0294 -0.0154 -0.1292
  913loPI   C1A12913   4.539   1.669   6.331 -0.6396 -0.1083 -0.2629
  913loPI   C2A12914   4.477   1.725   6.736 -0.1963  0.0972 -0.3932
  913loPI   C3A12915   4.565   1.687   7.184  0.0141  0.1687  0.1573
  913loPI   C4A12916   4.451   1.445   7.621 -0.0782  0.2176 -0.1375
  913loPI   C5A12917   4.462   1.030   7.946 -0.1242  0.0497 -0.1252
  913loPI   C6A12918   4.229   0.924   8.363 -0.1137 -0.1462  0.1279
  913loPI   C1B12919   4.139   1.308   6.814 -0.0975 -0.0287  0.2946
  913loPI   C2B12920   4.096   1.296   7.264  0.1478  0.0290 -0.1564
  913loPI   C3B12921   3.975   1.250   7.699 -0.0430 -0.0719 -0.0924
  913loPI   C4B12922   3.889   1.123   8.073 -0.3140 -0.1864  0.0174
  914loPI    C112923  10.785   8.914   5.502  0.3056 -0.1446  0.0119
  914loPI    C212924  10.683   9.254   5.319  0.2824 -0.0770  0.1490
  914loPI    C312925  10.725   8.918   5.107 -0.0170 -0.0604  0.0593
  914loPI   PO412926  10.972   8.927   5.691  0.0342  0.1470  0.0990
  914loPI   GL112927  11.092   8.955   6.104 -0.2565  0.3329 -0.0548
  914loPI   GL212928  10.696   9.039   6.136  0.1803 -0.0729  0.2844
  914loPI   C1A12929  11.316   8.965   6.486  0.1748  0.1103 -0.2291
  914loPI   C2A12930  11.287   9.025   7.011 -0.0556 -0.0165 -0.0958
  914loPI   C3A12931  11.148   8.977   7.347  0.2861 -0.1964  0.0416
  914loPI   C4A12932  10.873   8.752   7.720 -0.2707 -0.0800  0.3114
  914loPI   C5A12933  10.703   8.683   8.114  0.1355 -0.3730  0.0705
  914loPI   C6A12934  10.729   8.670   8.529 -0.2280  0.1905  0.0938
  914loPI   C1B12935  10.748   9.005   6.547  0.0238  0.0768  0.0765
  914loPI   C2B12936  10.733   8.965   7.080  0.1620  0.0604 -0.1582
  914loPI   C3B12937  10.519   8.968   7.313 -0.1393 -0.0094  0.0206
  914loPI   C4B12938  10.438   8.992   7.642  0.0542 -0.3404 -0.3027
  915loPI    C112939  17.892   2.461   5.391  0.0334 -0.1117  0.0098
  915loPI    C212940  18.170   2.470   5.103 -0.0145  0.0938 -0.0317
  915loPI    C312941  17.795   2.584   5.023 -0.0431  0.0909  0.0958
  915loPI   PO412942  17.911   2.652   5.556 -0.0860 -0.2428 -0.1652
  915loPI   GL112943  17.996   2.667   5.932 -0.1660 -0.1524  0.1403
  915loPI   GL212944  18.172   2.293   5.782 -0.0409  0.2275 -0.0043
  915loPI   C1A12945  17.599   2.528   6.258  0.0175 -0.2787 -0.1560
  915loPI   C2A12946  17.262   2.394   6.592  0.1413  0.0576 -0.0764
  915loPI   C3A12947  17.193   2.318   6.940  0.4460 -0.0193  0.0350
  915loPI   C4A12948  17.306   2.303   7.456  0.2194 -0.0399 -0.1383
  915loPI   C5A12949  17.312   2.242   7.855  0.0139  0.2036 -0.0628
  915loPI   C6A12950  17.335   2.479   8.276 -0.2314  0.0557 -0.0486
  915loPI   C1B12951  18.052   2.292   6.261 -0.0179  0.0316 -0.2594
  915loPI   C2B12952  18.187   2.522   6.513 -0.2992  0.4645 -0.1923
  915loPI   C3B12953  18.171   2.554   6.931 -0.2525  0.1026  0.3625
  915loPI   C4B12954  18.139   2.510   7.391  0.0255  0.0744  0.2549
  916loPI    C112955   7.047   2.580   6.124  0.0565 -0.1547 -0.2509
  916loPI    C212956   7.342   2.740   6.342 -0.0492 -0.2799 -0.0120
  916loPI    C312957   7.152   2.962   6.068 -0.1133 -0.0302  0.2304
  916loPI   PO412958   7.054   2.317   6.229  0.3398  0.1295  0.0482
  916loPI   GL112959   6.912   2.272   6.610 -0.2107 -0.5325 -0.0200
  916loPI   GL212960   6.642   2.528   6.473  0.1481 -0.0401 -0.1089
  916loPI   C1A12961   6.853   2.221   6.938 -0.0299 -0.2031 -0.1450
  916loPI   C2A12962   6.585   2.127   7.411  0.0927 -0.1481 -0.4054
  916loPI   C3A12963   6.358   2.412   7.734 -0.3026 -0.0361 -0.4213
  916loPI   C4A12964   6.069   2.529   8.046 -0.1301  0.0685  0.1415
  916loPI   C5A12965   6.035   2.934   8.087  0.1596 -0.2086 -0.0341
  916loPI   C6A12966   5.651   3.253   8.043 -0.1303 -0.1481  0.0077
  916loPI   C1B12967   6.993   2.765   6.669  0.0458  0.3525 -0.5679
  916loPI   C2B12968   7.075   2.739   7.110  0.3573  0.1695 -0.2951
  916loPI   C3B12969   7.306   2.793   7.573  0.2269 -0.0129 -0.0542
  916loPI   C4B12970   7.433   2.899   8.009  0.1549 -0.1061 -0.0457
  917loPI    C112971   8.119   1.439   6.224  0.0603 -0.0010 -0.0694
  917loPI    C212972   8.020   1.820   6.150  0.3221  0.0900  0.0380
  917loPI    C312973   8.153   1.587   5.853 -0.1130 -0.0056 -0.0876
  917loPI   PO412974   8.250   1.489   6.463  0.3691  0.2137  0.1292
  917loPI   GL112975   8.226   1.867   6.649  0.2818 -0.1990  0.0455
  917loPI   GL212976   8.029   2.126   6.514  0.3077 -0.0708  0.1664
  917loPI   C1A12977   8.063   1.588   6.995  0.0881 -0.2271 -0.0662
  917loPI   C2A12978   8.044   1.475   7.392  0.3812  0.3061  0.0902
  917loPI   C3A12979   8.038   1.568   7.814 -0.1469  0.1229 -0.0070
  917loPI   C4A12980   8.069   1.387   8.178 -0.0974 -0.0749 -0.2349
  917loPI   C5A12981   8.193   1.084   8.548  0.1892 -0.2118  0.1108
  917loPI   C6A12982   8.337   0.642   8.456 -0.3500 -0.3987  0.4533
  917loPI   C1B12983   7.802   1.983   6.932  0.1200 -0.0437 -0.0456
  917loPI   C2B12984   7.723   1.915   7.257 -0.0845 -0.1545 -0.0208
  917loPI   C3B12985   7.698   1.889   7.739  0.2682 -0.2291 -0.1097
  917loPI   C4B12986   7.709   1.815   8.173  0.0272 -0.2064  0.0671
  918loPI    C112987  17.144   8.851   5.853  0.0911  0.1998  0.2858
  918loPI    C212988  16.814   8.776   6.067  0.0120  0.0747  0.1220
  918loPI    C312989  16.785   8.854   5.675  0.1656  0.1969  0.1341
  918loPI   PO412990  17.305   8.643   5.959  0.4643  0.1668 -0.4189
  918loPI   GL112991  17.227   8.450   6.278  0.0418  0.0697  0.1293
  918loPI   GL212992  17.165   8.717   6.415 -0.1280  0.1984 -0.0124
  918loPI   C1A12993  17.090   8.216   6.685  0.4216  0.0798 -0.0455
  918loPI   C2A12994  17.121   8.240   7.107  0.0657 -0.1466  0.1461
  918loPI   C3A12995  17.410   8.105   7.454 -0.1191  0.0083  0.0369
  918loPI   C4A12996  17.425   7.890   7.773  0.0796 -0.0833 -0.1074
  918loPI   C5A12997  17.240   7.762   8.252  0.1654 -0.0457 -0.2541
  918loPI   C6A12998  17.328   7.378   8.464 -0.0718 -0.0115  0.1886
  918loPI   C1B12999  17.390   8.590   6.833 -0.2328  0.0001  0.0822
  918loPI   C2B13000  17.415   8.650   7.280 -0.0621 -0.0378 -0.0906
  918loPI   C3B13001  17.489   8.652   7.735 -0.2157  0.1257  0.3624
  918loPI   C4B13002  17.566   8.685   8.059  0.0403  0.2868 -0.3491
  919loPI    C113003  16.694  10.090   5.868 -0.1045 -0.1387  0.1854
  919loPI    C213004  16.512   9.734   5.877 -0.2203 -0.0806  0.1542
  919loPI    C313005  16.801   9.803   5.610 -0.2582 -0.1222  0.1022
  919loPI   PO413006  16.817  10.157   6.138  0.0589 -0.0446  0.1283
  919loPI   GL113007  16.525  10.106   6.383  0.0458  0.0476  0.0742
  919loPI   GL213008  16.234  10.127   6.527  0.0474  0.0770 -0.0498
  919loPI   C1A13009  16.822   9.965   6.701  0.3397 -0.2451 -0.0240
  919loPI   C2A13010  16.733   9.876   7.139  0.1824 -0.0589  0.0918
  919loPI   C3A13011  16.718  10.069   7.471  0.3016  0.1498 -0.2239
  919loPI   C4A13012  16.683  10.028   7.910 -0.0158 -0.0062 -0.0481
  919loPI   C5A13013  16.741   9.772   8.272 -0.1588 -0.1136  0.1421
  919loPI   C6A13014  16.499   9.362   8.363 -0.1004 -0.1582  0.0266
  919loPI   C1B13015  16.454  10.193   6.965  0.2663  0.1388 -0.4015
  919loPI   C2B13016  16.551  10.439   7.226  0.1525 -0.2233  0.1426
  919loPI   C3B13017  16.529  10.559   7.576 -0.3046 -0.1827  0.0557
  919loPI   C4B13018  16.682  10.489   8.063  0.2207 -0.1754 -0.0955
  920loPI    C113019  17.574   1.162   5.165  0.0290  0.1278  0.1475
  920loPI    C213020  17.858   0.888   5.228  0.0680  0.1128 -0.0824
  920loPI    C313021  17.941   1.215   5.013 -0.0923  0.1012 -0.1635
  920loPI   PO413022  17.491   1.203   5.316 -0.2371  0.5345 -0.0106
  920loPI   GL113023  17.475   1.315   5.706 -0.4201  0.1660 -0.2855
  920loPI   GL213024  17.631   1.486   5.908 -0.0717  0.2172  0.1182
  920loPI   C1A13025  17.342   1.009   6.085 -0.0295  0.0603 -0.1979
  920loPI   C2A13026  17.456   1.029   6.549 -0.2005 -0.1778  0.0328
  920loPI   C3A13027  17.335   0.965   6.964  0.2427 -0.3087  0.2633
  920loPI   C4A13028  17.360   0.746   7.273  0.0019  0.2334  0.2406
  920loPI   C5A13029  17.246   0.593   7.630 -0.2198 -0.2393  0.1710
  920loPI   C6A13030  17.000   0.456   8.066 -0.0840 -0.4347 -0.0138
  920loPI   C1B13031  17.430   1.574   6.267 -0.1530 -0.1085  0.1812
  920loPI   C2B13032  17.270   1.587   6.647  0.1266  0.0210  0.1378
  920loPI   C3B13033  17.090   1.458   7.014 -0.3526 -0.0476 -0.0173
  920loPI   C4B13034  17.157   1.258   7.414 -0.4168  0.0167 -0.2578
  921loPI    C113035   2.231  15.754   5.732 -0.0088  0.2619  0.0383
  921loPI    C213036   2.388  15.388   5.763 -0.3738  0.0898 -0.0949
  921loPI    C313037   2.599  15.706   5.881 -0.0187 -0.1531 -0.0598
  921loPI   PO413038   2.002  15.700   5.864 -0.3015 -0.1705  0.0962
  921loPI   GL113039   1.912  15.625   6.321 -0.1983 -0.1168  0.0183
  921loPI   GL213040   1.718  15.890   6.259  0.0712 -0.3330  0.3688
  921loPI   C1A13041   2.039  15.875   6.652  0.0527 -0.3487  0.3237
  921loPI   C2A13042   2.138  15.841   6.991  0.2103 -0.1147  0.1122
  921loPI   C3A13043   2.311  15.761   7.390 -0.0958  0.0161  0.0934
  921loPI   C4A13044   2.150  15.599   7.838  0.1814  0.4341  0.0600
  921loPI   C5A13045   1.794  15.644   8.222  0.3025  0.0236 -0.0502
  921loPI   C6A13046   1.439  15.857   8.465  0.1504  0.1701 -0.5643
  921loPI   C1B13047   1.484  15.817   6.601 -0.0102  0.2923 -0.3387
  921loPI   C2B13048   1.659  15.727   7.004 -0.0210  0.0851  0.0369
  921loPI   C3B13049   1.754  15.797   7.407  0.0233 -0.0154 -0.0830
  921loPI   C4B13050   1.915  16.208   7.432  0.1271  0.0103  0.0738
  922loPI    C113051  10.304  14.769   5.739 -0.0106  0.1083 -0.0300
  922loPI    C213052   9.953  14.789   5.930  0.0333 -0.0446  0.0685
  922loPI    C313053   9.968  14.839   5.534 -0.0836  0.0814  0.0792
  922loPI   PO413054  10.410  14.542   5.879 -0.3661  0.1153 -0.2754
  922loPI   GL113055  10.579  14.520   6.234 -0.1386  0.0825 -0.2897
  922loPI   GL213056  10.295  14.867   6.296  0.3532  0.4062 -0.4661
  922loPI   C1A13057  10.623  14.499   6.613 -0.0150  0.1291 -0.1506
  922loPI   C2A13058  10.495  14.543   7.093  0.0814  0.3110 -0.3205
  922loPI   C3A13059  10.363  14.539   7.502 -0.2848 -0.1957  0.2662
  922loPI   C4A13060  10.359  14.714   7.873  0.1531 -0.0597  0.0064
  922loPI   C5A13061  10.403  14.608   8.292 -0.1516  0.4331 -0.4620
  922loPI   C6A13062  10.361  14.897   8.687 -0.1228 -0.4275 -0.1155
  922loPI   C1B13063  10.341  14.915   6.773 -0.1473 -0.4053 -0.2389
  922loPI   C2B13064  10.340  15.056   7.181  0.3253 -0.0766 -0.1337
  922loPI   C3B13065   9.989  15.062   7.532  0.1297 -0.0128 -0.1521
  922loPI   C4B13066  10.248  15.335   7.654 -0.1197  0.1345  0.3027
  923loPI    C113067   7.383  15.110   6.084 -0.2035  0.0552 -0.1644
  923loPI    C213068   7.449  14.807   5.831  0.0644 -0.1783  0.1761
  923loPI    C313069   7.096  14.839   6.017 -0.0684 -0.1100 -0.0825
  923loPI   PO413070   7.547  15.085   6.215 -0.2602 -0.1446 -0.1387
  923loPI   GL113071   7.499  15.361   6.586 -0.0749 -0.1347 -0.2011
  923loPI   GL213072   7.686  15.568   6.549 -0.0637  0.1936  0.2974
  923loPI   C1A13073   7.547  15.144   6.894 -0.0576 -0.2764  0.1464
  923loPI   C2A13074   7.625  15.190   7.350  0.0454  0.1795  0.0106
  923loPI   C3A13075   7.540  15.152   7.810 -0.0880  0.3719 -0.0455
  923loPI   C4A13076   7.678  15.187   8.183 -0.0425 -0.1249 -0.3394
  923loPI   C5A13077   7.849  15.042   8.564  0.1393 -0.0433 -0.2386
  923loPI   C6A13078   7.742  14.621   8.775 -0.2708  0.3085  0.2986
  923loPI   C1B13079   7.951  15.489   6.935 -0.2951  0.0936  0.0404
  923loPI   C2B13080   8.102  15.302   7.365 -0.2777 -0.0955 -0.1451
  923loPI   C3B13081   8.149  15.147   7.848  0.1452 -0.2681  0.2542
  923loPI   C4B13082   8.193  15.113   8.277 -0.0073 -0.0196  0.0673
  924loPI    C113083   4.459   6.679   5.642 -0.1583  0.0066  0.1077
  924loPI    C213084   4.596   6.963   5.397 -0.1258 -0.0463  0.0644
  924loPI    C313085   4.518   6.597   5.255 -0.3484 -0.0063  0.0802
  924loPI   PO413086   4.660   6.710   5.841  0.2299 -0.0338  0.1724
  924loPI   GL113087   4.855   6.299   6.023  0.0654 -0.0295 -0.0575
  924loPI   GL213088   5.237   6.239   5.979  0.1171 -0.0724 -0.1040
  924loPI   C1A13089   4.915   6.147   6.441  0.0080 -0.1130 -0.0125
  924loPI   C2A13090   4.848   6.053   6.875  0.0219  0.0207 -0.0112
  924loPI   C3A13091   5.018   6.111   7.267  0.0702 -0.0389  0.0890
  924loPI   C4A13092   5.013   6.170   7.662  0.0332 -0.1855  0.1582
  924loPI   C5A13093   5.260   6.393   7.919 -0.2005  0.2699  0.3536
  924loPI   C6A13094   5.428   6.748   8.181  0.1941  0.4289 -0.3607
  924loPI   C1B13095   5.363   5.941   6.337  0.0213 -0.3228  0.3788
  924loPI   C2B13096   5.302   5.943   6.756  0.0339  0.0943 -0.1981
  924loPI   C3B13097   5.455   5.841   7.316  0.0980 -0.0395  0.4647
  924loPI   C4B13098   5.525   5.916   7.801  0.3561 -0.2320  0.0317
  925loPI    C113099   7.922  14.578   5.638 -0.0643 -0.1083 -0.0535
  925loPI    C213100   7.743  14.382   5.338 -0.0566 -0.0146 -0.1198
  925loPI    C313101   7.969  14.703   5.261 -0.0815  0.0300 -0.0102
  925loPI   PO413102   7.754  14.352   5.859 -0.1138  0.0305 -0.3878
  925loPI   GL113103   7.567  14.420   6.235  0.2708  0.1510 -0.0772
  925loPI   GL213104   7.741  14.687   6.441 -0.1044 -0.1081  0.2398
  925loPI   C1A13105   7.476  14.217   6.628  0.0582 -0.0297 -0.1743
  925loPI   C2A13106   7.496  14.118   7.088 -0.2719  0.5824 -0.3277
  925loPI   C3A13107   7.347  14.026   7.387  0.0417  0.0865 -0.0686
  925loPI   C4A13108   7.142  13.759   7.615 -0.0020  0.0170 -0.1923
  925loPI   C5A13109   6.960  13.530   7.990  0.1634  0.0463  0.1068
  925loPI   C6A13110   6.918  13.420   8.417 -0.3497 -0.0064  0.1052
  925loPI   C1B13111   7.892  14.502   6.774 -0.1633  0.1109  0.0465
  925loPI   C2B13112   7.901  14.427   7.189 -0.1311  0.2229 -0.1970
  925loPI   C3B13113   7.640  14.340   7.621 -0.2824 -0.2466  0.0215
  925loPI   C4B13114   7.330  14.125   7.917  0.2098 -0.0829  0.0679
  926loPI    C113115   0.435   9.876   5.626 -0.0480 -0.0213 -0.0933
  926loPI    C213116   0.762   9.890   5.856 -0.1641 -0.0101  0.0729
  926loPI    C313117   0.772   9.697   5.506  0.0199 -0.0093  0.0765
  926loPI   PO413118   0.244   9.762   5.903 -0.0716  0.1472 -0.0858
  926loPI   GL113119   0.339   9.680   6.390 -0.0391  0.0471 -0.1200
  926loPI   GL213120   0.430   9.417   6.425  0.0093 -0.3636  0.1033
  926loPI   C1A13121   0.282  10.042   6.705  0.0586 -0.2389 -0.1101
  926loPI   C2A13122   0.116  10.144   7.068 -0.4912 -0.0143  0.2321
  926loPI   C3A13123   0.041  10.139   7.438  0.0248  0.1681  0.3447
  926loPI   C4A13124  -0.178  10.290   7.807  0.1638  0.2004 -0.0188
  926loPI   C5A13125  -0.320  10.251   8.216 -0.0205  0.1964  0.0661
  926loPI   C6A13126  -0.364  10.250   8.599 -0.0308  0.0870  0.0531
  926loPI   C1B13127   0.513   9.426   6.843  0.0066 -0.0039 -0.0834
  926loPI   C2B13128   0.485   9.482   7.316 -0.2550 -0.3796  0.4990
  926loPI   C3B13129   0.533   9.444   7.729  0.1045 -0.0687  0.1828
  926loPI   C4B13130   0.734   9.716   8.014  0.1794 -0.1465 -0.0691
  927loPI    C113131   5.089  14.754   5.856 -0.0438 -0.0766 -0.1356
  927loPI    C213132   4.839  14.564   5.608 -0.1179 -0.2251  0.0504
  927loPI    C313133   5.234  14.547   5.546 -0.1590  0.2213 -0.3929
  927loPI   PO413134   4.886  14.751   6.148  0.2538  0.0839 -0.1976
  927loPI   GL113135   4.903  14.693   6.515  0.1772 -0.0991  0.0689
  927loPI   GL213136   5.134  14.564   6.676  0.1189 -0.2328  0.2882
  927loPI   C1A13137   4.696  14.850   6.838  0.0080  0.1959  0.2359
  927loPI   C2A13138   4.600  14.781   7.233 -0.0799  0.0524  0.4443
  927loPI   C3A13139   4.479  14.915   7.581 -0.0728 -0.1297 -0.1537
  927loPI   C4A13140   4.233  14.653   7.904  0.1797 -0.2948  0.1490
  927loPI   C5A13141   3.948  14.959   7.920  0.2668 -0.0162 -0.1603
  927loPI   C6A13142   3.505  15.179   7.934 -0.1811 -0.3936  0.2463
  927loPI   C1B13143   5.128  14.752   7.098  0.0965 -0.1835 -0.1803
  927loPI   C2B13144   5.046  14.926   7.526 -0.1154  0.0514  0.0469
  927loPI   C3B13145   4.904  14.910   7.944 -0.0651  0.2654 -0.0935
  927loPI   C4B13146   4.708  14.831   8.287 -0.2039 -0.3531 -0.0217
  928loPI    C113147   9.198  13.704   5.635  0.0164  0.1393 -0.0985
  928loPI    C213148   9.285  13.760   5.249  0.0595  0.1475 -0.0876
  928loPI    C313149   8.912  13.666   5.358  0.1404 -0.2984 -0.1744
  928loPI   PO413150   9.397  13.515   5.788 -0.1048 -0.0432  0.3283
  928loPI   GL113151   9.557  13.450   6.181 -0.0713 -0.2045  0.0656
  928loPI   GL213152   9.789  13.303   6.084 -0.1316 -0.0813  0.2855
  928loPI   C1A13153   9.337  13.735   6.650  0.0608 -0.2408  0.1175
  928loPI   C2A13154   9.269  13.703   7.062  0.0945  0.0850  0.0772
  928loPI   C3A13155   9.367  13.740   7.465 -0.1211  0.0901 -0.1507
  928loPI   C4A13156   9.816  13.587   7.643  0.1342  0.0031  0.1375
  928loPI   C5A13157   9.909  13.413   7.941  0.2005  0.0059 -0.0195
  928loPI   C6A13158  10.377  13.348   8.133 -0.1165  0.1613  0.1102
  928loPI   C1B13159   9.763  13.043   6.534 -0.2137  0.3478  0.0037
  928loPI   C2B13160   9.838  12.907   6.875  0.2124 -0.3083 -0.1082
  928loPI   C3B13161   9.960  12.849   7.301  0.2608  0.1776 -0.1410
  928loPI   C4B13162  10.082  13.161   7.568  0.0629 -0.0060 -0.2894
  929loPI    C113163  10.051   6.721   5.330  0.0029  0.1502  0.0380
  929loPI    C213164   9.820   6.659   5.009  0.0850 -0.0991  0.0245
  929loPI    C313165  10.211   6.731   4.964  0.0931 -0.1161  0.0677
  929loPI   PO413166   9.915   6.606   5.501 -0.0125  0.2842  0.2973
  929loPI   GL113167   9.898   6.579   5.930 -0.2454  0.0893  0.2518
  929loPI   GL213168   9.837   6.887   5.968  0.0493 -0.3350 -0.1617
  929loPI   C1A13169   9.673   6.247   6.190 -0.1432  0.0761 -0.1091
  929loPI   C2A13170   9.634   5.916   6.422  0.2859  0.1446  0.0037
  929loPI   C3A13171   9.780   5.887   6.868  0.3231 -0.0626  0.0553
  929loPI   C4A13172   9.979   5.802   7.256 -0.2383 -0.0508 -0.3323
  929loPI   C5A13173  10.138   5.700   7.590 -0.2904  0.0944 -0.1647
  929loPI   C6A13174   9.972   5.507   7.901 -0.0849 -0.2830 -0.0407
  929loPI   C1B13175   9.646   6.877   6.381 -0.0153  0.0085 -0.2440
  929loPI   C2B13176   9.693   6.784   6.849  0.1105 -0.2641  0.0216
  929loPI   C3B13177   9.491   6.917   7.324 -0.2023 -0.1279  0.1163
  929loPI   C4B13178   9.486   6.883   7.662  0.4035  0.3382  0.1308
  930loPI    C113179  17.445   5.017   5.518  0.0310 -0.0307  0.0345
  930loPI    C213180  17.821   4.886   5.478 -0.0403 -0.2893  0.1834
  930loPI    C313181  17.589   4.929   5.156  0.1556 -0.0003  0.0759
  930loPI   PO413182  17.424   4.953   5.769  0.1540 -0.1829  0.0951
  930loPI   GL113183  17.594   4.776   6.156 -0.1817  0.2447 -0.1224
  930loPI   GL213184  17.625   5.154   6.213 -0.0276 -0.0177  0.0279
  930loPI   C1A13185  17.743   4.589   6.534 -0.1503  0.1718 -0.2090
  930loPI   C2A13186  17.816   4.464   6.990  0.1482 -0.0686  0.1183
  930loPI   C3A13187  17.809   4.342   7.410 -0.0698 -0.0607 -0.1555
  930loPI   C4A13188  17.898   4.228   7.803 -0.0228 -0.1049  0.1859
  930loPI   C5A13189  17.893   3.973   8.208  0.0683  0.1729 -0.1600
  930loPI   C6A13190  18.083   3.571   8.395  0.0437 -0.1762  0.3192
  930loPI   C1B13191  17.541   5.162   6.665 -0.2735 -0.3752 -0.4939
  930loPI   C2B13192  17.538   5.067   7.069 -0.0157 -0.1096 -0.0044
  930loPI   C3B13193  17.534   4.775   7.459 -0.0155 -0.1150 -0.0885
  930loPI   C4B13194  17.465   4.547   7.916 -0.0844 -0.0515  0.0523
  931loPI    C113195  16.173  13.069   5.818  0.0567 -0.0435  0.0411
  931loPI    C213196  16.268  12.699   5.700 -0.0231 -0.0142 -0.1170
  931loPI    C313197  15.887  12.822   5.685 -0.0065  0.0518 -0.0015
  931loPI   PO413198  16.272  13.151   5.986  0.3349 -0.1278  0.0639
  931loPI   GL113199  16.253  13.245   6.369  0.0491 -0.0438  0.0212
  931loPI   GL213200  15.964  13.150   6.332  0.0885  0.0025 -0.1280
  931loPI   C1A13201  16.111  13.038   6.784 -0.1246  0.3070  0.1747
  931loPI   C2A13202  16.069  12.919   7.227 -0.1133 -0.2307  0.0065
  931loPI   C3A13203  16.013  13.063   7.646  0.0367 -0.0408  0.2157
  931loPI   C4A13204  15.961  13.339   7.982 -0.0308 -0.0527  0.3139
  931loPI   C5A13205  15.761  13.369   8.332 -0.0814 -0.0747  0.0533
  931loPI   C6A13206  15.606  13.179   8.736  0.0182  0.0688  0.2198
  931loPI   C1B13207  15.950  13.533   6.705 -0.1356 -0.1051  0.1306
  931loPI   C2B13208  15.917  13.411   7.112  0.0634  0.1758 -0.2993
  931loPI   C3B13209  15.693  13.358   7.469 -0.1237  0.0731 -0.3994
  931loPI   C4B13210  15.557  13.158   7.858  0.1060 -0.0541 -0.1268
  932loPI    C113211   7.428   1.285   5.842 -0.0209  0.0997 -0.1305
  932loPI    C213212   7.598   1.588   6.040 -0.0075  0.0626 -0.0847
  932loPI    C313213   7.701   1.211   6.125 -0.0235  0.0452 -0.1420
  932loPI   PO413214   7.246   1.298   5.849  0.3616 -0.0001  0.2648
  932loPI   GL113215   6.971   1.461   6.040  0.2263  0.0057 -0.0464
  932loPI   GL213216   7.197   1.356   6.308 -0.1708  0.3434  0.0850
  932loPI   C1A13217   6.786   1.335   6.526  0.1161  0.0079 -0.0663
  932loPI   C2A13218   6.883   1.366   7.037  0.0280 -0.0857 -0.2741
  932loPI   C3A13219   7.021   1.137   7.402 -0.0256 -0.2425 -0.1425
  932loPI   C4A13220   6.876   1.349   7.739  0.0877  0.0081 -0.0568
  932loPI   C5A13221   6.900   1.453   8.251 -0.0979 -0.1228  0.2977
  932loPI   C6A13222   6.812   1.698   8.604  0.1716  0.0906  0.0130
  932loPI   C1B13223   7.193   1.151   6.748 -0.0971 -0.0987 -0.3069
  932loPI   C2B13224   7.300   0.844   7.105  0.0461  0.3968 -0.5173
  932loPI   C3B13225   7.238   0.608   7.450 -0.1964  0.0374 -0.1338
  932loPI   C4B13226   7.318   0.402   7.752 -0.0310  0.1626 -0.0167
  933loPI    C113227  15.519  11.822   5.681  0.1240  0.1271 -0.0223
  933loPI    C213228  15.760  11.511   5.611  0.1097  0.0658  0.1917
  933loPI    C313229  15.816  11.855   5.416  0.1135 -0.0755 -0.0608
  933loPI   PO413230  15.532  11.967   5.948  0.1684 -0.2499  0.0797
  933loPI   GL113231  15.490  11.905   6.401 -0.1700 -0.0678 -0.0626
  933loPI   GL213232  15.184  11.774   6.447  0.0849 -0.0172 -0.1563
  933loPI   C1A13233  15.544  11.915   6.953 -0.3071 -0.1613 -0.0022
  933loPI   C2A13234  15.576  11.871   7.312 -0.0265  0.2566 -0.3068
  933loPI   C3A13235  15.710  11.994   7.656 -0.0291 -0.2205  0.2611
  933loPI   C4A13236  16.040  12.100   7.995 -0.0360 -0.0629 -0.0797
  933loPI   C5A13237  16.275  11.993   8.419  0.0303  0.1791  0.1042
  933loPI   C6A13238  16.508  11.821   8.754  0.0481  0.2458 -0.2877
  933loPI   C1B13239  14.962  11.790   6.810  0.2083  0.0745 -0.1086
  933loPI   C2B13240  15.017  11.886   7.282  0.0874  0.3687  0.0908
  933loPI   C3B13241  15.121  11.879   7.669 -0.3746 -0.0721  0.1735
  933loPI   C4B13242  15.103  12.157   8.116 -0.1306 -0.1125 -0.0889
  934loPI    C113243   4.797  15.598   5.863 -0.2121  0.0722 -0.0631
  934loPI    C213244   4.970  15.239   5.822  0.0636  0.1835  0.1054
  934loPI    C313245   4.840  15.436   5.499  0.0945  0.0214 -0.0069
  934loPI   PO413246   4.754  15.538   6.097  0.3362  0.2453 -0.0972
  934loPI   GL113247   4.718  15.584   6.554 -0.1813  0.0146  0.1862
  934loPI   GL213248   4.695  15.868   6.749  0.1751 -0.0415 -0.3110
  934loPI   C1A13249   4.887  15.359   6.841  0.1069  0.1190  0.0220
  934loPI   C2A13250   5.000  15.407   7.314  0.2040  0.0098 -0.1305
  934loPI   C3A13251   4.921  15.363   7.778  0.1991 -0.4093 -0.0230
  934loPI   C4A13252   4.805  15.372   8.119 -0.0085  0.0380 -0.1484
  934loPI   C5A13253   4.461  15.265   8.282 -0.0234  0.0692 -0.0115
  934loPI   C6A13254   3.991  15.163   8.429 -0.0701 -0.4098 -0.0756
  934loPI   C1B13255   4.604  15.820   7.158  0.0679 -0.2794 -0.3235
  934loPI   C2B13256   4.525  15.497   7.453 -0.1252 -0.1159 -0.1102
  934loPI   C3B13257   4.270  15.309   7.788  0.1032 -0.0034  0.0552
  934loPI   C4B13258   3.978  15.475   8.035  0.0897  0.2112  0.0799
  935loPI    C113259  17.748  16.595   5.841 -0.0225 -0.2652 -0.0567
  935loPI    C213260  17.698  16.512   5.453 -0.0112  0.1909 -0.1611
  935loPI    C313261  17.521  16.832   5.613 -0.1208 -0.0650  0.2439
  935loPI   PO413262  17.652  16.329   5.978 -0.0785  0.1386 -0.0897
  935loPI   GL113263  17.583  16.007   6.478  0.0958  0.2260  0.0813
  935loPI   GL213264  17.855  16.267   6.638 -0.0285 -0.0111 -0.1162
  935loPI   C1A13265  17.335  15.937   6.792  0.0295  0.1944 -0.1582
  935loPI   C2A13266  17.279  15.673   7.155  0.2152  0.0246  0.1816
  935loPI   C3A13267  17.166  15.435   7.531 -0.0600  0.1052  0.1413
  935loPI   C4A13268  16.989  15.432   7.934  0.0479 -0.0044  0.2447
  935loPI   C5A13269  17.250  15.465   8.407  0.2443 -0.2288 -0.1312
  935loPI   C6A13270  17.131  15.333   8.806  0.1416 -0.1911  0.0287
  935loPI   C1B13271  17.841  16.062   7.092  0.0825 -0.0105 -0.3261
  935loPI   C2B13272  17.943  15.980   7.550  0.0586 -0.0132 -0.0343
  935loPI   C3B13273  17.964  15.836   7.867 -0.0957  0.0544 -0.2004
  935loPI   C4B13274  17.993  15.657   8.368 -0.0147  0.0298  0.2574
  936loPI    C113275  12.646   1.911   5.436  0.1913  0.1997 -0.0192
  936loPI    C213276  12.579   2.274   5.590  0.2028  0.1993 -0.0133
  936loPI    C313277  12.444   2.184   5.224 -0.1357  0.0831  0.1354
  936loPI   PO413278  12.915   1.893   5.606  0.0794  0.0141 -0.2572
  936loPI   GL113279  12.938   1.982   5.996 -0.4400  0.2488 -0.0958
  936loPI   GL213280  12.827   2.214   6.128 -0.1981 -0.2887  0.0603
  936loPI   C1A13281  13.263   1.959   6.339  0.0659 -0.0236  0.0590
  936loPI   C2A13282  13.418   1.726   6.563 -0.3821  0.2893 -0.2114
  936loPI   C3A13283  13.591   1.678   6.842 -0.0648  0.3118 -0.1925
  936loPI   C4A13284  13.728   1.677   7.241  0.2708  0.1035  0.0971
  936loPI   C5A13285  13.770   1.839   7.614 -0.0793 -0.3236 -0.0085
  936loPI   C6A13286  13.798   1.659   8.013  0.0084 -0.1018  0.2301
  936loPI   C1B13287  12.680   2.394   6.485  0.2688 -0.0864 -0.3084
  936loPI   C2B13288  12.758   2.380   6.929  0.0460 -0.0373 -0.3967
  936loPI   C3B13289  13.053   2.418   7.325 -0.1186  0.0843 -0.1678
  936loPI   C4B13290  13.121   2.569   7.727  0.0242 -0.2086 -0.1098
  937loPI    C113291   8.875   1.897   6.182 -0.1243  0.1260 -0.1483
  937loPI    C213292   8.475   1.899   6.161 -0.1153  0.1055 -0.3324
  937loPI    C313293   8.692   1.785   5.845  0.0338 -0.0145 -0.1884
  937loPI   PO413294   8.917   2.096   6.349  0.0761 -0.0683 -0.0355
  937loPI   GL113295   8.771   2.102   6.783  0.3614  0.0663  0.1180
  937loPI   GL213296   8.894   2.425   6.732  0.1208 -0.4197 -0.0523
  937loPI   C1A13297   8.666   2.205   7.221  0.1371 -0.2060  0.0021
  937loPI   C2A13298   8.717   2.277   7.628 -0.1776  0.0343  0.0221
  937loPI   C3A13299   8.771   2.174   8.160  0.0422 -0.0689  0.1793
  937loPI   C4A13300   8.593   2.236   8.551  0.0541 -0.0808  0.3030
  937loPI   C5A13301   8.342   2.223   8.905  0.1068 -0.2731 -0.0234
  937loPI   C6A13302   7.894   2.191   8.980 -0.0019  0.1340 -0.3051
  937loPI   C1B13303   8.834   2.672   6.871  0.0402  0.2543  0.0548
  937loPI   C2B13304   8.752   2.670   7.280 -0.1184 -0.0016  0.2496
  937loPI   C3B13305   8.639   2.950   7.616 -0.0464 -0.0307  0.1990
  937loPI   C4B13306   8.614   2.814   8.093 -0.0737  0.0800  0.2273
  938loPI    C113307   8.233   9.214   5.789  0.2931 -0.2117 -0.2237
  938loPI    C213308   7.938   9.297   5.532 -0.0453 -0.0444  0.2048
  938loPI    C313309   8.236   9.559   5.586 -0.0066 -0.0517  0.0343
  938loPI   PO413310   8.272   8.946   5.795 -0.0511  0.0233 -0.3217
  938loPI   GL113311   8.232   8.703   6.115 -0.0699 -0.0630 -0.0795
  938loPI   GL213312   7.938   8.627   6.028  0.0129 -0.1285 -0.3161
  938loPI   C1A13313   7.997   9.070   6.366  0.0061  0.0891  0.1708
  938loPI   C2A13314   8.056   8.993   6.900  0.1981 -0.1527  0.3381
  938loPI   C3A13315   7.973   8.964   7.304  0.0120  0.1765 -0.0193
  938loPI   C4A13316   7.893   9.123   7.649  0.0672  0.0988  0.1836
  938loPI   C5A13317   7.393   9.059   7.913  0.1600  0.0312  0.1278
  938loPI   C6A13318   6.913   8.815   7.866  0.0223 -0.2147  0.0745
  938loPI   C1B13319   8.002   8.497   6.468  0.1304  0.1265  0.0390
  938loPI   C2B13320   8.205   8.474   6.898  0.1748  0.1225 -0.0795
  938loPI   C3B13321   8.588   8.292   6.892 -0.0338 -0.2645 -0.1754
  938loPI   C4B13322   9.049   8.100   6.973 -0.0531 -0.0715  0.1328
  939loPI    C113323  12.197   3.326   5.383  0.1022  0.0056  0.1528
  939loPI    C213324  12.015   3.632   5.566 -0.0840  0.1318 -0.2321
  939loPI    C313325  11.998   3.598   5.168  0.3346 -0.1230 -0.2349
  939loPI   PO413326  12.514   3.363   5.622  0.0128  0.1135  0.1040
  939loPI   GL113327  12.400   3.246   6.052 -0.0050 -0.1840 -0.2159
  939loPI   GL213328  12.169   3.357   6.069 -0.1796  0.2753  0.0065
  939loPI   C1A13329  12.562   3.222   6.493 -0.1069 -0.0819  0.1630
  939loPI   C2A13330  12.747   3.366   6.932  0.1594 -0.3018 -0.2220
  939loPI   C3A13331  13.053   3.414   7.214  0.2012  0.3570  0.1612
  939loPI   C4A13332  12.947   3.670   7.570 -0.0109  0.2893 -0.0901
  939loPI   C5A13333  12.501   3.891   7.691 -0.3691 -0.1042  0.2184
  939loPI   C6A13334  12.174   3.821   8.011  0.2049 -0.2550  0.0400
  939loPI   C1B13335  12.151   3.455   6.457 -0.0303  0.1008  0.0074
  939loPI   C2B13336  12.308   3.518   6.757 -0.0519 -0.0936  0.1274
  939loPI   C3B13337  12.493   3.728   7.200 -0.4581 -0.1685 -0.1565
  939loPI   C4B13338  12.639   4.052   7.240 -0.1727  0.0341 -0.0524
  940loPI    C113339   1.072   5.137   5.465 -0.1516  0.1435 -0.1651
  940loPI    C213340   0.897   5.144   5.105  0.0079  0.3215 -0.2410
  940loPI    C313341   1.295   5.113   5.134 -0.0333 -0.1254 -0.0686
  940loPI   PO413342   0.974   5.263   5.709 -0.1203 -0.0582  0.1126
  940loPI   GL113343   0.895   5.347   6.105  0.1011 -0.0925 -0.3712
  940loPI   GL213344   0.745   4.983   6.071 -0.0852  0.0111 -0.0659
  940loPI   C1A13345   0.956   5.318   6.456  0.0765 -0.0203  0.1544
  940loPI   C2A13346   0.791   5.367   6.785  0.2753  0.0716  0.2663
  940loPI   C3A13347   0.745   5.346   7.174  0.0265  0.3493 -0.2066
  940loPI   C4A13348   0.594   5.392   7.488  0.0875  0.1143  0.1491
  940loPI   C5A13349   0.628   5.299   7.955 -0.0909  0.0375  0.1646
  940loPI   C6A13350   0.477   5.296   8.351  0.0398  0.0247 -0.0589
  940loPI   C1B13351   0.462   4.923   6.484  0.0568  0.1963  0.3872
  940loPI   C2B13352   0.449   4.904   6.911 -0.2148  0.2144  0.2567
  940loPI   C3B13353   0.519   4.896   7.344  0.0686  0.0469 -0.0480
  940loPI   C4B13354   0.331   4.985   7.778 -0.0359  0.1027 -0.1763
  941loPI    C113355   4.827   1.122   5.309 -0.0097 -0.0552 -0.0324
  941loPI    C213356   4.635   0.797   5.441 -0.0118 -0.0535 -0.0311
  941loPI    C313357   4.457   1.042   5.179 -0.0046 -0.0612 -0.0434
  941loPI   PO413358   4.830   1.304   5.502 -0.2308  0.2548  0.1965
  941loPI   GL113359   4.895   1.326   6.050 -0.0294 -0.0088  0.4818
  941loPI   GL213360   5.036   1.617   6.235 -0.0438 -0.1506  0.1380
  941loPI   C1A13361   4.742   1.289   6.511  0.4458  0.1348  0.1799
  941loPI   C2A13362   4.643   1.224   6.968  0.1949  0.0562 -0.4833
  941loPI   C3A13363   4.856   1.376   7.363  0.1082  0.2500  0.0541
  941loPI   C4A13364   4.923   1.272   7.729  0.2122  0.0907 -0.0773
  941loPI   C5A13365   4.989   0.946   8.043 -0.4822 -0.4168 -0.0026
  941loPI   C6A13366   4.890   0.616   8.371  0.0779 -0.1368 -0.0223
  941loPI   C1B13367   4.980   1.674   6.681  0.0367  0.2665  0.2461
  941loPI   C2B13368   5.032   1.806   7.102  0.0819  0.0478 -0.0038
  941loPI   C3B13369   4.881   1.822   7.529  0.0722 -0.1477 -0.0673
  941loPI   C4B13370   4.962   1.794   7.986  0.0488  0.1700  0.0452
  942loPI    C113371  13.542  15.261   5.761 -0.1736  0.0302 -0.2559
  942loPI    C213372  13.754  15.051   5.494  0.1771 -0.0103  0.0477
  942loPI    C313373  13.903  15.389   5.647 -0.0679  0.0700  0.1139
  942loPI   PO413374  13.451  15.243   6.018 -0.0022  0.2001 -0.1377
  942loPI   GL113375  13.219  14.908   6.248  0.1484  0.2160  0.1442
  942loPI   GL213376  13.061  15.145   6.451  0.2929  0.2536  0.0556
  942loPI   C1A13377  13.263  14.505   6.571  0.1042 -0.0808  0.3500
  942loPI   C2A13378  13.279  14.580   6.984 -0.0555 -0.3398 -0.0426
  942loPI   C3A13379  13.593  14.574   7.385 -0.3059  0.1531  0.3440
  942loPI   C4A13380  13.443  14.395   7.820 -0.1585  0.0805 -0.4250
  942loPI   C5A13381  13.414  14.012   8.151 -0.2445 -0.2006 -0.1291
  942loPI   C6A13382  13.357  13.556   8.018  0.1715  0.1533 -0.0833
  942loPI   C1B13383  12.891  15.339   6.939 -0.1109  0.4580  0.2881
  942loPI   C2B13384  12.747  15.596   7.234  0.1434 -0.0768  0.0266
  942loPI   C3B13385  12.372  15.625   7.421 -0.0291  0.0654  0.0707
  942loPI   C4B13386  11.955  15.464   7.390 -0.0049 -0.0363  0.0360
  943loPI    C113387  12.138   1.619   5.631 -0.1264  0.2152  0.0693
  943loPI    C213388  12.086   2.007   5.548 -0.0596  0.1645 -0.2195
  943loPI    C313389  12.192   1.752   5.258  0.1177 -0.0312  0.0130
  943loPI   PO413390  12.268   1.660   5.894  0.1846  0.2234  0.0436
  943loPI   GL113391  12.462   1.750   6.234  0.0286  0.0452  0.1470
  943loPI   GL213392  12.466   1.425   6.330  0.0723 -0.1128  0.0720
  943loPI   C1A13393  12.756   1.924   6.519  0.0902  0.2474  0.0216
  943loPI   C2A13394  13.106   2.074   6.801 -0.3796  0.1060  0.1463
  943loPI   C3A13395  13.401   2.037   7.128 -0.0323  0.0444  0.0870
  943loPI   C4A13396  13.345   2.065   7.617 -0.1661 -0.1201  0.1210
  943loPI   C5A13397  12.967   2.003   7.836  0.1415 -0.0168 -0.0593
  943loPI   C6A13398  12.626   1.809   7.741  0.1634  0.1533  0.2745
  943loPI   C1B13399  12.296   1.715   6.720  0.4202 -0.2719 -0.1615
  943loPI   C2B13400  12.378   1.693   7.074  0.1274  0.2597 -0.2121
  943loPI   C3B13401  12.187   1.707   7.371  0.1235 -0.1951 -0.2334
  943loPI   C4B13402  12.105   1.922   7.664  0.1180 -0.2434  0.3112
  944loPI    C113403   1.694  14.540   5.738  0.2212 -0.0930  0.1995
  944loPI    C213404   1.988  14.310   5.595  0.1996 -0.0671  0.1133
  944loPI    C313405   1.658  14.371   5.377  0.1611 -0.0383  0.1797
  944loPI   PO413406   1.921  14.707   5.960 -0.0688  0.0968  0.1131
  944loPI   GL113407   1.845  14.894   6.325  0.0669  0.0828 -0.2408
  944loPI   GL213408   2.023  15.168   6.443 -0.0354 -0.1363 -0.2767
  944loPI   C1A13409   1.755  14.860   6.749 -0.1412  0.2764  0.1351
  944loPI   C2A13410   1.847  14.821   7.130  0.1087 -0.0572 -0.0297
  944loPI   C3A13411   1.972  14.799   7.445  0.2168  0.3918  0.1867
  944loPI   C4A13412   1.832  14.734   7.849 -0.1718  0.1377 -0.1578
  944loPI   C5A13413   2.139  14.802   8.125  0.1424  0.1673 -0.3796
  944loPI   C6A13414   2.628  14.832   8.188  0.2378 -0.0155 -0.0997
  944loPI   C1B13415   1.947  15.366   6.755 -0.0296  0.1540 -0.0388
  944loPI   C2B13416   2.046  15.414   7.100  0.2021 -0.0196 -0.1263
  944loPI   C3B13417   2.206  15.225   7.505 -0.0738  0.0011  0.1076
  944loPI   C4B13418   2.462  15.147   7.888  0.1931  0.1026  0.0053
  945loPI    C113419   5.560  14.250   5.791  0.0406 -0.1263 -0.1501
  945loPI    C213420   5.762  14.446   5.507  0.2020 -0.1150 -0.0291
  945loPI    C313421   5.561  14.113   5.416 -0.1066  0.1241 -0.2446
  945loPI   PO413422   5.717  14.241   6.068  0.0764  0.1843  0.2038
  945loPI   GL113423   5.558  14.087   6.468 -0.0479  0.1865  0.4905
  945loPI   GL213424   5.323  14.143   6.603 -0.0048 -0.2707  0.1281
  945loPI   C1A13425   5.700  13.759   6.682  0.1685 -0.0866 -0.0083
  945loPI   C2A13426   5.718  13.543   7.106  0.1427 -0.1860  0.2247
  945loPI   C3A13427   5.595  13.218   7.408 -0.2126  0.1354 -0.4008
  945loPI   C4A13428   5.494  12.858   7.624  0.2946 -0.1709 -0.0189
  945loPI   C5A13429   5.565  12.643   8.021 -0.1862 -0.0423 -0.1130
  945loPI   C6A13430   5.714  12.421   8.453 -0.2038 -0.1250 -0.0700
  945loPI   C1B13431   5.410  14.262   6.994  0.1054  0.0615  0.3947
  945loPI   C2B13432   5.323  14.418   7.502 -0.2486 -0.1992  0.0210
  945loPI   C3B13433   5.285  14.575   7.863 -0.3092  0.0425  0.0925
  945loPI   C4B13434   5.038  14.489   8.209 -0.1045 -0.2324  0.0527
  946loPI    C113435  16.853  17.527   6.058 -0.2439  0.1234 -0.0475
  946loPI    C213436  16.462  17.482   6.127 -0.2101 -0.0651  0.0282
  946loPI    C313437  16.673  17.180   5.973 -0.0654 -0.0132  0.1239
  946loPI   PO413438  16.899  17.845   5.909  0.4500  0.0882  0.0011
  946loPI   GL113439  16.730  18.124   6.097 -0.0957 -0.1448  0.2468
  946loPI   GL213440  16.649  17.948   6.371 -0.0633  0.2674 -0.2295
  946loPI   C1A13441  16.581  18.536   6.155  0.4893  0.1552  0.2091
  946loPI   C2A13442  16.208  18.652   6.274 -0.0859  0.1985 -0.0397
  946loPI   C3A13443  16.086  18.564   6.691 -0.0291 -0.1504 -0.1289
  946loPI   C4A13444  16.024  18.461   7.140  0.1088 -0.2772  0.2416
  946loPI   C5A13445  15.731  18.361   7.533 -0.2791  0.1259 -0.1308
  946loPI   C6A13446  15.305  18.453   7.657  0.3637  0.1485  0.0462
  946loPI   C1B13447  16.750  18.077   6.811  0.1111 -0.0523  0.1617
  946loPI   C2B13448  17.081  18.061   7.057 -0.0597 -0.1429  0.2068
  946loPI   C3B13449  17.321  17.989   7.443  0.2296 -0.0458  0.3170
  946loPI   C4B13450  17.212  18.156   7.883  0.0456  0.1086  0.3273
  947loPI    C113451  14.757  13.004   5.600 -0.1275 -0.0930 -0.0649
  947loPI    C213452  14.689  12.867   5.230 -0.0200 -0.1384 -0.0681
  947loPI    C313453  14.709  13.261   5.297 -0.0576 -0.1297 -0.1073
  947loPI   PO413454  14.847  12.754   5.743  0.0751 -0.2062  0.4112
  947loPI   GL113455  14.802  12.622   6.234 -0.1157 -0.0049 -0.0362
  947loPI   GL213456  14.502  12.839   6.109 -0.2330 -0.2591  0.2164
  947loPI   C1A13457  14.711  12.719   6.608  0.1980  0.1829  0.1535
  947loPI   C2A13458  14.415  12.709   7.019 -0.3727  0.0104  0.0107
  947loPI   C3A13459  14.265  13.051   7.356 -0.1730 -0.0573  0.1698
  947loPI   C4A13460  14.324  13.064   7.796 -0.4853 -0.1546 -0.3802
  947loPI   C5A13461  14.258  13.310   8.135  0.2741  0.2020 -0.1675
  947loPI   C6A13462  14.241  13.557   8.459 -0.0512  0.1095 -0.0161
  947loPI   C1B13463  14.413  13.045   6.488 -0.0904  0.1473  0.3723
  947loPI   C2B13464  14.344  13.295   6.869 -0.1152 -0.3635  0.2021
  947loPI   C3B13465  14.169  13.530   7.148  0.0507  0.0819 -0.1910
  947loPI   C4B13466  14.229  13.516   7.574 -0.3062  0.2722 -0.1699
  948loPI    C113467  11.242   7.770   5.374  0.2920 -0.0083 -0.1001
  948loPI    C213468  11.320   8.160   5.419 -0.0931  0.0544  0.0614
  948loPI    C313469  11.114   8.032   5.100 -0.1282  0.0068  0.1031
  948loPI   PO413470  11.125   7.643   5.655  0.0392  0.1480  0.1872
  948loPI   GL113471  10.966   7.629   6.149  0.0088 -0.0172  0.0325
  948loPI   GL213472  11.321   7.359   6.210  0.0750 -0.2012  0.1705
  948loPI   C1A13473  10.911   7.458   6.527 -0.1924  0.0659  0.4314
  948loPI   C2A13474  10.845   7.343   7.017  0.3870  0.0403 -0.1584
  948loPI   C3A13475  10.811   7.431   7.507 -0.2117 -0.1119 -0.3752
  948loPI   C4A13476  10.842   7.285   7.922 -0.2680  0.2809 -0.3236
  948loPI   C5A13477  10.744   6.922   8.209  0.2659 -0.2590  0.1072
  948loPI   C6A13478  10.475   6.608   8.157 -0.1332  0.0869 -0.2473
  948loPI   C1B13479  11.405   7.525   6.557  0.2623 -0.2339 -0.4639
  948loPI   C2B13480  11.313   7.489   6.907  0.1827  0.0472  0.1776
  948loPI   C3B13481  11.251   7.340   7.308  0.4409  0.2667 -0.0013
  948loPI   C4B13482  11.331   7.161   7.834 -0.0232  0.2135  0.0943
  949loPI    C113483   5.741   5.805   5.388  0.0850 -0.0233  0.0594
  949loPI    C213484   5.772   5.422   5.501  0.2000 -0.0511 -0.0641
  949loPI    C313485   5.523   5.524   5.205  0.1959 -0.0354 -0.0553
  949loPI   PO413486   5.615   6.090   5.593 -0.2895  0.1560 -0.1321
  949loPI   GL113487   5.796   6.186   5.952  0.0394 -0.0500 -0.3426
  949loPI   GL213488   5.642   6.411   6.201 -0.1298  0.0880 -0.5215
  949loPI   C1A13489   6.073   6.151   6.287 -0.1053  0.0400  0.2459
  949loPI   C2A13490   6.315   6.079   6.560  0.0494  0.0436 -0.2550
  949loPI   C3A13491   6.220   6.070   6.957  0.1524 -0.2535 -0.0979
  949loPI   C4A13492   6.158   6.331   7.351 -0.0937 -0.0036 -0.3524
  949loPI   C5A13493   6.133   6.696   7.568 -0.0573 -0.1260  0.1384
  949loPI   C6A13494   6.202   6.613   8.021  0.2057  0.0304  0.1096
  949loPI   C1B13495   5.773   6.233   6.619 -0.2760 -0.0297 -0.2779
  949loPI   C2B13496   5.786   6.268   7.029  0.0206  0.0258  0.2033
  949loPI   C3B13497   5.601   6.280   7.412  0.1594 -0.3012 -0.2658
  949loPI   C4B13498   5.807   6.419   7.829 -0.2173  0.0624  0.1172
  950loPI    C113499  11.279  10.875   5.754  0.1314 -0.1899  0.1078
  950loPI    C213500  11.201  10.656   5.429 -0.2768  0.0864  0.0104
  950loPI    C313501  11.519  10.899   5.435 -0.1944 -0.0161 -0.1304
  950loPI   PO413502  11.246  10.689   6.018 -0.2003 -0.0413  0.2074
  950loPI   GL113503  11.109  10.597   6.368 -0.1871  0.1046  0.0219
  950loPI   GL213504  11.129  10.219   6.231 -0.3985 -0.0365  0.1770
  950loPI   C1A13505  11.255  10.829   6.711 -0.1092  0.1526  0.0984
  950loPI   C2A13506  11.341  10.869   7.047 -0.0735  0.3697  0.2730
  950loPI   C3A13507  11.291  10.846   7.486  0.1412  0.0045 -0.2796
  950loPI   C4A13508  11.242  10.625   7.909  0.0814 -0.2613  0.1533
  950loPI   C5A13509  10.987  10.689   8.205 -0.1828 -0.0335  0.3289
  950loPI   C6A13510  10.587  10.746   8.182  0.0579 -0.1339 -0.2688
  950loPI   C1B13511  11.444  10.301   6.591 -0.3993 -0.1825  0.2484
  950loPI   C2B13512  11.420  10.344   7.032  0.1749 -0.0689 -0.1128
  950loPI   C3B13513  11.472  10.361   7.481 -0.0154 -0.0833 -0.1285
  950loPI   C4B13514  11.448  10.099   7.824  0.2251 -0.2830 -0.2550
  951loPI    C113515   5.572   6.551   5.658  0.3173 -0.1185  0.1236
  951loPI    C213516   5.526   6.515   5.263 -0.0290 -0.1493  0.1640
  951loPI    C313517   5.889   6.474   5.426  0.2148  0.4084 -0.2077
  951loPI   PO413518   5.547   6.707   5.788  0.1643 -0.1852  0.1557
  951loPI   GL113519   5.673   6.842   6.061  0.2992  0.0982  0.1668
  951loPI   GL213520   5.780   7.148   6.072 -0.1408  0.0908 -0.0459
  951loPI   C1A13521   5.543   6.919   6.394  0.6729  0.0177 -0.2399
  951loPI   C2A13522   5.539   6.891   6.843  0.0855  0.1744  0.2472
  951loPI   C3A13523   5.116   7.062   7.093 -0.0755 -0.0089  0.1506
  951loPI   C4A13524   5.067   7.133   7.387 -0.2318 -0.1594 -0.1708
  951loPI   C5A13525   4.856   7.001   7.786  0.0186  0.0703  0.3357
  951loPI   C6A13526   4.812   7.374   8.028  0.1598 -0.0128  0.1625
  951loPI   C1B13527   5.873   7.307   6.498  0.0312 -0.4033  0.0499
  951loPI   C2B13528   5.988   7.203   6.959 -0.3169 -0.1980 -0.1861
  951loPI   C3B13529   6.055   7.219   7.403 -0.0392  0.0134  0.2615
  951loPI   C4B13530   5.921   6.987   7.897  0.1255  0.1594  0.0944
  952loPI    C113531   2.186  16.270   5.657 -0.0749 -0.0660  0.3797
  952loPI    C213532   1.926  16.459   5.420  0.1608 -0.0598  0.1212
  952loPI    C313533   1.886  16.067   5.486  0.0998 -0.0638  0.0632
  952loPI   PO413534   2.186  16.432   5.875  0.1123  0.1376 -0.1306
  952loPI   GL113535   2.394  16.525   6.215  0.1077  0.2684 -0.2122
  952loPI   GL213536   2.612  16.680   6.208 -0.0211 -0.1123  0.2002
  952loPI   C1A13537   2.373  16.458   6.612 -0.0861 -0.0397  0.0886
  952loPI   C2A13538   2.315  16.365   6.978  0.2552 -0.0047  0.0570
  952loPI   C3A13539   2.458  16.245   7.324  0.1879  0.3734 -0.1228
  952loPI   C4A13540   2.350  16.061   7.787  0.0899  0.3342  0.2496
  952loPI   C5A13541   1.978  16.264   7.898  0.2230 -0.2545 -0.0314
  952loPI   C6A13542   1.785  16.705   7.949 -0.3715  0.1152 -0.2538
  952loPI   C1B13543   2.557  16.928   6.507 -0.0061  0.3693 -0.1883
  952loPI   C2B13544   2.549  17.065   7.005 -0.1355  0.2642 -0.1525
  952loPI   C3B13545   2.554  17.021   7.489 -0.1113 -0.0139 -0.2166
  952loPI   C4B13546   2.646  16.937   7.968 -0.2336  0.0927 -0.1589
  953loPI    C113547  14.359   7.761   5.699 -0.0021  0.0959  0.2458
  953loPI    C213548  14.662   7.534   5.828  0.0366 -0.0978 -0.1689
  953loPI    C313549  14.735   7.858   5.604 -0.0527 -0.0182 -0.0842
  953loPI   PO413550  14.192   7.745   5.866 -0.1235  0.0275 -0.1011
  953loPI   GL113551  14.304   7.959   6.226  0.2691  0.0629  0.3167
  953loPI   GL213552  13.976   7.836   6.310  0.0166 -0.2491 -0.0430
  953loPI   C1A13553  14.463   7.612   6.554 -0.2706  0.1697 -0.2406
  953loPI   C2A13554  14.429   7.292   6.767  0.2620 -0.1153 -0.3204
  953loPI   C3A13555  14.439   7.302   7.216 -0.0868 -0.0842 -0.0568
  953loPI   C4A13556  14.376   7.243   7.661  0.0163 -0.1282 -0.0403
  953loPI   C5A13557  14.611   7.275   8.050  0.2907  0.2297  0.0729
  953loPI   C6A13558  14.768   7.465   8.411  0.3012 -0.2271  0.2116
  953loPI   C1B13559  14.098   7.916   6.717  0.2126 -0.0273  0.0869
  953loPI   C2B13560  14.236   7.782   7.117 -0.1930 -0.1526 -0.1187
  953loPI   C3B13561  14.228   7.741   7.534 -0.0653  0.1073 -0.1704
  953loPI   C4B13562  14.484   7.748   7.980  0.1505 -0.2216 -0.3547
  954loPI    C113563   8.466   1.013   5.818  0.0400 -0.1080 -0.0029
  954loPI    C213564   8.328   1.042   5.444 -0.2207 -0.0577  0.0954
  954loPI    C313565   8.511   1.354   5.614  0.0273 -0.1275 -0.0384
  954loPI   PO413566   8.231   1.020   6.000 -0.0897 -0.0329  0.2079
  954loPI   GL113567   8.303   0.980   6.498  0.0278  0.0505 -0.3659
  954loPI   GL213568   8.647   1.103   6.510  0.2097 -0.0373 -0.0292
  954loPI   C1A13569   8.202   1.023   6.973  0.0433 -0.2031  0.2290
  954loPI   C2A13570   8.279   1.005   7.319 -0.1867  0.0215 -0.2046
  954loPI   C3A13571   8.223   0.673   7.589 -0.0735 -0.1967  0.2399
  954loPI   C4A13572   8.306   0.325   7.782 -0.2552  0.1658 -0.2366
  954loPI   C5A13573   8.055  -0.064   7.918 -0.2985 -0.0634  0.0553
  954loPI   C6A13574   7.876  -0.275   8.220 -0.5289  0.1852  0.0311
  954loPI   C1B13575   8.683   1.107   6.909 -0.2516 -0.0622  0.0288
  954loPI   C2B13576   8.711   0.806   7.140 -0.0011 -0.0435 -0.1357
  954loPI   C3B13577   8.692   0.857   7.548 -0.0827 -0.0258 -0.1043
  954loPI   C4B13578   8.655   0.629   7.910  0.1325 -0.1056 -0.1087
  955loPI    C113579   1.033   7.176   5.535  0.1617 -0.0387 -0.3153
  955loPI    C213580   0.749   7.457   5.508 -0.0770 -0.2414  0.0092
  955loPI    C313581   0.727   7.128   5.281  0.0265 -0.1501 -0.1344
  955loPI   PO413582   1.142   7.172   5.883 -0.3265  0.1931  0.0946
  955loPI   GL113583   1.243   7.282   6.367  0.0162 -0.1766  0.2000
  955loPI   GL213584   1.245   6.959   6.345  0.2892  0.0262  0.1069
  955loPI   C1A13585   1.206   7.259   6.813 -0.1661 -0.2256  0.0361
  955loPI   C2A13586   1.451   7.120   7.104  0.1413  0.1539 -0.0514
  955loPI   C3A13587   1.808   7.276   7.303 -0.1441  0.1861 -0.4838
  955loPI   C4A13588   2.160   7.471   7.396 -0.1443 -0.1605 -0.3868
  955loPI   C5A13589   2.237   7.498   7.891 -0.2009  0.3395  0.1886
  955loPI   C6A13590   2.246   7.345   8.341  0.0934 -0.0449  0.0315
  955loPI   C1B13591   1.517   6.671   6.610 -0.2977  0.0743 -0.3093
  955loPI   C2B13592   1.602   6.643   7.074  0.0942  0.2247 -0.0173
  955loPI   C3B13593   1.565   6.671   7.565  0.1612  0.1467  0.3695
  955loPI   C4B13594   1.498   6.875   8.026  0.2988  0.1243  0.1445
  956loPI    C113595   6.893  10.138   5.395  0.0934  0.0432  0.1685
  956loPI    C213596   7.058  10.387   5.130  0.1863 -0.0076  0.1783
  956loPI    C313597   7.189  10.010   5.159 -0.0711 -0.1103  0.0417
  956loPI   PO413598   6.732  10.371   5.599 -0.1605 -0.1666  0.0042
  956loPI   GL113599   6.748  10.633   5.884 -0.1558  0.0686 -0.1823
  956loPI   GL213600   6.523  10.879   5.962  0.1894 -0.0963  0.2846
  956loPI   C1A13601   6.800  10.780   6.376  0.2689  0.1221 -0.0297
  956loPI   C2A13602   6.804  10.573   6.772 -0.1251 -0.1853  0.3608
  956loPI   C3A13603   7.016  10.774   7.087  0.0486  0.1454 -0.0135
  956loPI   C4A13604   7.277  10.543   7.449  0.0415 -0.0719  0.0764
  956loPI   C5A13605   7.631  10.480   7.504 -0.0867  0.1071  0.0251
  956loPI   C6A13606   7.868  10.751   7.602  0.0344 -0.1016  0.1803
  956loPI   C1B13607   6.480  10.416   6.244 -0.0298 -0.4718 -0.2008
  956loPI   C2B13608   6.400  10.260   6.616  0.0908 -0.0420  0.1027
  956loPI   C3B13609   6.524  10.209   6.968  0.0756 -0.1011 -0.0535
  956loPI   C4B13610   6.890  10.272   7.225  0.0895  0.0144  0.1149
  957loPI    C113611   1.696   6.369   5.791 -0.2920  0.0324 -0.0679
  957loPI    C213612   1.857   6.222   5.456  0.0945 -0.0265  0.1376
  957loPI    C313613   1.565   6.494   5.435  0.0384 -0.1108 -0.2445
  957loPI   PO413614   1.678   6.110   5.920  0.2979 -0.0945 -0.1987
  957loPI   GL113615   1.647   6.201   6.391  0.0471  0.0154  0.0080
  957loPI   GL213616   1.973   6.085   6.448 -0.2373  0.1059 -0.0453
  957loPI   C1A13617   1.430   6.258   6.793 -0.0164  0.1261 -0.0525
  957loPI   C2A13618   1.282   6.108   7.270  0.0572  0.0269 -0.0981
  957loPI   C3A13619   1.393   5.985   7.708  0.0811 -0.1741 -0.1328
  957loPI   C4A13620   1.592   6.308   7.967 -0.3126  0.0016  0.2878
  957loPI   C5A13621   1.620   6.533   8.398 -0.1446 -0.0979  0.0090
  957loPI   C6A13622   1.879   6.954   8.547  0.0022  0.1837  0.2561
  957loPI   C1B13623   1.927   6.286   6.804  0.3485  0.1783 -0.2804
  957loPI   C2B13624   1.826   6.265   7.326  0.0937 -0.2199  0.0915
  957loPI   C3B13625   1.972   6.464   7.646 -0.1270  0.1417  0.0262
  957loPI   C4B13626   2.010   6.654   8.027  0.0274 -0.0527  0.1593
  958loPI    C113627   1.772  13.515   5.574  0.0775 -0.1137  0.1824
  958loPI    C213628   1.587  13.869   5.583  0.1327 -0.0832  0.1325
  958loPI    C313629   1.377  13.535   5.515  0.1568 -0.0040 -0.3698
  958loPI   PO413630   1.849  13.395   5.822 -0.4770  0.0744  0.0168
  958loPI   GL113631   1.832  13.417   6.255 -0.0064  0.0851 -0.2668
  958loPI   GL213632   2.228  13.511   6.158 -0.0808 -0.1607 -0.2566
  958loPI   C1A13633   1.737  13.463   6.645  0.0575 -0.0472 -0.3021
  958loPI   C2A13634   1.497  13.425   7.068  0.2127  0.2479 -0.0311
  958loPI   C3A13635   1.251  13.237   7.357 -0.0714  0.2611 -0.0248
  958loPI   C4A13636   1.133  13.194   7.719  0.3188  0.0706 -0.0367
  958loPI   C5A13637   1.409  13.149   8.047 -0.0278 -0.0682  0.0925
  958loPI   C6A13638   1.575  13.247   8.386  0.0358 -0.0931 -0.0323
  958loPI   C1B13639   2.230  13.515   6.513  0.1945 -0.3003 -0.1916
  958loPI   C2B13640   2.151  13.459   6.896  0.4209  0.1304 -0.3267
  958loPI   C3B13641   1.985  13.279   7.266 -0.0139  0.0011 -0.2124
  958loPI   C4B13642   1.651  13.142   7.613  0.0012 -0.2522 -0.1213
  959loPI    C113643  17.213   4.121   5.607  0.3575  0.1408 -0.0489
  959loPI    C213644  17.097   4.503   5.586 -0.0319  0.0397  0.1586
  959loPI    C313645  16.918   4.227   5.359  0.0268 -0.0695  0.2438
  959loPI   PO413646  17.222   4.070   5.804 -0.1960 -0.0305 -0.0365
  959loPI   GL113647  17.074   4.110   6.209 -0.0242 -0.0557  0.1255
  959loPI   GL213648  17.070   3.900   6.435 -0.0729 -0.0212 -0.2611
  959loPI   C1A13649  16.799   4.285   6.464  0.1901  0.0822 -0.1740
  959loPI   C2A13650  16.800   4.233   6.808  0.3144  0.1830 -0.2523
  959loPI   C3A13651  16.900   4.219   7.221  0.1011  0.1538 -0.1732
  959loPI   C4A13652  16.855   4.034   7.567 -0.1228 -0.3360  0.2417
  959loPI   C5A13653  16.771   3.737   7.837 -0.2142 -0.3395 -0.0101
  959loPI   C6A13654  16.802   3.909   8.304 -0.0611  0.3088 -0.2295
  959loPI   C1B13655  17.167   3.844   6.789  0.2192 -0.1490  0.2922
  959loPI   C2B13656  17.154   3.784   7.246  0.1372 -0.2222  0.0835
  959loPI   C3B13657  17.296   3.668   7.655 -0.0631  0.0431 -0.1044
  959loPI   C4B13658  17.396   3.193   7.677 -0.1163  0.0508  0.0428
  960loPI    C113659  16.335  13.662   5.901  0.1398  0.1330  0.2303
  960loPI    C213660  16.451  13.460   5.576  0.0142  0.0867  0.2137
  960loPI    C313661  16.724  13.596   5.835  0.1206  0.2005  0.0436
  960loPI   PO413662  16.004  13.611   5.818 -0.0794  0.0863  0.0154
  960loPI   GL113663  15.775  13.642   6.254  0.4302 -0.2168  0.2418
  960loPI   GL213664  16.036  13.869   6.234 -0.0363  0.2774  0.2644
  960loPI   C1A13665  15.601  13.885   6.543 -0.1948 -0.1728  0.1026
  960loPI   C2A13666  15.614  13.834   6.994 -0.0453  0.0966  0.4910
  960loPI   C3A13667  15.550  13.863   7.408  0.1117  0.2542 -0.0698
  960loPI   C4A13668  15.561  13.685   7.849 -0.0506  0.2004  0.1044
  960loPI   C5A13669  15.624  13.854   8.247  0.2935  0.1224  0.1162
  960loPI   C6A13670  15.855  14.078   8.539 -0.1044  0.0888 -0.1711
  960loPI   C1B13671  16.440  13.818   6.483 -0.1397  0.0356 -0.1073
  960loPI   C2B13672  16.624  13.896   6.876  0.1490  0.0849 -0.1364
  960loPI   C3B13673  16.608  13.899   7.337  0.2818 -0.0325 -0.1569
  960loPI   C4B13674  16.459  14.092   7.725 -0.2467 -0.2101  0.2226
  961loPI    C113675   0.316  17.816   5.896  0.1615 -0.1301 -0.0855
  961loPI    C213676   0.072  17.863   5.583  0.0519  0.0109  0.0195
  961loPI    C313677   0.399  17.634   5.550 -0.0380 -0.0948 -0.1528
  961loPI   PO413678   0.463  18.010   6.007  0.2258  0.2232  0.1848
  961loPI   GL113679   0.810  18.160   6.077  0.1100  0.0893  0.0513
  961loPI   GL213680   1.109  18.399   6.267  0.3383 -0.0290 -0.1629
  961loPI   C1A13681   0.859  18.187   6.572 -0.1257  0.2645 -0.3130
  961loPI   C2A13682   0.745  18.419   6.895 -0.2569  0.1252 -0.0287
  961loPI   C3A13683   0.495  18.412   7.140 -0.0612  0.2734 -0.1231
  961loPI   C4A13684   0.435  18.577   7.480 -0.0252 -0.1604  0.2293
  961loPI   C5A13685   0.414  18.812   7.862  0.2528  0.1573 -0.0684
  961loPI   C6A13686   0.650  19.198   8.078  0.0974  0.2006  0.3805
  961loPI   C1B13687   1.157  18.575   6.625 -0.1124  0.0646 -0.3129
  961loPI   C2B13688   1.167  18.521   7.087 -0.0519  0.0651 -0.0205
  961loPI   C3B13689   1.160  18.492   7.489  0.1579  0.3843 -0.1673
  961loPI   C4B13690   1.303  18.758   7.860 -0.0180 -0.1403  0.2230
  962loPI    C113691  16.715   3.018   5.767  0.0749  0.0372 -0.0508
  962loPI    C213692  16.924   2.702   5.638 -0.0272 -0.0678  0.0378
  962loPI    C313693  16.958   3.055   5.451  0.0799 -0.1331 -0.0678
  962loPI   PO413694  16.547   2.983   5.858 -0.0471  0.3127  0.2446
  962loPI   GL113695  16.601   2.905   6.268  0.0400 -0.0345  0.0095
  962loPI   GL213696  16.683   3.022   6.622  0.2176 -0.0388  0.1561
  962loPI   C1A13697  16.760   2.590   6.431 -0.1802 -0.0338  0.1937
  962loPI   C2A13698  16.799   2.522   6.814  0.1836  0.1109 -0.0425
  962loPI   C3A13699  16.728   2.487   7.246 -0.0157  0.2713 -0.0735
  962loPI   C4A13700  16.428   2.488   7.536  0.2679 -0.1061 -0.1849
  962loPI   C5A13701  16.294   2.805   7.799  0.4116 -0.2268 -0.1204
  962loPI   C6A13702  16.412   2.950   8.151  0.4126 -0.1443  0.1931
  962loPI   C1B13703  16.691   2.967   7.058  0.1810  0.3003 -0.1465
  962loPI   C2B13704  16.612   2.964   7.461  0.0905 -0.0541  0.3464
  962loPI   C3B13705  16.887   2.720   7.728  0.0245 -0.0403  0.2719
  962loPI   C4B13706  16.790   2.427   8.103 -0.0222  0.2706  0.0840
  963loPI    C113707  13.043   9.353   5.614 -0.0899  0.2248 -0.0217
  963loPI    C213708  12.884   9.556   5.308 -0.0009  0.0405 -0.1930
  963loPI    C313709  13.280   9.501   5.327 -0.0099  0.0157 -0.0655
  963loPI   PO413710  13.030   9.469   5.895 -0.0005 -0.1060 -0.3140
  963loPI   GL113711  13.159   9.300   6.187  0.1656 -0.0756  0.0809
  963loPI   GL213712  13.503   9.320   6.297 -0.1101 -0.1011 -0.4253
  963loPI   C1A13713  13.170   9.409   6.644 -0.2385  0.2006 -0.0712
  963loPI   C2A13714  13.214   9.494   7.059 -0.3421 -0.1205  0.2378
  963loPI   C3A13715  13.053   9.500   7.444  0.4615  0.5413  0.2407
  963loPI   C4A13716  13.140   9.674   7.838  0.0576 -0.0768  0.1213
  963loPI   C5A13717  13.398   9.764   8.112 -0.3552  0.0235  0.0349
  963loPI   C6A13718  13.344   9.955   8.614  0.2300  0.1615 -0.1246
  963loPI   C1B13719  13.666   9.276   6.728 -0.2508  0.2014  0.1210
  963loPI   C2B13720  13.856   9.060   7.085 -0.2882 -0.1303 -0.1901
  963loPI   C3B13721  13.872   9.045   7.531  0.3863  0.0823  0.1128
  963loPI   C4B13722  13.905   8.880   7.946  0.2175 -0.3571 -0.1277
  964loPI    C113723  13.180  15.859   6.107  0.1235 -0.0736 -0.1597
  964loPI    C213724  13.169  15.628   5.781  0.1715 -0.1050 -0.1392
  964loPI    C313725  12.987  15.509   6.116  0.2833 -0.1611 -0.0979
  964loPI   PO413726  13.305  16.082   6.048 -0.0439  0.1442 -0.1589
  964loPI   GL113727  13.551  16.240   6.346 -0.3206  0.2886  0.0972
  964loPI   GL213728  13.849  16.184   6.283 -0.3477  0.2118  0.0284
  964loPI   C1A13729  13.453  16.112   6.662  0.0056 -0.0694 -0.1028
  964loPI   C2A13730  13.022  15.959   7.017 -0.0066  0.1990  0.1379
  964loPI   C3A13731  12.909  16.013   7.456  0.1900  0.2094 -0.0189
  964loPI   C4A13732  12.663  15.966   7.800  0.1688  0.1904 -0.2353
  964loPI   C5A13733  12.419  16.184   8.080 -0.1657 -0.1053  0.2491
  964loPI   C6A13734  12.393  16.661   8.115 -0.2328 -0.1696  0.0996
  964loPI   C1B13735  13.952  16.309   6.818 -0.0438 -0.2365  0.2033
  964loPI   C2B13736  14.090  16.456   7.248  0.1056  0.1362 -0.0932
  964loPI   C3B13737  13.969  16.417   7.644 -0.0701 -0.1190 -0.1651
  964loPI   C4B13738  14.230  16.605   8.034  0.1469 -0.1604  0.0119
  965loPI    C113739  10.539  16.240   5.865 -0.2269  0.1462  0.2106
  965loPI    C213740  10.222  16.063   5.697 -0.0081 -0.0881  0.0393
  965loPI    C313741  10.436  16.330   5.489  0.0882 -0.1595  0.0458
  965loPI   PO413742  10.514  16.181   6.055  0.1786  0.2540  0.3707
  965loPI   GL113743  10.368  15.876   6.443 -0.1688  0.1840 -0.0056
  965loPI   GL213744  10.059  15.731   6.449  0.4102 -0.0171 -0.2290
  965loPI   C1A13745  10.581  16.038   6.773 -0.2004 -0.1110  0.3187
  965loPI   C2A13746  10.747  16.280   7.035 -0.4051  0.0337  0.0864
  965loPI   C3A13747  10.641  16.361   7.367  0.2712  0.0959  0.2072
  965loPI   C4A13748  10.697  16.246   7.764  0.1623 -0.1964 -0.3259
  965loPI   C5A13749  11.023  16.324   8.052  0.0967  0.1112 -0.0143
  965loPI   C6A13750  10.898  16.534   8.446 -0.0366  0.1847 -0.1235
  965loPI   C1B13751   9.994  15.800   6.876  0.1926 -0.0019 -0.0279
  965loPI   C2B13752   9.790  16.197   7.145 -0.1421  0.1801 -0.1814
  965loPI   C3B13753   9.670  16.398   7.573  0.0310  0.2520  0.0400
  965loPI   C4B13754   9.828  16.678   7.850 -0.1942 -0.0280  0.0973
  966loPI    C113755  15.352   9.967   6.030 -0.0121 -0.0903  0.0378
  966loPI    C213756  15.480  10.264   5.794  0.1539 -0.0713  0.1497
  966loPI    C313757  15.111  10.116   5.748  0.1591 -0.0181 -0.0721
  966loPI   PO413758  15.382  10.085   6.294  0.1044 -0.1122 -0.1723
  966loPI   GL113759  15.270  10.092   6.622 -0.0705 -0.3136  0.3897
  966loPI   GL213760  15.012   9.825   6.587  0.0158 -0.0075 -0.1848
  966loPI   C1A13761  15.315  10.029   7.123  0.1012 -0.0538 -0.0542
  966loPI   C2A13762  15.512   9.952   7.412 -0.1246  0.1052 -0.0097
  966loPI   C3A13763  15.749  10.105   7.830  0.0544 -0.0534  0.0944
  966loPI   C4A13764  15.807  10.243   8.160  0.0581 -0.0013 -0.3280
  966loPI   C5A13765  16.025  10.174   8.453 -0.5386  0.1120 -0.1873
  966loPI   C6A13766  16.457  10.130   8.360  0.2645  0.2779  0.0303
  966loPI   C1B13767  14.938   9.706   7.035  0.0105 -0.0184 -0.0659
  966loPI   C2B13768  14.955   9.846   7.464  0.1244  0.2629  0.4817
  966loPI   C3B13769  15.199  10.043   7.818  0.1078  0.0258  0.0449
  966loPI   C4B13770  15.163  10.179   8.172 -0.1687 -0.2486  0.0773
  967loPI    C113771   4.632   6.117   5.483  0.0227  0.1820 -0.1832
  967loPI    C213772   4.327   6.130   5.224 -0.0407  0.0179 -0.1180
  967loPI    C313773   4.701   6.077   5.091 -0.0577  0.0684 -0.1862
  967loPI   PO413774   4.485   6.005   5.803 -0.1587  0.1114 -0.0121
  967loPI   GL113775   4.630   5.810   6.199  0.1053  0.2468 -0.2209
  967loPI   GL213776   4.422   5.717   6.249  0.0453 -0.1734  0.5039
  967loPI   C1A13777   4.933   5.627   6.582  0.1139 -0.0999 -0.0680
  967loPI   C2A13778   5.054   5.617   7.053 -0.1157  0.4932 -0.0576
  967loPI   C3A13779   4.994   5.632   7.506  0.0639  0.3534 -0.3591
  967loPI   C4A13780   4.967   5.698   7.945  0.1293 -0.1772 -0.2410
  967loPI   C5A13781   4.805   5.503   8.280  0.4040  0.0259  0.1617
  967loPI   C6A13782   4.528   5.235   8.350 -0.2701  0.1536 -0.0202
  967loPI   C1B13783   4.395   5.731   6.730 -0.1276  0.0348  0.0044
  967loPI   C2B13784   4.515   5.777   7.164  0.0564  0.2052 -0.1119
  967loPI   C3B13785   4.457   5.817   7.514 -0.3787  0.0791  0.0259
  967loPI   C4B13786   4.458   5.908   7.999 -0.2895 -0.1462  0.0570
  968loPI    C113787   9.633  10.060   5.552 -0.1891 -0.2351  0.2624
  968loPI    C213788   9.329  10.239   5.363  0.0724 -0.1293 -0.0691
  968loPI    C313789   9.372   9.842   5.342 -0.0807 -0.1524  0.0385
  968loPI   PO413790   9.663  10.158   5.812  0.0643 -0.0112 -0.0050
  968loPI   GL113791   9.348  10.254   6.185  0.2185 -0.0467  0.0322
  968loPI   GL213792   9.159   9.897   6.314 -0.0561 -0.1483  0.0834
  968loPI   C1A13793   9.348  10.521   6.700  0.0322  0.1104  0.2105
  968loPI   C2A13794   9.469  10.545   7.046 -0.1199  0.1876 -0.0310
  968loPI   C3A13795   9.486  10.533   7.496 -0.1355  0.1745  0.1261
  968loPI   C4A13796   9.172  10.663   7.843 -0.0879  0.3241  0.2075
  968loPI   C5A13797   8.930  10.292   8.089 -0.1456 -0.0473  0.1076
  968loPI   C6A13798   8.780   9.835   8.137 -0.0806  0.1396  0.1260
  968loPI   C1B13799   9.023  10.126   6.616 -0.2235  0.3744  0.0015
  968loPI   C2B13800   9.088  10.118   7.040 -0.2123 -0.0583 -0.1912
  968loPI   C3B13801   9.044  10.169   7.427  0.2351 -0.1848 -0.3079
  968loPI   C4B13802   8.756  10.021   7.605  0.0335 -0.1310 -0.2059
  969loPI    C113803   1.268  11.408   5.754  0.2392 -0.1202  0.0317
  969loPI    C213804   1.314  11.785   5.629 -0.1311  0.0275  0.3214
  969loPI    C313805   1.529  11.492   5.463 -0.0345  0.3252 -0.0952
  969loPI   PO413806   0.940  11.397   5.768  0.2330  0.1277 -0.3205
  969loPI   GL113807   0.822  11.649   6.028 -0.3417  0.1396  0.0633
  969loPI   GL213808   1.017  11.735   6.163  0.1217  0.1784  0.0124
  969loPI   C1A13809   0.711  11.472   6.550 -0.1043  0.0770  0.2146
  969loPI   C2A13810   0.522  11.378   6.967 -0.0290 -0.2231  0.0802
  969loPI   C3A13811   0.604  11.478   7.368 -0.0208 -0.1457  0.2691
  969loPI   C4A13812   0.622  11.702   7.830  0.0032  0.0152 -0.2344
  969loPI   C5A13813   0.848  12.002   8.162 -0.0014  0.2004  0.0990
  969loPI   C6A13814   1.210  12.190   8.102  0.3974  0.1367  0.1234
  969loPI   C1B13815   1.189  11.818   6.552  0.0889  0.1011 -0.0071
  969loPI   C2B13816   1.266  11.972   6.913  0.0090  0.0019 -0.1519
  969loPI   C3B13817   1.346  11.872   7.391 -0.3701 -0.1329  0.0755
  969loPI   C4B13818   1.161  11.838   7.747 -0.0180  0.2018 -0.3169
  970loPI    C113819   8.083  17.085   5.621 -0.0226  0.1042  0.1994
  970loPI    C213820   8.198  16.972   5.255 -0.5443  0.2885 -0.0308
  970loPI    C313821   8.201  16.709   5.556  0.1298  0.2006 -0.0991
  970loPI   PO413822   8.268  17.275   5.756  0.0116 -0.3139 -0.0058
  970loPI   GL113823   8.250  17.295   6.262 -0.0508 -0.0605  0.1877
  970loPI   GL213824   8.590  17.287   6.201  0.2353  0.2258  0.0168
  970loPI   C1A13825   8.234  17.131   6.729  0.0926 -0.2826 -0.2489
  970loPI   C2A13826   8.222  16.942   7.066 -0.3195 -0.0440  0.2085
  970loPI   C3A13827   8.205  16.992   7.477 -0.1712  0.0753  0.0132
  970loPI   C4A13828   8.440  17.403   7.790 -0.3793 -0.0828 -0.2652
  970loPI   C5A13829   8.697  17.363   8.154  0.0631  0.0576  0.0774
  970loPI   C6A13830   8.603  17.510   8.547  0.3280  0.1440  0.0256
  970loPI   C1B13831   8.666  17.308   6.662  0.1026  0.0073  0.1398
  970loPI   C2B13832   8.624  17.289   7.024  0.0684  0.1468 -0.1951
  970loPI   C3B13833   8.575  17.670   7.282 -0.1563 -0.2615 -0.2845
  970loPI   C4B13834   8.411  17.896   7.668  0.0519  0.1043  0.1961
  971loPI    C113835  10.070   0.664   5.670 -0.1363  0.2161  0.0310
  971loPI    C213836  10.350   0.948   5.642  0.2344 -0.1394  0.0379
  971loPI    C313837  10.228   0.753   5.314  0.0891 -0.0777  0.0542
  971loPI   PO413838   9.843   0.776   5.845  0.0977  0.2170  0.0499
  971loPI   GL113839   9.698   0.838   6.170  0.0896  0.1554 -0.1256
  971loPI   GL213840   9.799   1.161   6.176  0.1874 -0.3915  0.4463
  971loPI   C1A13841   9.648   0.776   6.606 -0.0388 -0.0211 -0.0577
  971loPI   C2A13842   9.526   0.944   6.996  0.0105  0.0918 -0.1201
  971loPI   C3A13843   9.572   1.011   7.329  0.0596  0.0867  0.2449
  971loPI   C4A13844   9.661   0.945   7.778 -0.3103  0.0629 -0.1552
  971loPI   C5A13845   9.698   0.842   8.253 -0.0201 -0.1460 -0.0909
  971loPI   C6A13846   9.866   1.082   8.590  0.0504 -0.0931 -0.0129
  971loPI   C1B13847  10.079   1.115   6.585 -0.0678 -0.1431 -0.1531
  971loPI   C2B13848  10.080   1.191   6.955  0.0267 -0.0597  0.0457
  971loPI   C3B13849  10.065   1.108   7.440 -0.2391 -0.2661 -0.4632
  971loPI   C4B13850  10.387   1.083   7.686  0.0023  0.1530 -0.1207
  972loPI    C113851   5.578   7.743   5.439 -0.0876  0.0135 -0.0123
  972loPI    C213852   5.852   8.031   5.390  0.0162 -0.0672  0.0868
  972loPI    C313853   5.758   7.790   5.084  0.1100 -0.0863  0.0726
  972loPI   PO413854   5.579   7.770   5.681 -0.1678  0.1453  0.2200
  972loPI   GL113855   5.676   7.716   6.091 -0.2407  0.1451 -0.0399
  972loPI   GL213856   5.905   8.033   6.006  0.0108  0.0694 -0.1230
  972loPI   C1A13857   5.705   7.798   6.503  0.3356 -0.0194  0.0706
  972loPI   C2A13858   6.008   7.677   6.860 -0.1065 -0.0820 -0.2024
  972loPI   C3A13859   6.299   7.731   7.210  0.3810  0.3425 -0.0386
  972loPI   C4A13860   6.201   7.938   7.601 -0.2361  0.0515 -0.0477
  972loPI   C5A13861   5.962   7.980   8.073 -0.1073 -0.0727  0.5498
  972loPI   C6A13862   5.558   8.341   8.147 -0.1293 -0.0791  0.1380
  972loPI   C1B13863   6.206   7.794   6.360  0.1754 -0.1980  0.1597
  972loPI   C2B13864   6.613   7.759   6.639  0.0640 -0.0793 -0.3119
  972loPI   C3B13865   6.933   7.777   6.943  0.0816  0.4336  0.2359
  972loPI   C4B13866   7.144   7.721   7.310 -0.0976 -0.1425 -0.0328
  973loPI    C113867   9.844  17.142   5.823 -0.1962  0.1631  0.1980
  973loPI    C213868  10.001  17.484   5.690 -0.2987  0.1235 -0.0283
  973loPI    C313869   9.892  17.200   5.430 -0.0799 -0.1409  0.1646
  973loPI   PO413870   9.920  16.954   5.952  0.2728  0.1281 -0.1276
  973loPI   GL113871  10.073  16.876   6.367 -0.0993 -0.0667 -0.1641
  973loPI   GL213872   9.762  16.999   6.463 -0.0444 -0.1398  0.0990
  973loPI   C1A13873  10.024  16.778   6.853  0.0348 -0.4237  0.1178
  973loPI   C2A13874   9.968  16.706   7.227 -0.1463  0.1191  0.0414
  973loPI   C3A13875  10.206  16.889   7.574  0.0078  0.1087 -0.0192
  973loPI   C4A13876  10.330  16.886   7.981  0.1504  0.1614 -0.1557
  973loPI   C5A13877  10.589  16.531   8.113 -0.2191  0.1496 -0.4074
  973loPI   C6A13878  10.527  16.177   8.319  0.1375 -0.0865 -0.0045
  973loPI   C1B13879   9.541  17.085   6.879  0.2666  0.1282 -0.1814
  973loPI   C2B13880   9.595  16.960   7.385  0.0811 -0.0918 -0.0402
  973loPI   C3B13881   9.789  17.235   7.717 -0.0911 -0.1008  0.1909
  973loPI   C4B13882  10.145  17.309   7.812  0.0825 -0.0420  0.4471
  974loPI    C113883   5.458   3.300   5.553 -0.1224  0.1052 -0.1502
  974loPI    C213884   5.404   3.098   5.211  0.0703  0.1490 -0.2075
  974loPI    C313885   5.246   3.463   5.255  0.0928  0.1666 -0.2719
  974loPI   PO413886   5.333   3.082   5.818  0.0083  0.0767  0.2314
  974loPI   GL113887   5.480   2.977   6.141  0.0146 -0.1389  0.1924
  974loPI   GL213888   5.746   2.726   6.068 -0.1019  0.1835  0.0701
  974loPI   C1A13889   5.261   3.209   6.463 -0.0827  0.3755 -0.1242
  974loPI   C2A13890   5.090   3.092   6.841 -0.1043  0.1970  0.2010
  974loPI   C3A13891   5.261   3.034   7.221 -0.4178  0.1772 -0.1238
  974loPI   C4A13892   5.315   3.141   7.622  0.1317  0.0253  0.1257
  974loPI   C5A13893   5.230   3.447   7.981 -0.1771 -0.1907  0.1632
  974loPI   C6A13894   5.390   3.834   8.068  0.1742 -0.0264 -0.0658
  974loPI   C1B13895   5.718   2.784   6.525  0.0306  0.0672  0.0529
  974loPI   C2B13896   5.513   2.769   6.901  0.0526  0.0019 -0.1018
  974loPI   C3B13897   5.665   2.620   7.337 -0.2531  0.1474 -0.0407
  974loPI   C4B13898   5.748   2.788   7.752 -0.0186  0.2001  0.2029
  975loPI    C113899  11.754  15.361   5.905  0.2741 -0.2456 -0.1783
  975loPI    C213900  11.880  15.741   5.901  0.0380 -0.1604  0.1146
  975loPI    C313901  11.628  15.610   5.618 -0.0379 -0.0426  0.1274
  975loPI   PO413902  11.985  15.125   6.034 -0.1121 -0.3064 -0.5029
  975loPI   GL113903  11.986  14.797   6.336 -0.2147  0.3617 -0.0185
  975loPI   GL213904  12.252  14.883   6.362  0.1046  0.0607  0.0779
  975loPI   C1A13905  11.829  14.824   6.776 -0.5712 -0.0004  0.3227
  975loPI   C2A13906  11.809  15.007   7.231 -0.0559 -0.1831  0.2681
  975loPI   C3A13907  11.482  15.299   7.350 -0.1154 -0.1542  0.0384
  975loPI   C4A13908  11.284  15.502   7.721  0.0466 -0.4249 -0.0436
  975loPI   C5A13909  11.072  15.515   8.025  0.0990 -0.0706  0.0920
  975loPI   C6A13910  10.913  15.884   8.279  0.0624  0.0256  0.1313
  975loPI   C1B13911  12.301  14.693   6.764 -0.0198  0.1519 -0.3282
  975loPI   C2B13912  12.307  14.528   7.163  0.1917  0.2348 -0.0738
  975loPI   C3B13913  12.523  14.482   7.549 -0.2104 -0.1135  0.1444
  975loPI   C4B13914  12.859  14.329   7.904  0.1079  0.2450 -0.1369
  976loPI    C113915   0.693  15.472   5.500  0.1328  0.0474 -0.2182
  976loPI    C213916   1.036  15.657   5.591  0.1098  0.0612 -0.1597
  976loPI    C313917   0.839  15.754   5.257  0.3132 -0.1507 -0.3446
  976loPI   PO413918   0.563  15.553   5.765 -0.0674 -0.0799 -0.1762
  976loPI   GL113919   0.743  15.677   6.188  0.1136 -0.1000 -0.2747
  976loPI   GL213920   1.028  15.650   6.404  0.0777  0.2032  0.2162
  976loPI   C1A13921   0.595  15.675   6.641  0.2908 -0.1200 -0.0618
  976loPI   C2A13922   0.641  15.568   7.000  0.1547 -0.4046 -0.0072
  976loPI   C3A13923   0.667  15.337   7.288  0.0165  0.1602 -0.3094
  976loPI   C4A13924   0.561  15.325   7.651  0.0809 -0.3155  0.1254
  976loPI   C5A13925   0.593  15.182   8.036 -0.1784 -0.0273  0.1621
  976loPI   C6A13926   0.776  15.559   8.325  0.1944 -0.1467  0.0358
  976loPI   C1B13927   1.032  15.311   6.631  0.0087  0.0763 -0.0519
  976loPI   C2B13928   1.021  15.169   7.067  0.2004  0.0507  0.0483
  976loPI   C3B13929   1.075  15.184   7.493 -0.2401 -0.4528 -0.0613
  976loPI   C4B13930   1.085  15.037   7.913 -0.1118 -0.0484 -0.0865
  977loPI    C113931   6.625   7.037   5.362 -0.2245 -0.0471  0.1549
  977loPI    C213932   6.738   7.058   4.979  0.0045  0.4379  0.2407
  977loPI    C313933   6.354   6.996   5.071 -0.0369  0.2206 -0.0630
  977loPI   PO413934   6.823   6.918   5.441 -0.1593 -0.2091 -0.2475
  977loPI   GL113935   6.804   6.550   5.693 -0.2192 -0.0784  0.0177
  977loPI   GL213936   6.678   6.268   5.769  0.1241 -0.1462  0.1386
  977loPI   C1A13937   7.171   6.310   5.951 -0.1775 -0.1033 -0.3077
  977loPI   C2A13938   7.329   6.252   6.222  0.1996 -0.3070  0.3550
  977loPI   C3A13939   7.116   6.283   6.666 -0.1914 -0.0890 -0.0200
  977loPI   C4A13940   7.364   6.433   7.118  0.4726 -0.0980  0.1250
  977loPI   C5A13941   7.479   6.660   7.418 -0.0976 -0.0404  0.0414
  977loPI   C6A13942   7.617   7.000   7.781 -0.3000  0.2116 -0.0556
  977loPI   C1B13943   6.734   6.440   6.262  0.0926  0.2174  0.2465
  977loPI   C2B13944   6.647   6.451   6.713 -0.3799 -0.0089 -0.3632
  977loPI   C3B13945   6.578   6.405   7.135  0.2517  0.1491 -0.2321
  977loPI   C4B13946   6.641   6.103   7.397 -0.1459  0.0512 -0.1975
  978loPI    C113947  12.325   4.904   5.783 -0.1624  0.1525  0.0607
  978loPI    C213948  12.042   4.911   5.501 -0.0528 -0.2227 -0.0637
  978loPI    C313949  12.192   4.562   5.626  0.2623 -0.0348  0.0956
  978loPI   PO413950  12.259   5.084   5.902 -0.1540  0.1283  0.2289
  978loPI   GL113951  12.255   5.206   6.356 -0.1010  0.3524 -0.1060
  978loPI   GL213952  12.543   5.467   6.463  0.0290  0.0565 -0.1567
  978loPI   C1A13953  11.998   5.097   6.710  0.2478 -0.0874  0.4477
  978loPI   C2A13954  11.850   5.334   7.049 -0.0215 -0.2227 -0.1650
  978loPI   C3A13955  11.621   5.348   7.499 -0.0903 -0.0846  0.1170
  978loPI   C4A13956  11.677   5.027   7.666  0.5253 -0.1707  0.1470
  978loPI   C5A13957  11.590   4.612   7.899 -0.0800 -0.0200 -0.1129
  978loPI   C6A13958  11.824   4.291   8.305  0.1004 -0.0713 -0.2656
  978loPI   C1B13959  12.313   5.444   6.864  0.0023 -0.1507 -0.0864
  978loPI   C2B13960  12.279   5.422   7.321  0.1184  0.1053  0.2670
  978loPI   C3B13961  12.337   5.309   7.759 -0.0540  0.0694 -0.0960
  978loPI   C4B13962  12.515   4.923   7.967  0.0566  0.0934  0.3598
  979loPI    C113963   0.386  11.584   5.724 -0.0771  0.1575 -0.0856
  979loPI    C213964   0.324  11.937   5.547  0.0942  0.1548 -0.1527
  979loPI    C313965   0.269  11.598   5.342 -0.1837  0.1377 -0.0543
  979loPI   PO413966   0.314  11.570   5.964 -0.2351 -0.2111  0.0326
  979loPI   GL113967   0.110  11.695   6.338 -0.3688  0.0200 -0.1723
  979loPI   GL213968   0.336  11.866   6.535 -0.2652 -0.0752  0.1936
  979loPI   C1A13969   0.147  11.462   6.663 -0.1228 -0.1905  0.2444
  979loPI   C2A13970   0.023  11.435   7.131  0.1853  0.1691 -0.0830
  979loPI   C3A13971   0.075  11.561   7.448  0.1131 -0.0683 -0.1353
  979loPI   C4A13972   0.143  11.622   7.957  0.1970 -0.0439  0.1867
  979loPI   C5A13973  -0.162  11.617   8.178  0.1293 -0.1232  0.1206
  979loPI   C6A13974  -0.330  11.565   8.569  0.0190  0.2244  0.0083
  979loPI   C1B13975   0.290  11.927   7.021  0.1365 -0.1763  0.2004
  979loPI   C2B13976   0.374  12.002   7.437  0.0585 -0.0515 -0.0486
  979loPI   C3B13977   0.383  12.158   7.899 -0.0506 -0.1785 -0.1986
  979loPI   C4B13978   0.312  12.022   8.339  0.1129  0.2396 -0.0070
  980loPI    C113979   8.849  10.128   5.374 -0.1145 -0.0449 -0.0652
  980loPI    C213980   8.610  10.249   5.077 -0.2753 -0.1441  0.0225
  980loPI    C313981   8.530   9.909   5.272 -0.2344 -0.0232  0.2535
  980loPI   PO413982   8.849  10.320   5.575  0.0498  0.1613 -0.0671
  980loPI   GL113983   8.877  10.382   5.979 -0.2182 -0.2711 -0.1150
  980loPI   GL213984   8.716  10.135   6.076 -0.2408  0.2673 -0.0359
  980loPI   C1A13985   8.838  10.508   6.396 -0.1241  0.2600  0.1183
  980loPI   C2A13986   8.691  10.538   6.835  0.0694  0.0295 -0.0585
  980loPI   C3A13987   8.442  10.467   7.224  0.0960  0.3607  0.0464
  980loPI   C4A13988   8.361  10.376   7.640 -0.2815  0.1637  0.0418
  980loPI   C5A13989   8.445  10.205   8.105 -0.0765  0.3695 -0.1810
  980loPI   C6A13990   8.610  10.194   8.497  0.1792  0.0768  0.1640
  980loPI   C1B13991   8.688   9.882   6.393 -0.2120 -0.3619 -0.0109
  980loPI   C2B13992   8.671   9.777   6.777  0.0729 -0.2463 -0.0858
  980loPI   C3B13993   8.651   9.949   7.140 -0.0581 -0.1300 -0.2279
  980loPI   C4B13994   8.339   9.935   7.343  0.1159  0.0052  0.1611
  981loPI    C113995  10.193   8.035   5.194 -0.1198  0.1093 -0.4207
  981loPI    C213996   9.968   7.704   5.210 -0.2040  0.1864  0.2638
  981loPI    C313997   9.826   8.034   5.033 -0.2205 -0.0599 -0.1964
  981loPI   PO413998  10.219   8.104   5.479  0.1186 -0.1425 -0.1343
  981loPI   GL113999  10.210   7.948   5.935  0.3488 -0.0700  0.1606
  981loPI   GL214000  10.464   8.191   5.923  0.3314  0.1276 -0.0507
  981loPI   C1A14001  10.040   8.249   6.268 -0.3413 -0.1801 -0.1212
  981loPI   C2A14002  10.149   8.371   6.640  0.0775 -0.1096  0.1745
  981loPI   C3A14003  10.078   8.415   7.058 -0.2461 -0.1762 -0.0031
  981loPI   C4A14004  10.074   8.672   7.451 -0.2628 -0.0200 -0.0870
  981loPI   C5A14005  10.173   8.654   8.001  0.2832 -0.0698  0.1136
  981loPI   C6A14006   9.921   8.742   8.305 -0.0072 -0.0771 -0.2647
  981loPI   C1B14007  10.522   7.992   6.400 -0.0547  0.2564  0.1256
  981loPI   C2B14008  10.544   8.102   6.884 -0.0431  0.2120  0.0445
  981loPI   C3B14009  10.615   8.038   7.297  0.2892  0.4473  0.0383
  981loPI   C4B14010  10.633   7.882   7.657  0.2539  0.0452 -0.1826
  982loPI    C114011   5.305   8.272   5.376 -0.1268  0.2706 -0.1903
  982loPI    C214012   5.229   7.961   5.136 -0.4012  0.0497  0.1724
  982loPI    C314013   5.425   8.280   4.994 -0.4251 -0.1373 -0.2991
  982loPI   PO414014   5.172   8.161   5.646  0.2345  0.0183  0.0184
  982loPI   GL114015   5.058   8.096   5.979  0.1074 -0.1889  0.0217
  982loPI   GL214016   4.793   8.227   6.220 -0.1344  0.0316 -0.0052
  982loPI   C1A14017   5.197   7.924   6.317  0.2854  0.3992  0.1859
  982loPI   C2A14018   5.117   8.004   6.823 -0.1826  0.1904  0.0406
  982loPI   C3A14019   4.941   8.086   7.185  0.0996 -0.0686 -0.3463
  982loPI   C4A14020   4.632   8.282   7.486 -0.4394 -0.3565 -0.2026
  982loPI   C5A14021   4.221   8.392   7.614 -0.3110  0.1015  0.0518
  982loPI   C6A14022   3.736   8.434   7.623 -0.1806  0.5556 -0.2221
  982loPI   C1B14023   4.718   8.206   6.627  0.2583  0.0722 -0.1496
  982loPI   C2B14024   4.645   8.414   6.979 -0.1067  0.0287  0.1051
  982loPI   C3B14025   4.778   8.840   6.974 -0.2198  0.0012  0.1676
  982loPI   C4B14026   4.878   9.156   7.420  0.0484  0.0877  0.2740
  983loPI    C114027  16.698   6.867   5.907  0.0326  0.1522 -0.0813
  983loPI    C214028  16.515   6.740   5.574 -0.0897 -0.0210  0.0506
  983loPI    C314029  16.831   6.983   5.548 -0.0708 -0.0696 -0.1936
  983loPI   PO414030  16.739   6.612   6.056  0.1564  0.1235 -0.1636
  983loPI   GL114031  16.738   6.552   6.425 -0.3247 -0.0076 -0.2317
  983loPI   GL214032  16.445   6.646   6.481  0.0881 -0.1351 -0.0172
  983loPI   C1A14033  16.904   6.562   6.881 -0.1610 -0.1382  0.0954
  983loPI   C2A14034  16.950   6.633   7.290 -0.2854 -0.2379 -0.0155
  983loPI   C3A14035  17.125   6.658   7.624 -0.0395 -0.2457  0.1336
  983loPI   C4A14036  17.052   6.835   7.988 -0.2708  0.1319 -0.0138
  983loPI   C5A14037  16.941   7.035   8.327  0.3815  0.0886  0.0035
  983loPI   C6A14038  16.807   7.519   8.367 -0.1500  0.1654 -0.0443
  983loPI   C1B14039  16.369   6.567   6.861  0.1498  0.1033  0.0885
  983loPI   C2B14040  16.358   6.434   7.282 -0.1155 -0.3608 -0.3139
  983loPI   C3B14041  16.573   6.435   7.566  0.3217 -0.3061  0.2597
  983loPI   C4B14042  16.624   6.748   7.748  0.1212  0.1146 -0.2644
  984loPI    C114043   1.026   8.418   6.103 -0.0193 -0.1189  0.1716
  984loPI    C214044   1.386   8.329   5.953 -0.0069  0.0140  0.1218
  984loPI    C314045   1.066   8.341   5.713  0.0137  0.2315  0.1031
  984loPI   PO414046   1.059   8.628   6.240  0.0353 -0.0116  0.0308
  984loPI   GL114047   1.177   8.666   6.605 -0.1308 -0.1960  0.2665
  984loPI   GL214048   1.335   8.304   6.543  0.6792  0.1980  0.0564
  984loPI   C1A14049   1.320   8.762   7.014  0.1957 -0.0051 -0.2173
  984loPI   C2A14050   1.386   8.697   7.451  0.1228 -0.0355  0.0862
  984loPI   C3A14051   1.385   8.540   7.868 -0.0553 -0.0240 -0.0153
  984loPI   C4A14052   1.531   8.626   8.266  0.0407  0.3186  0.2389
  984loPI   C5A14053   1.900   8.528   8.599 -0.0531 -0.0791 -0.1268
  984loPI   C6A14054   2.200   8.197   8.391 -0.1807 -0.0970  0.0018
  984loPI   C1B14055   1.315   8.250   6.891  0.1050 -0.2197 -0.4302
  984loPI   C2B14056   1.267   8.089   7.348 -0.1217 -0.1634  0.0817
  984loPI   C3B14057   1.230   7.999   7.784  0.2456 -0.3455  0.2849
  984loPI   C4B14058   1.196   8.009   8.198 -0.0660 -0.0458  0.2800
  985loPI    C114059   8.644   8.045   5.485 -0.0202 -0.2567  0.1366
  985loPI    C214060   8.476   8.212   5.163  0.0033  0.0390  0.2745
  985loPI    C314061   8.482   7.814   5.201  0.0602 -0.0025 -0.1214
  985loPI   PO414062   8.835   8.214   5.551  0.1038  0.0567  0.2221
  985loPI   GL114063   9.088   8.203   5.871 -0.0875  0.0658 -0.2515
  985loPI   GL214064   9.362   8.171   5.966  0.1760  0.1578 -0.1681
  985loPI   C1A14065   8.956   8.118   6.287  0.2639  0.1213 -0.2318
  985loPI   C2A14066   8.697   7.800   6.587  0.1981  0.0839 -0.0020
  985loPI   C3A14067   8.465   7.684   6.816  0.1962 -0.1502  0.0262
  985loPI   C4A14068   8.496   7.850   7.136  0.1261 -0.2868 -0.1259
  985loPI   C5A14069   8.337   8.269   7.347  0.0817  0.2731 -0.0202
  985loPI   C6A14070   8.376   8.690   7.500 -0.0887 -0.0607 -0.0414
  985loPI   C1B14071   9.534   8.148   6.407  0.0287  0.3078 -0.1196
  985loPI   C2B14072   9.573   8.214   6.955 -0.1288  0.0215  0.0093
  985loPI   C3B14073   9.641   8.279   7.322  0.3232  0.1294 -0.1155
  985loPI   C4B14074   9.357   8.232   7.502  0.3349  0.1890  0.2018
  986loPI    C114075   3.804  17.145   5.804 -0.1080  0.0419  0.1814
  986loPI    C214076   3.899  16.891   5.510 -0.0242 -0.0818  0.3144
  986loPI    C314077   3.597  17.149   5.462  0.3489  0.2928 -0.1016
  986loPI   PO414078   3.920  16.970   6.022  0.0313  0.0597  0.2660
  986loPI   GL114079   3.869  17.057   6.403  0.0505 -0.0490 -0.0476
  986loPI   GL214080   3.581  16.949   6.514 -0.1393 -0.0433  0.2424
  986loPI   C1A14081   3.968  17.304   6.716 -0.0744 -0.0506 -0.3649
  986loPI   C2A14082   3.968  17.283   7.097  0.0504 -0.1607  0.1425
  986loPI   C3A14083   3.874  17.220   7.541  0.0726  0.0087  0.1065
  986loPI   C4A14084   3.628  17.367   7.929 -0.0003 -0.0376  0.0386
  986loPI   C5A14085   3.420  17.307   8.267 -0.1951  0.0010  0.0152
  986loPI   C6A14086   3.612  17.307   8.648 -0.0859 -0.1390  0.0020
  986loPI   C1B14087   3.585  17.005   6.898  0.1203 -0.0544 -0.3360
  986loPI   C2B14088   3.613  16.860   7.361  0.1640 -0.0007 -0.1001
  986loPI   C3B14089   3.640  16.752   7.780 -0.1790  0.1236  0.0780
  986loPI   C4B14090   3.838  16.977   8.136  0.1493  0.2162 -0.0231
  987loPI    C114091   1.556   2.171   5.467 -0.0682  0.0060 -0.0157
  987loPI    C214092   1.584   2.523   5.278  0.2884  0.0866  0.1783
  987loPI    C314093   1.617   2.181   5.072 -0.1539  0.1603 -0.0258
  987loPI   PO414094   1.355   2.217   5.615 -0.0363  0.1937 -0.0416
  987loPI   GL114095   1.315   2.177   6.036 -0.3030  0.1080  0.1914
  987loPI   GL214096   1.386   2.528   6.043  0.0228  0.4355  0.0197
  987loPI   C1A14097   1.127   1.982   6.381  0.1795  0.1217  0.0275
  987loPI   C2A14098   1.230   1.882   6.736  0.6444 -0.1356 -0.0778
  987loPI   C3A14099   1.305   1.857   7.139  0.1616 -0.1978 -0.2676
  987loPI   C4A14100   1.304   1.763   7.525  0.1790  0.1893 -0.3426
  987loPI   C5A14101   1.171   1.730   7.915 -0.3187 -0.0197 -0.2077
  987loPI   C6A14102   0.768   1.712   8.110 -0.3811 -0.0067 -0.0690
  987loPI   C1B14103   1.488   2.436   6.484 -0.3631 -0.0464  0.1096
  987loPI   C2B14104   1.448   2.322   6.832 -0.0412 -0.2583  0.0675
  987loPI   C3B14105   1.613   2.249   7.172  0.0546 -0.0631 -0.0290
  987loPI   C4B14106   1.606   2.114   7.610  0.2017 -0.0157  0.3769
  988loPI    C114107  10.796   5.506   5.398  0.0746 -0.0735  0.3113
  988loPI    C214108  11.160   5.671   5.419  0.0540  0.0116  0.0347
  988loPI    C314109  10.860   5.868   5.242 -0.0513 -0.1859 -0.0098
  988loPI   PO414110  10.753   5.375   5.622 -0.0476  0.4625 -0.2487
  988loPI   GL114111  10.651   5.155   5.977 -0.1864 -0.1517  0.2067
  988loPI   GL214112  10.881   4.862   5.793 -0.0557  0.0839 -0.1240
  988loPI   C1A14113  10.595   5.059   6.354  0.0282 -0.1009  0.1442
  988loPI   C2A14114  10.764   5.008   6.768 -0.1795  0.0508 -0.0679
  988loPI   C3A14115  10.827   4.928   7.132  0.0079  0.1708 -0.0917
  988loPI   C4A14116  10.570   5.097   7.406  0.0106 -0.1041  0.0561
  988loPI   C5A14117  10.305   4.960   7.766 -0.1080  0.0988 -0.3569
  988loPI   C6A14118   9.876   5.051   7.905  0.1955  0.1246 -0.2686
  988loPI   C1B14119  11.109   4.825   6.059  0.1208  0.0783  0.0921
  988loPI   C2B14120  11.484   4.787   6.217 -0.0757 -0.1207  0.1824
  988loPI   C3B14121  11.712   5.119   6.353 -0.3242  0.2405 -0.2898
  988loPI   C4B14122  11.723   5.535   6.570 -0.1322 -0.2871  0.2500
  989loPI    C114123   6.454   4.075   5.522 -0.0298 -0.1147 -0.0456
  989loPI    C214124   6.840   4.051   5.419  0.0156 -0.0978  0.1175
  989loPI    C314125   6.562   3.864   5.200  0.0943  0.0535 -0.1160
  989loPI   PO414126   6.443   4.053   5.702 -0.1636 -0.4237 -0.4406
  989loPI   GL114127   6.366   4.270   5.999  0.2465  0.1604 -0.2409
  989loPI   GL214128   6.337   3.846   6.094 -0.0491  0.2205 -0.0897
  989loPI   C1A14129   6.152   4.249   6.391  0.3071  0.0581 -0.3239
  989loPI   C2A14130   6.257   4.130   6.750 -0.0068  0.0883  0.0258
  989loPI   C3A14131   6.258   4.109   7.125  0.1532  0.3103 -0.2991
  989loPI   C4A14132   6.197   4.270   7.592 -0.1891 -0.2148  0.0046
  989loPI   C5A14133   5.877   4.502   7.833  0.1140 -0.0714 -0.0838
  989loPI   C6A14134   5.566   4.502   8.188  0.0751  0.0971  0.0832
  989loPI   C1B14135   6.419   3.604   6.521 -0.0660 -0.0629  0.2239
  989loPI   C2B14136   6.289   3.585   6.929 -0.0220  0.2186 -0.2293
  989loPI   C3B14137   6.162   3.369   7.293  0.1575  0.0820 -0.3413
  989loPI   C4B14138   5.726   3.198   7.316  0.0514  0.1687 -0.3168
  990loPI    C114139  16.659   1.611   5.587 -0.2920  0.1469 -0.0532
  990loPI    C214140  16.624   1.535   5.196  0.0847 -0.0430 -0.0543
  990loPI    C314141  16.517   1.258   5.464 -0.1050  0.0597 -0.0220
  990loPI   PO414142  16.858   1.741   5.650  0.1249 -0.0002  0.0684
  990loPI   GL114143  17.043   1.458   5.925 -0.0321 -0.0994  0.3376
  990loPI   GL214144  16.910   1.150   5.894 -0.0167  0.1539 -0.1360
  990loPI   C1A14145  16.949   1.374   6.346 -0.3938 -0.2846  0.1255
  990loPI   C2A14146  16.907   1.055   6.734 -0.1325  0.0444  0.2627
  990loPI   C3A14147  16.810   0.924   7.158 -0.0620  0.0275 -0.1583
  990loPI   C4A14148  16.731   1.022   7.580  0.2143  0.0701  0.2313
  990loPI   C5A14149  16.479   1.353   7.807 -0.0915  0.2696 -0.0438
  990loPI   C6A14150  16.080   1.675   7.992  0.3026  0.2561  0.2109
  990loPI   C1B14151  16.618   0.970   6.183  0.3442 -0.0867  0.0583
  990loPI   C2B14152  16.530   0.892   6.488  0.1382  0.3041 -0.0172
  990loPI   C3B14153  16.347   1.100   6.846  0.1975 -0.2502  0.0923
  990loPI   C4B14154  16.193   1.237   7.264 -0.0194  0.3619  0.3979
  991loPI    C114155   1.268  15.854   5.955  0.0980  0.0137  0.0143
  991loPI    C214156   1.539  15.694   5.708  0.1352 -0.0587  0.1016
  991loPI    C314157   1.451  15.512   6.053 -0.0846 -0.0788  0.0362
  991loPI   PO414158   1.200  16.124   5.917  0.0353  0.0804  0.1120
  991loPI   GL114159   1.403  16.333   6.297 -0.1136 -0.1211  0.0528
  991loPI   GL214160   1.416  16.605   6.474 -0.2597 -0.1007  0.2647
  991loPI   C1A14161   1.109  16.191   6.715  0.3576  0.3146  0.0533
  991loPI   C2A14162   1.099  15.815   6.964  0.1332 -0.1616  0.1007
  991loPI   C3A14163   1.242  15.601   7.265 -0.0572 -0.2809  0.1800
  991loPI   C4A14164   1.254  15.561   7.752  0.1743  0.0719  0.1918
  991loPI   C5A14165   1.185  15.453   8.170  0.0097  0.0767  0.0748
  991loPI   C6A14166   1.206  14.870   8.358 -0.2861 -0.1274  0.0886
  991loPI   C1B14167   1.251  16.645   6.849  0.0433 -0.1244 -0.0234
  991loPI   C2B14168   1.238  16.654   7.300 -0.1369  0.3296 -0.1367
  991loPI   C3B14169   1.377  16.430   7.639  0.2414  0.1358  0.3049
  991loPI   C4B14170   1.567  16.061   7.761  0.0370 -0.1941  0.3329
  992loPI    C114171   5.589  17.071   5.664  0.2133 -0.0534  0.1564
  992loPI    C214172   5.465  17.285   5.350  0.0110 -0.1105  0.1958
  992loPI    C314173   5.742  17.001   5.302  0.0645 -0.0408  0.0902
  992loPI   PO414174   5.342  17.151   5.810 -0.0124 -0.2525 -0.0207
  992loPI   GL114175   5.385  17.314   6.252  0.0847  0.0593 -0.1113
  992loPI   GL214176   5.569  17.124   6.520 -0.0549  0.1118  0.0550
  992loPI   C1A14177   5.216  17.495   6.647 -0.1826 -0.0073 -0.0562
  992loPI   C2A14178   4.885  17.529   6.908 -0.0855 -0.0633  0.2023
  992loPI   C3A14179   4.821  17.544   7.393  0.2112 -0.2925  0.1026
  992loPI   C4A14180   4.617  17.779   7.783  0.1131  0.1633 -0.3194
  992loPI   C5A14181   4.372  17.892   8.226 -0.0453  0.1983 -0.0037
  992loPI   C6A14182   4.007  18.127   8.353 -0.1630 -0.4408  0.0809
  992loPI   C1B14183   5.644  17.236   6.987  0.0983  0.0904 -0.1502
  992loPI   C2B14184   5.726  17.485   7.448  0.2783  0.1967 -0.1854
  992loPI   C3B14185   5.662  17.310   7.879  0.0387  0.1536  0.1422
  992loPI   C4B14186   5.343  17.216   8.202  0.0432 -0.4418  0.1043
  993loPI    C114187  11.540   9.610   5.491 -0.1826  0.0465 -0.4660
  993loPI    C214188  11.802   9.668   5.194  0.3171 -0.0953 -0.0675
  993loPI    C314189  11.599   9.324   5.217  0.1741 -0.0296 -0.3165
  993loPI   PO414190  11.629   9.750   5.671 -0.0259 -0.0606 -0.1794
  993loPI   GL114191  11.836   9.669   6.081  0.3449 -0.0671 -0.0331
  993loPI   GL214192  11.644   9.415   6.256  0.0602 -0.0656 -0.1366
  993loPI   C1A14193  11.717   9.870   6.412 -0.0333 -0.0234  0.0427
  993loPI   C2A14194  11.645   9.909   6.847 -0.2308 -0.0624 -0.2270
  993loPI   C3A14195  11.657   9.951   7.311 -0.0315  0.2638 -0.0952
  993loPI   C4A14196  11.847   9.873   7.593  0.0400 -0.1394  0.0960
  993loPI   C5A14197  12.072   9.621   7.870 -0.0039  0.3435  0.0906
  993loPI   C6A14198  12.240   9.335   8.174  0.0096  0.1385 -0.0406
  993loPI   C1B14199  11.503   9.460   6.680 -0.0158  0.0061 -0.0551
  993loPI   C2B14200  11.508   9.472   7.130  0.1896 -0.0456 -0.0189
  993loPI   C3B14201  11.450   9.577   7.550 -0.3395  0.0633 -0.0184
  993loPI   C4B14202  11.504   9.556   7.991 -0.3225  0.2392 -0.1235
  994loPI    C114203   1.299  14.241   5.814  0.0726  0.0009 -0.0638
  994loPI    C214204   1.036  13.942   5.783  0.0452  0.0112  0.0640
  994loPI    C314205   0.932  14.311   5.672  0.0475 -0.0086 -0.0041
  994loPI   PO414206   1.542  14.108   5.998  0.0539 -0.1814 -0.0165
  994loPI   GL114207   1.963  14.255   6.233  0.0273 -0.3476 -0.0757
  994loPI   GL214208   1.890  14.383   6.432  0.0756 -0.0316 -0.1409
  994loPI   C1A14209   2.187  14.024   6.506 -0.0601  0.0114 -0.1133
  994loPI   C2A14210   2.303  13.902   6.911 -0.0996  0.3524 -0.3919
  994loPI   C3A14211   2.358  13.688   7.282 -0.1073  0.0365  0.1033
  994loPI   C4A14212   2.273  13.335   7.641 -0.0839  0.0793 -0.1199
  994loPI   C5A14213   1.973  13.151   8.024  0.2721  0.2193 -0.3753
  994loPI   C6A14214   1.773  12.756   8.217 -0.2116  0.1741 -0.1534
  994loPI   C1B14215   1.986  14.299   6.901 -0.0665  0.0053  0.0502
  994loPI   C2B14216   2.213  14.388   7.226 -0.1186 -0.3651  0.1868
  994loPI   C3B14217   2.046  14.145   7.683  0.0527  0.1974  0.0589
  994loPI   C4B14218   1.922  14.294   8.134  0.2973 -0.0368 -0.1522
  995loPI    C114219   0.409  10.936   5.714  0.0486 -0.1746  0.0720
  995loPI    C214220   0.619  11.151   5.449 -0.1336 -0.0783  0.0037
  995loPI    C314221   0.794  10.852   5.648  0.0248 -0.1035 -0.1710
  995loPI   PO414222   0.312  11.059   5.864 -0.0921 -0.2507 -0.3369
  995loPI   GL114223   0.385  11.222   6.361  0.0763 -0.1820 -0.1046
  995loPI   GL214224   0.629  11.206   6.198 -0.0403 -0.3907 -0.2761
  995loPI   C1A14225   0.316  10.961   6.761  0.0381  0.1627  0.0196
  995loPI   C2A14226   0.314  10.991   7.162  0.3913 -0.0951 -0.1460
  995loPI   C3A14227   0.307  11.101   7.580  0.0482 -0.3276 -0.2309
  995loPI   C4A14228   0.467  11.220   7.987 -0.0212  0.5549  0.1236
  995loPI   C5A14229   0.664  11.386   8.224  0.3928  0.0879  0.0367
  995loPI   C6A14230   0.618  11.649   8.535  0.1825 -0.1981 -0.1836
  995loPI   C1B14231   0.777  11.018   6.578  0.1255  0.1731  0.0891
  995loPI   C2B14232   0.795  10.956   7.009 -0.2463  0.1236 -0.0146
  995loPI   C3B14233   0.794  11.024   7.352 -0.0613 -0.0248  0.0903
  995loPI   C4B14234   0.745  10.846   7.777  0.1625 -0.1836  0.1309
  996loPI    C114235   0.205  12.119   6.023  0.4120  0.1168 -0.0311
  996loPI    C214236   0.133  12.512   6.051 -0.0001  0.0320  0.1863
  996loPI    C314237  -0.060  12.292   5.778  0.0754 -0.0557  0.2030
  996loPI   PO414238   0.421  12.094   6.075 -0.0707 -0.1238  0.1747
  996loPI   GL114239   0.650  12.282   6.273 -0.2269 -0.1461 -0.1036
  996loPI   GL214240   0.929  12.260   6.172  0.2743 -0.1653  0.3618
  996loPI   C1A14241   0.651  12.277   6.634  0.3244 -0.0624 -0.3037
  996loPI   C2A14242   0.753  11.919   6.806 -0.0461 -0.0365  0.2380
  996loPI   C3A14243   0.853  11.881   7.254 -0.0113  0.0912 -0.0329
  996loPI   C4A14244   0.811  12.139   7.648 -0.2511 -0.2272 -0.1638
  996loPI   C5A14245   0.731  12.453   7.936 -0.1578  0.2015 -0.2312
  996loPI   C6A14246   0.760  12.510   8.347 -0.0306  0.0271 -0.0803
  996loPI   C1B14247   1.305  12.245   6.388 -0.2677 -0.2445  0.0365
  996loPI   C2B14248   1.647  12.200   6.639 -0.1428 -0.0588  0.0458
  996loPI   C3B14249   1.732  12.201   7.023 -0.1167  0.3546 -0.0260
  996loPI   C4B14250   1.989  11.918   7.236  0.0962  0.1485 -0.2592
  997loPI    C114251  15.836  15.311   5.837  0.2113  0.0654  0.1962
  997loPI    C214252  15.988  15.485   5.510  0.1108  0.0493  0.1404
  997loPI    C314253  15.608  15.553   5.615  0.0913 -0.0823  0.1567
  997loPI   PO414254  16.024  15.397   6.047  0.0989  0.0716  0.3335
  997loPI   GL114255  16.053  15.642   6.336  0.1265 -0.1292  0.3331
  997loPI   GL214256  15.982  16.008   6.362 -0.1548  0.1616 -0.0089
  997loPI   C1A14257  15.947  15.690   6.794  0.0800 -0.1820 -0.0253
  997loPI   C2A14258  16.034  15.516   7.210 -0.0968  0.0291 -0.3583
  997loPI   C3A14259  16.436  15.309   7.361 -0.1674 -0.1377  0.0274
  997loPI   C4A14260  16.574  15.206   7.721 -0.0827  0.2602  0.0022
  997loPI   C5A14261  16.801  14.938   8.010  0.2730 -0.2649 -0.1728
  997loPI   C6A14262  16.712  14.381   8.072  0.2647  0.0514  0.0339
  997loPI   C1B14263  16.430  15.781   6.565 -0.1945  0.2188  0.0817
  997loPI   C2B14264  16.871  15.582   6.708  0.0441 -0.1719  0.3543
  997loPI   C3B14265  17.107  15.234   6.846  0.0730  0.0161  0.2253
  997loPI   C4B14266  16.916  15.128   7.236  0.1100 -0.1825  0.1462
  998loPI    C114267  11.531   3.138   5.207  0.1232 -0.0049 -0.1589
  998loPI    C214268  11.436   3.514   5.108 -0.0505  0.0330  0.1379
  998loPI    C314269  11.174   3.218   5.046  0.0010 -0.0062  0.1064
  998loPI   PO414270  11.698   3.188   5.465  0.2119 -0.0808  0.2382
  998loPI   GL114271  11.649   3.271   5.836  0.2352  0.1395  0.1167
  998loPI   GL214272  11.714   3.052   6.076  0.0945 -0.0580  0.0866
  998loPI   C1A14273  11.650   3.523   6.221 -0.1540 -0.2383  0.0233
  998loPI   C2A14274  11.662   3.844   6.452 -0.3582 -0.1186  0.1002
  998loPI   C3A14275  11.476   4.074   6.809  0.3162  0.0713 -0.1294
  998loPI   C4A14276  11.403   4.040   7.265  0.1788 -0.0273 -0.0435
  998loPI   C5A14277  11.541   3.784   7.608 -0.1132  0.3100 -0.2835
  998loPI   C6A14278  11.778   3.546   7.911  0.0429  0.0852 -0.0313
  998loPI   C1B14279  11.895   3.005   6.383 -0.0564 -0.0390  0.0287
  998loPI   C2B14280  11.969   3.139   6.780  0.0017 -0.0493  0.2110
  998loPI   C3B14281  12.263   3.211   7.118 -0.0789 -0.0376 -0.1382
  998loPI   C4B14282  12.567   3.323   7.511 -0.0312 -0.1308  0.1161
  999loPI    C114283   4.053  15.076   5.593  0.0221  0.2521  0.0615
  999loPI    C214284   4.445  15.125   5.531  0.0601 -0.1240 -0.0232
  999loPI    C314285   4.193  15.122   5.221 -0.0040  0.0519  0.0258
  999loPI   PO414286   4.105  14.912   5.851  0.1425  0.0923 -0.0917
  999loPI   GL114287   4.214  14.916   6.355  0.3107  0.0291  0.1019
  999loPI   GL214288   4.449  15.153   6.532 -0.2167  0.3042 -0.2966
  999loPI   C1A14289   4.383  14.546   6.554  0.0560 -0.0058  0.3519
  999loPI   C2A14290   4.312  14.436   6.876  0.5448  0.0386 -0.0302
  999loPI   C3A14291   4.341  14.405   7.354  0.1069 -0.0539 -0.0659
  999loPI   C4A14292   4.386  14.154   7.642 -0.0201  0.1098  0.1263
  999loPI   C5A14293   4.550  13.831   7.784 -0.1736  0.0459  0.0114
  999loPI   C6A14294   4.624  13.380   7.667 -0.0367 -0.1684 -0.0448
  999loPI   C1B14295   4.251  15.619   6.798 -0.2572  0.0286 -0.2368
  999loPI   C2B14296   4.082  15.661   7.258 -0.0391 -0.0392  0.0305
  999loPI   C3B14297   4.106  15.755   7.625  0.2412 -0.0775 -0.2779
  999loPI   C4B14298   4.088  15.965   8.014  0.1489  0.1388  0.2601
 1000loPI    C114299  13.119   5.239   5.988  0.2781 -0.2171  0.1065
 1000loPI    C214300  13.446   5.153   5.775  0.1068 -0.0506 -0.2322
 1000loPI    C314301  13.182   5.420   5.637 -0.0724 -0.0323  0.1340
 1000loPI   PO414302  13.147   5.246   6.243 -0.1229  0.1481  0.0171
 1000loPI   GL114303  13.371   5.372   6.680  0.0130 -0.1352 -0.1733
 1000loPI   GL214304  13.053   5.290   6.721  0.1259 -0.4444 -0.0390
 1000loPI   C1A14305  13.520   5.022   6.816 -0.1821  0.1057 -0.0604
 1000loPI   C2A14306  13.798   4.742   7.121  0.0482 -0.1649 -0.2542
 1000loPI   C3A14307  13.845   4.383   7.440 -0.1189  0.1420 -0.1801
 1000loPI   C4A14308  13.822   4.223   7.848  0.0530 -0.0051  0.0351
 1000loPI   C5A14309  14.075   4.044   8.069  0.0029  0.2263 -0.0016
 1000loPI   C6A14310  14.347   3.762   8.203 -0.2015 -0.3071 -0.0488
 1000loPI   C1B14311  12.745   5.437   7.088 -0.4036 -0.1286 -0.2574
 1000loPI   C2B14312  12.771   5.530   7.506  0.0564 -0.1094  0.2909
 1000loPI   C3B14313  12.715   5.593   7.906  0.1645  0.0528 -0.0991
 1000loPI   C4B14314  12.969   5.776   8.106  0.3702 -0.1539  0.3016
 1001loPI    C114315   2.952   7.808   5.764 -0.0422 -0.0534 -0.0257
 1001loPI    C214316   2.941   8.139   5.541 -0.1288  0.0256  0.0946
 1001loPI    C314317   2.896   7.781   5.369 -0.2265  0.0873 -0.0103
 1001loPI   PO414318   2.832   7.867   5.998 -0.1626  0.1985 -0.2752
 1001loPI   GL114319   3.137   7.872   6.284 -0.2030 -0.0064  0.1400
 1001loPI   GL214320   3.435   7.829   6.322  0.0359 -0.2826  0.0469
 1001loPI   C1A14321   2.884   7.568   6.576  0.2703  0.1565  0.0193
 1001loPI   C2A14322   2.847   7.580   7.011 -0.1513 -0.1354  0.0789
 1001loPI   C3A14323   2.740   7.711   7.387  0.0170 -0.1135  0.0069
 1001loPI   C4A14324   2.641   7.757   7.780 -0.0773  0.4586  0.2039
 1001loPI   C5A14325   2.787   8.116   7.946  0.0778 -0.1172  0.0282
 1001loPI   C6A14326   2.978   8.418   8.213 -0.0328 -0.3220  0.0625
 1001loPI   C1B14327   3.848   7.689   6.552 -0.1908 -0.1333  0.1139
 1001loPI   C2B14328   3.895   7.607   6.888  0.4100  0.1853  0.1649
 1001loPI   C3B14329   4.103   7.440   7.290 -0.1363 -0.2254 -0.0130
 1001loPI   C4B14330   4.135   7.400   7.685 -0.1071 -0.0540 -0.2399
 1002loPI    C114331   7.612  10.929   5.482 -0.1833 -0.0989  0.0954
 1002loPI    C214332   7.344  10.797   5.216 -0.0551 -0.2407  0.0352
 1002loPI    C314333   7.539  11.140   5.150 -0.2824 -0.0928  0.1210
 1002loPI   PO414334   7.514  10.897   5.711 -0.1889  0.1299 -0.1058
 1002loPI   GL114335   7.215  11.049   6.135 -0.2942  0.0049  0.1312
 1002loPI   GL214336   7.069  10.983   5.957 -0.0434  0.2437  0.2659
 1002loPI   C1A14337   7.232  10.963   6.554  0.1898 -0.2173 -0.0570
 1002loPI   C2A14338   7.305  11.167   6.914  0.1663 -0.1646  0.0575
 1002loPI   C3A14339   7.317  11.053   7.382  0.1801 -0.2045  0.2443
 1002loPI   C4A14340   7.338  10.891   7.809  0.1334  0.2986 -0.4787
 1002loPI   C5A14341   7.633  10.657   8.004  0.1350 -0.5129  0.0338
 1002loPI   C6A14342   7.946  10.352   7.852  0.1842  0.0875  0.2236
 1002loPI   C1B14343   7.216  10.546   6.243 -0.0373 -0.1865  0.0680
 1002loPI   C2B14344   7.273  10.336   6.598  0.1631 -0.2191 -0.0044
 1002loPI   C3B14345   7.440  10.274   7.070  0.2746 -0.0605  0.2495
 1002loPI   C4B14346   7.386   9.926   7.356 -0.1334 -0.2080 -0.1287
 1003loPI    C114347   1.604   1.520   5.407  0.1631  0.2095  0.0446
 1003loPI    C214348   1.337   1.772   5.248 -0.0678 -0.1002 -0.0679
 1003loPI    C314349   1.664   1.670   5.041 -0.0712 -0.0434 -0.1014
 1003loPI   PO414350   1.388   1.290   5.456 -0.1641 -0.1062  0.3271
 1003loPI   GL114351   1.298   1.113   5.799 -0.0095  0.2502 -0.1451
 1003loPI   GL214352   1.497   1.416   5.963  0.2195 -0.2400  0.1092
 1003loPI   C1A14353   0.914   1.328   6.073  0.3145  0.0509  0.1780
 1003loPI   C2A14354   0.765   1.357   6.467 -0.1442  0.2146 -0.1771
 1003loPI   C3A14355   0.567   1.342   6.938  0.0808 -0.2806 -0.0239
 1003loPI   C4A14356   0.500   1.467   7.312 -0.0490 -0.1200 -0.2359
 1003loPI   C5A14357   0.459   1.503   7.742 -0.0439  0.3286 -0.0909
 1003loPI   C6A14358   0.272   1.746   8.002  0.0960  0.0139 -0.0189
 1003loPI   C1B14359   1.231   1.423   6.404 -0.1904 -0.1759  0.0484
 1003loPI   C2B14360   1.077   1.330   6.857 -0.3593  0.1190  0.3008
 1003loPI   C3B14361   1.097   1.271   7.234 -0.1509  0.1595  0.1768
 1003loPI   C4B14362   0.943   1.300   7.623 -0.0433 -0.0610  0.4354
 1004loPI    C114363   4.157   9.141   5.948  0.1124 -0.1144 -0.2194
 1004loPI    C214364   4.311   9.307   5.618  0.0936  0.3689  0.0070
 1004loPI    C314365   3.914   9.288   5.667  0.0904  0.0383 -0.1215
 1004loPI   PO414366   4.336   9.336   6.170 -0.0287  0.0316 -0.2239
 1004loPI   GL114367   4.200   9.439   6.579 -0.0589  0.2325  0.2143
 1004loPI   GL214368   4.026   9.645   6.364  0.1629 -0.0257 -0.0331
 1004loPI   C1A14369   4.128   9.574   7.022  0.0042 -0.1328  0.1071
 1004loPI   C2A14370   4.105   9.722   7.472  0.1158 -0.0309  0.0483
 1004loPI   C3A14371   4.198   9.344   7.800 -0.0479  0.0747 -0.1675
 1004loPI   C4A14372   4.672   9.125   7.863  0.1643 -0.1862 -0.0518
 1004loPI   C5A14373   5.065   8.850   7.903  0.0580  0.2617  0.2511
 1004loPI   C6A14374   5.418   8.654   7.699  0.1495 -0.0977 -0.1260
 1004loPI   C1B14375   3.973   9.972   6.698 -0.1796  0.0989 -0.3576
 1004loPI   C2B14376   4.026  10.089   7.000  0.4373 -0.2565 -0.0570
 1004loPI   C3B14377   3.828  10.166   7.368 -0.3872 -0.2195 -0.2086
 1004loPI   C4B14378   3.801  10.164   7.851 -0.0106 -0.0913  0.2164
 1005loPI    C114379   4.801   4.485   5.463 -0.0538  0.0123  0.0517
 1005loPI    C214380   4.613   4.827   5.377  0.0284 -0.0001 -0.1873
 1005loPI    C314381   4.424   4.478   5.330 -0.0449  0.0091  0.0264
 1005loPI   PO414382   4.869   4.521   5.709 -0.3291 -0.0509  0.2706
 1005loPI   GL114383   4.889   4.671   6.147  0.3318  0.1641 -0.1972
 1005loPI   GL214384   4.686   4.516   6.299  0.0958  0.1700 -0.0841
 1005loPI   C1A14385   4.760   4.735   6.720  0.0836  0.1027 -0.0792
 1005loPI   C2A14386   4.751   4.714   7.152  0.2880  0.2465 -0.3365
 1005loPI   C3A14387   4.782   4.685   7.592  0.0454  0.0030 -0.1643
 1005loPI   C4A14388   4.863   4.404   8.000 -0.2594 -0.0405 -0.1305
 1005loPI   C5A14389   5.118   4.180   8.174 -0.3027  0.0337 -0.0977
 1005loPI   C6A14390   5.405   4.122   8.428  0.0859  0.0786 -0.2305
 1005loPI   C1B14391   4.312   4.796   6.490  0.2642  0.2254 -0.0731
 1005loPI   C2B14392   4.271   4.826   6.922  0.0634 -0.2000  0.0348
 1005loPI   C3B14393   4.266   4.683   7.380 -0.2559 -0.0153 -0.1194
 1005loPI   C4B14394   4.113   4.528   7.771  0.3034 -0.0568  0.1619
 1006loPI    C114395  11.090  13.965   5.554 -0.2033  0.0593 -0.0009
 1006loPI    C214396  11.446  13.991   5.373 -0.1380  0.1365  0.1361
 1006loPI    C314397  11.180  13.716   5.254  0.0512 -0.0664  0.1757
 1006loPI   PO414398  11.258  14.030   5.836 -0.0094 -0.0292 -0.0501
 1006loPI   GL114399  11.252  13.964   6.333  0.0787 -0.1883  0.0429
 1006loPI   GL214400  11.649  13.838   6.191  0.1718  0.1314  0.1843
 1006loPI   C1A14401  11.265  13.869   6.626 -0.1634  0.1786  0.1817
 1006loPI   C2A14402  11.313  13.948   7.049 -0.1254  0.3725 -0.0310
 1006loPI   C3A14403  11.352  13.992   7.475  0.0957  0.0476 -0.1155
 1006loPI   C4A14404  11.300  14.248   7.834 -0.1347  0.3201  0.1919
 1006loPI   C5A14405  11.487  14.402   8.240  0.0786  0.0673  0.2716
 1006loPI   C6A14406  11.579  14.694   8.422 -0.1084 -0.1369  0.0582
 1006loPI   C1B14407  11.784  13.903   6.732  0.1324  0.1003 -0.2253
 1006loPI   C2B14408  11.821  13.919   7.261 -0.1115  0.3754  0.0167
 1006loPI   C3B14409  11.780  14.083   7.733 -0.0750  0.1510 -0.0281
 1006loPI   C4B14410  11.863  13.826   8.098 -0.0122 -0.2547  0.0135
 1007loPI    C114411   0.158   7.654   6.065 -0.1516  0.0309 -0.1993
 1007loPI    C214412   0.180   8.045   5.985 -0.1722  0.0676 -0.0290
 1007loPI    C314413   0.371   7.783   5.751 -0.1162  0.1829 -0.1140
 1007loPI   PO414414   0.219   7.620   6.278 -0.1682 -0.0454  0.1891
 1007loPI   GL114415   0.492   7.397   6.497 -0.2686  0.0841 -0.0724
 1007loPI   GL214416   0.792   7.575   6.491 -0.2219 -0.3564  0.1760
 1007loPI   C1A14417   0.223   7.089   6.680  0.3103  0.0909  0.1893
 1007loPI   C2A14418  -0.013   7.171   7.078  0.3000  0.0995  0.1947
 1007loPI   C3A14419   0.016   7.255   7.590 -0.1210 -0.0415 -0.1763
 1007loPI   C4A14420   0.122   7.519   7.945  0.0910  0.1632 -0.0973
 1007loPI   C5A14421   0.242   7.631   8.377 -0.0571 -0.1531 -0.1500
 1007loPI   C6A14422   0.537   7.632   8.631 -0.2465 -0.2567 -0.0672
 1007loPI   C1B14423   0.649   7.397   6.980 -0.1143 -0.0833  0.2438
 1007loPI   C2B14424   0.461   7.381   7.390 -0.1635 -0.1427  0.2282
 1007loPI   C3B14425   0.506   7.301   7.769 -0.0582  0.0329 -0.0758
 1007loPI   C4B14426   0.640   7.344   8.202 -0.1532 -0.0386  0.0584
 1008loPI    C114427   3.905   4.355   5.876  0.0811  0.1637 -0.1707
 1008loPI    C214428   3.585   4.364   5.636  0.0167  0.0709 -0.0889
 1008loPI    C314429   3.949   4.307   5.481 -0.0421 -0.1489 -0.1487
 1008loPI   PO414430   3.939   4.565   6.048 -0.0253  0.1427  0.1324
 1008loPI   GL114431   3.770   4.685   6.383 -0.1849  0.0483 -0.0884
 1008loPI   GL214432   3.867   4.950   6.438  0.0066 -0.1863  0.2874
 1008loPI   C1A14433   3.923   4.533   6.741 -0.2633  0.1144 -0.2331
 1008loPI   C2A14434   3.892   4.364   7.123  0.0117 -0.0120  0.0880
 1008loPI   C3A14435   3.771   4.283   7.512 -0.3688  0.2967  0.3906
 1008loPI   C4A14436   3.721   4.327   8.025 -0.0217 -0.1764  0.0595
 1008loPI   C5A14437   3.806   4.653   8.348  0.1986  0.1586  0.2010
 1008loPI   C6A14438   3.727   4.884   8.768  0.2323  0.4769 -0.1783
 1008loPI   C1B14439   3.763   4.955   6.983  0.0249  0.0371 -0.2991
 1008loPI   C2B14440   3.633   5.114   7.411 -0.4166  0.3211  0.0034
 1008loPI   C3B14441   3.559   5.148   7.971  0.0421 -0.0586 -0.0547
 1008loPI   C4B14442   3.536   5.264   8.426  0.0794 -0.0182 -0.2106
 1009loPI    C114443   3.262   1.400   5.560  0.0370  0.0466  0.1627
 1009loPI    C214444   3.605   1.357   5.359 -0.0837 -0.0368 -0.0282
 1009loPI    C314445   3.256   1.342   5.165 -0.2023 -0.1065  0.1867
 1009loPI   PO414446   3.328   1.619   5.729 -0.0253  0.1004 -0.2770
 1009loPI   GL114447   3.340   1.814   6.098  0.1695  0.3616  0.2228
 1009loPI   GL214448   3.696   1.681   6.166 -0.0779  0.1134 -0.2745
 1009loPI   C1A14449   3.177   1.636   6.499 -0.0918 -0.3523 -0.1829
 1009loPI   C2A14450   3.163   1.700   6.880  0.0260  0.2520 -0.0417
 1009loPI   C3A14451   3.012   1.813   7.270  0.0209  0.0614  0.3108
 1009loPI   C4A14452   3.167   1.733   7.526  0.0227  0.1186  0.3331
 1009loPI   C5A14453   3.052   1.612   7.813  0.1552  0.0256  0.0318
 1009loPI   C6A14454   2.682   1.276   7.869 -0.3333  0.1221  0.2554
 1009loPI   C1B14455   4.058   1.720   6.532 -0.2741 -0.3029  0.0059
 1009loPI   C2B14456   4.061   1.794   7.018  0.2422 -0.0815  0.1925
 1009loPI   C3B14457   4.060   1.847   7.401 -0.1622  0.0521 -0.4375
 1009loPI   C4B14458   3.954   1.779   7.848 -0.1620 -0.0092 -0.2821
 1010loPI    C114459   9.103  17.837   5.502  0.0975  0.1078 -0.0749
 1010loPI    C214460   8.828  18.089   5.355  0.0279  0.0738 -0.0038
 1010loPI    C314461   8.840  17.709   5.229  0.1548  0.1208 -0.1363
 1010loPI   PO414462   9.228  18.081   5.747  0.0740 -0.0479  0.1267
 1010loPI   GL114463   9.349  18.103   6.144 -0.1725 -0.1004 -0.0900
 1010loPI   GL214464   8.943  18.251   6.168 -0.0774 -0.1970 -0.2979
 1010loPI   C1A14465   9.490  17.943   6.550 -0.0235 -0.0186  0.0041
 1010loPI   C2A14466   9.414  17.973   7.017 -0.2074 -0.0788 -0.1762
 1010loPI   C3A14467   9.628  17.986   7.451 -0.0427 -0.2048 -0.1744
 1010loPI   C4A14468   9.443  17.824   7.744 -0.4337 -0.2603  0.0988
 1010loPI   C5A14469   9.115  17.801   8.075 -0.1622 -0.1106  0.0769
 1010loPI   C6A14470   8.941  17.900   8.408 -0.1979 -0.3691  0.0855
 1010loPI   C1B14471   8.930  18.227   6.549 -0.2581  0.4355  0.3550
 1010loPI   C2B14472   9.074  18.292   6.952 -0.0742 -0.0107  0.1366
 1010loPI   C3B14473   9.220  18.240   7.379  0.0299  0.0685 -0.3946
 1010loPI   C4B14474   9.218  18.420   7.842 -0.1489 -0.0682  0.0586
 1011loPI    C114475  15.711  14.802   5.631  0.2366 -0.0695 -0.1236
 1011loPI    C214476  15.983  14.902   5.355 -0.0870  0.1670 -0.3657
 1011loPI    C314477  15.642  15.109   5.384 -0.2598 -0.1458 -0.0905
 1011loPI   PO414478  15.825  14.557   5.716 -0.0476  0.0933  0.3935
 1011loPI   GL114479  16.133  14.490   6.039 -0.0572  0.2431 -0.2715
 1011loPI   GL214480  16.337  14.740   6.187 -0.3009 -0.0977  0.2080
 1011loPI   C1A14481  16.074  14.309   6.430  0.1384 -0.1303 -0.1615
 1011loPI   C2A14482  16.037  14.078   6.786 -0.2364 -0.4371 -0.1363
 1011loPI   C3A14483  16.141  13.867   7.048 -0.0055 -0.1149 -0.0125
 1011loPI   C4A14484  16.082  13.781   7.450  0.1805  0.1670  0.2172
 1011loPI   C5A14485  15.942  14.116   7.717  0.2377  0.1433 -0.0742
 1011loPI   C6A14486  15.725  14.344   8.148 -0.4814 -0.0080 -0.0345
 1011loPI   C1B14487  16.294  14.728   6.630  0.0004 -0.1963  0.0159
 1011loPI   C2B14488  16.039  14.544   6.927  0.1470 -0.0009  0.0023
 1011loPI   C3B14489  15.756  14.252   7.146  0.0508  0.1948  0.1203
 1011loPI   C4B14490  15.531  14.367   7.476 -0.0015  0.1102 -0.0624
 1012loPI    C114491   4.843   1.856   5.769  0.0664 -0.2904 -0.0635
 1012loPI    C214492   4.826   1.971   5.386 -0.0349 -0.0881  0.0001
 1012loPI    C314493   4.493   1.856   5.574 -0.0212  0.0156  0.0884
 1012loPI   PO414494   5.007   2.015   5.943  0.0237 -0.1859 -0.1634
 1012loPI   GL114495   5.053   2.514   6.102  0.0618 -0.1587 -0.0354
 1012loPI   GL214496   4.670   2.385   6.145  0.2349  0.1631  0.3190
 1012loPI   C1A14497   5.067   2.648   6.517  0.0258  0.1983 -0.1409
 1012loPI   C2A14498   4.872   2.656   6.981  0.1763 -0.2208  0.1111
 1012loPI   C3A14499   4.867   2.736   7.426 -0.0255 -0.1466  0.1672
 1012loPI   C4A14500   4.804   2.875   7.794  0.3527 -0.1011  0.1073
 1012loPI   C5A14501   4.565   2.682   8.216 -0.0692 -0.0884 -0.1398
 1012loPI   C6A14502   4.428   2.465   8.528  0.1299 -0.2323 -0.1227
 1012loPI   C1B14503   4.361   2.138   6.319 -0.1811  0.0214 -0.0559
 1012loPI   C2B14504   4.111   2.252   6.684  0.0601 -0.4411  0.3208
 1012loPI   C3B14505   3.977   2.368   7.096  0.0055 -0.0240 -0.1733
 1012loPI   C4B14506   4.016   2.326   7.475 -0.1717 -0.2657 -0.2385
 1013POPI    C114507   2.406   5.717   5.538  0.1416 -0.2090  0.1464
 1013POPI    C214508   2.637   5.929   5.290  0.2834 -0.0410  0.4168
 1013POPI    C314509   2.238   5.963   5.270  0.2806 -0.2403  0.0296
 1013POPI   PO414510   2.599   5.652   5.741 -0.1370 -0.0968  0.0973
 1013POPI   GL114511   2.625   5.547   6.017  0.2241  0.2361 -0.2572
 1013POPI   GL214512   2.604   5.307   6.250  0.2867  0.2655  0.0102
 1013POPI   C1A14513   2.674   5.758   6.393  0.4563 -0.0711  0.0421
 1013POPI   D2A14514   2.695   6.159   6.507  0.2195 -0.1969 -0.1706
 1013POPI   C3A14515   2.723   6.149   7.011  0.1209 -0.0407 -0.1611
 1013POPI   C4A14516   2.974   6.315   7.328  0.1200 -0.0283 -0.1175
 1013POPI   C1B14517   2.488   5.187   6.693  0.0921  0.2752  0.1021
 1013POPI   C2B14518   2.353   5.232   7.051 -0.2783  0.0821 -0.3283
 1013POPI   C3B14519   2.405   5.105   7.517  0.0287  0.0282  0.8165
 1013POPI   C4B14520   2.379   5.205   7.961 -0.3129 -0.1091  0.2512
 1014POPI    C114521  17.744  10.988   5.820  0.0270 -0.1470  0.1238
 1014POPI    C214522  17.652  10.843   5.458  0.0066  0.2710 -0.0438
 1014POPI    C314523  18.026  10.813   5.596 -0.0365 -0.0965  0.0035
 1014POPI   PO414524  17.588  11.214   5.880 -0.1104  0.3688  0.1551
 1014POPI   GL114525  17.558  11.435   6.127 -0.0510 -0.0340  0.1910
 1014POPI   GL214526  17.344  11.671   6.163  0.1135 -0.1368 -0.2239
 1014POPI   C1A14527  17.777  11.402   6.486  0.2748  0.2176 -0.0001
 1014POPI   D2A14528  17.681  11.429   6.900  0.0602 -0.5063 -0.0330
 1014POPI   C3A14529  17.626  11.474   7.389  0.1029  0.2278  0.0088
 1014POPI   C4A14530  17.702  11.403   7.802 -0.0661 -0.0223 -0.1378
 1014POPI   C1B14531  17.403  11.694   6.601 -0.2005 -0.0669  0.3232
 1014POPI   C2B14532  17.366  11.914   6.955 -0.3288 -0.0948  0.1299
 1014POPI   C3B14533  17.382  11.905   7.305 -0.0355 -0.0140 -0.0329
 1014POPI   C4B14534  17.358  11.785   7.781  0.1726  0.0025 -0.1370
 1015POPI    C114535  12.768   4.146   5.150 -0.0528  0.1764  0.1624
 1015POPI    C214536  12.990   4.467   5.063 -0.0768  0.1265 -0.0912
 1015POPI    C314537  13.157   4.103   5.066 -0.1158  0.1084 -0.1064
 1015POPI   PO414538  12.620   4.251   5.294 -0.0805 -0.0131 -0.2665
 1015POPI   GL114539  12.604   4.361   5.783 -0.1015  0.0555  0.0101
 1015POPI   GL214540  12.612   4.519   6.042 -0.1510  0.4352  0.3594
 1015POPI   C1A14541  12.204   4.335   6.024 -0.3656  0.3918 -0.1360
 1015POPI   D2A14542  12.074   4.627   6.271 -0.0927 -0.1328  0.2943
 1015POPI   C3A14543  11.947   4.593   6.746  0.0771 -0.2305  0.1428
 1015POPI   C4A14544  11.738   4.374   7.144  0.2146  0.1373 -0.2088
 1015POPI   C1B14545  12.507   4.398   6.437 -0.1007 -0.0908 -0.1444
 1015POPI   C2B14546  12.363   4.282   6.880 -0.2666 -0.1219  0.2505
 1015POPI   C3B14547  12.240   4.411   7.358  0.0166  0.1440 -0.2128
 1015POPI   C4B14548  12.021   4.577   7.659 -0.0081 -0.1180 -0.0605
 1016POPI    C114549  10.887  15.836   5.937 -0.0456 -0.1100  0.0014
 1016POPI    C214550  10.913  15.439   5.900  0.0381 -0.1102  0.0598
 1016POPI    C314551  11.088  15.677   5.630  0.0690 -0.1129  0.0773
 1016POPI   PO414552  10.919  15.870   6.240  0.0622  0.1599  0.1182
 1016POPI   GL114553  10.949  15.636   6.531  0.0309  0.1274  0.5983
 1016POPI   GL214554  11.080  15.340   6.410  0.2505  0.2212  0.2851
 1016POPI   C1A14555  10.978  15.701   6.946 -0.0070  0.2013  0.0640
 1016POPI   D2A14556  10.910  15.903   7.340  0.0608  0.1858 -0.1200
 1016POPI   C3A14557  11.192  15.942   7.613 -0.1798  0.0539 -0.0166
 1016POPI   C4A14558  11.393  15.962   8.039  0.1254  0.0832 -0.0248
 1016POPI   C1B14559  11.184  15.277   6.827  0.1381  0.0964  0.1709
 1016POPI   C2B14560  10.986  15.344   7.293 -0.0235 -0.4167  0.2717
 1016POPI   C3B14561  10.771  15.424   7.639 -0.2853 -0.0240 -0.0851
 1016POPI   C4B14562  10.543  15.503   8.024  0.1154  0.0359 -0.3331
 1017POPI    C114563  12.971   3.791   5.408  0.0499  0.0744 -0.3615
 1017POPI    C214564  12.832   3.496   5.176 -0.0181 -0.2319  0.0558
 1017POPI    C314565  13.225   3.564   5.200 -0.0057 -0.2537 -0.0817
 1017POPI   PO414566  12.840   3.845   5.616  0.1629  0.0752 -0.0790
 1017POPI   GL114567  12.892   4.000   5.999 -0.1493  0.2116  0.0811
 1017POPI   GL214568  13.052   4.239   6.090 -0.1678  0.0900  0.2416
 1017POPI   C1A14569  13.175   3.819   6.338 -0.1014 -0.2940 -0.1742
 1017POPI   D2A14570  13.547   3.517   6.399  0.3645 -0.0540  0.1804
 1017POPI   C3A14571  13.883   3.646   6.771  0.0901 -0.0548  0.0918
 1017POPI   C4A14572  14.264   3.723   6.833  0.1948  0.1966  0.0369
 1017POPI   C1B14573  13.059   4.276   6.494 -0.0408 -0.2935  0.1351
 1017POPI   C2B14574  12.823   4.404   6.898  0.0061  0.0510 -0.1590
 1017POPI   C3B14575  12.769   4.522   7.325  0.0311 -0.1984 -0.2228
 1017POPI   C4B14576  12.608   4.458   7.724 -0.0505  0.1721 -0.1968
 1018POPI    C114577   3.182  15.313   5.511  0.1417  0.1333 -0.2721
 1018POPI    C214578   2.916  15.611   5.498 -0.1169 -0.0730  0.1007
 1018POPI    C314579   2.800  15.237   5.420 -0.0126 -0.2099  0.5704
 1018POPI   PO414580   3.303  15.334   5.768  0.1632  0.0335  0.1007
 1018POPI   GL114581   3.243  15.299   6.231  0.1812  0.2874  0.1501
 1018POPI   GL214582   3.252  15.037   6.170 -0.0215  0.1267 -0.1576
 1018POPI   C1A14583   3.371  15.535   6.549  0.0152 -0.1968 -0.1398
 1018POPI   D2A14584   3.694  15.712   6.806 -0.0537  0.0037  0.2117
 1018POPI   C3A14585   3.685  15.404   7.197 -0.1073  0.2291  0.1068
 1018POPI   C4A14586   3.823  15.322   7.573 -0.2023 -0.3448 -0.0102
 1018POPI   C1B14587   3.283  15.043   6.609  0.1369  0.1795  0.0329
 1018POPI   C2B14588   3.520  15.121   6.820  0.0062  0.2592  0.1003
 1018POPI   C3B14589   3.974  15.229   6.713 -0.3125 -0.1373 -0.3204
 1018POPI   C4B14590   4.036  15.476   6.338 -0.1762  0.0479 -0.3211
 1019POPI    C114591   1.533  13.054   5.619  0.1398  0.0032 -0.0727
 1019POPI    C214592   1.636  12.670   5.663 -0.0010 -0.0192  0.0731
 1019POPI    C314593   1.431  12.786   5.340  0.0059 -0.0742  0.0488
 1019POPI   PO414594   1.370  13.115   5.881 -0.0822  0.1480  0.1367
 1019POPI   GL114595   1.448  13.153   6.338  0.2749 -0.2025  0.0132
 1019POPI   GL214596   1.085  13.092   6.311  0.0353  0.0646 -0.1575
 1019POPI   C1A14597   1.244  13.550   6.607  0.0104 -0.1153 -0.3864
 1019POPI   D2A14598   1.109  13.782   7.084 -0.1601  0.1055  0.2855
 1019POPI   C3A14599   1.203  13.720   7.448  0.3649  0.1300  0.0859
 1019POPI   C4A14600   1.346  13.653   7.868  0.1715 -0.0287  0.0200
 1019POPI   C1B14601   1.173  13.087   6.805  0.1901  0.0036  0.2399
 1019POPI   C2B14602   1.068  12.865   7.168  0.2764  0.0461 -0.0117
 1019POPI   C3B14603   1.085  12.771   7.519  0.1573 -0.3484 -0.0011
 1019POPI   C4B14604   1.389  12.684   7.913 -0.2705 -0.0595  0.2495
 1020POPI    C114605  14.281  13.113   5.745 -0.1918 -0.0868  0.0361
 1020POPI    C214606  14.077  13.378   5.527 -0.0108  0.0443  0.0241
 1020POPI    C314607  14.223  13.048   5.355  0.0838  0.1202 -0.0420
 1020POPI   PO414608  14.491  13.271   5.861 -0.0845  0.2394 -0.2132
 1020POPI   GL114609  14.477  13.491   6.174 -0.0767  0.2563  0.0185
 1020POPI   GL214610  14.582  13.700   6.389  0.2433  0.1987  0.2469
 1020POPI   C1A14611  14.088  13.563   6.488 -0.1682 -0.1836 -0.2230
 1020POPI   D2A14612  14.151  13.898   6.799  0.1464  0.1468  0.0290
 1020POPI   C3A14613  14.264  14.308   6.598  0.0989 -0.1839 -0.0162
 1020POPI   C4A14614  14.435  14.643   6.726 -0.0582 -0.2960 -0.1562
 1020POPI   C1B14615  14.638  13.740   6.895  0.2349 -0.0148  0.2513
 1020POPI   C2B14616  14.625  13.783   7.323  0.1930 -0.0423 -0.0957
 1020POPI   C3B14617  14.829  14.100   7.531  0.0202  0.1027 -0.0746
 1020POPI   C4B14618  15.188  14.127   7.798  0.0562 -0.0324 -0.1046
 1021POPI    C114619   6.356  16.590   5.925  0.0366 -0.2799  0.0530
 1021POPI    C214620   6.169  16.866   5.704  0.0714 -0.0324  0.3272
 1021POPI    C314621   6.111  16.478   5.629 -0.2567  0.0443  0.1662
 1021POPI   PO414622   6.305  16.644   6.180  0.1741  0.4418  0.0465
 1021POPI   GL114623   6.333  16.432   6.627  0.0161  0.1220  0.3147
 1021POPI   GL214624   6.513  16.713   6.619  0.1001  0.3337 -0.0821
 1021POPI   C1A14625   6.121  16.582   6.997 -0.0493 -0.0277 -0.2330
 1021POPI   D2A14626   5.944  16.459   7.213  0.3074  0.2546 -0.1635
 1021POPI   C3A14627   5.903  16.465   7.707  0.0285 -0.0049  0.2083
 1021POPI   C4A14628   5.978  16.389   8.194  0.1910 -0.2950  0.0043
 1021POPI   C1B14629   6.631  16.584   7.064 -0.0464 -0.2445 -0.1209
 1021POPI   C2B14630   6.374  16.617   7.555  0.0951  0.0805 -0.0397
 1021POPI   C3B14631   6.297  16.747   8.012  0.0719 -0.0817  0.1753
 1021POPI   C4B14632   5.970  16.933   8.160 -0.0868 -0.0662  0.0969
 1022POPI    C114633   7.584   7.181   5.081  0.0637 -0.1246  0.0302
 1022POPI    C214634   7.679   7.382   4.749  0.0406 -0.0643  0.0599
 1022POPI    C314635   7.303   7.261   4.808  0.0225  0.0181  0.1139
 1022POPI   PO414636   7.673   7.275   5.267 -0.0381 -0.1499 -0.0820
 1022POPI   GL114637   7.572   7.293   5.685  0.0403 -0.3337  0.4011
 1022POPI   GL214638   7.922   7.166   5.735  0.0672 -0.1569  0.3353
 1022POPI   C1A14639   7.533   7.189   6.153  0.0793 -0.1180 -0.2965
 1022POPI   D2A14640   7.611   7.161   6.472 -0.0165  0.3454 -0.1705
 1022POPI   C3A14641   7.546   6.819   6.813  0.0735 -0.0206 -0.0182
 1022POPI   C4A14642   7.556   6.424   6.654  0.0292  0.0804 -0.0586
 1022POPI   C1B14643   8.083   7.140   6.154 -0.1077  0.0978  0.0041
 1022POPI   C2B14644   8.133   7.155   6.529 -0.3550 -0.1347 -0.2818
 1022POPI   C3B14645   8.090   7.175   7.007  0.0439  0.0181  0.0320
 1022POPI   C4B14646   7.842   7.056   7.354  0.0153  0.3097 -0.2455
 1023POPI    C114647   3.650   6.760   5.382  0.0324  0.0553 -0.0288
 1023POPI    C214648   4.034   6.873   5.378  0.0493 -0.0042 -0.1191
 1023POPI    C314649   3.751   7.119   5.238  0.0656  0.0003 -0.1441
 1023POPI   PO414650   3.615   6.695   5.657 -0.1908 -0.1387 -0.1413
 1023POPI   GL114651   3.477   6.852   6.103 -0.1875 -0.1130  0.0222
 1023POPI   GL214652   3.548   6.838   6.285 -0.0376 -0.0153  0.0335
 1023POPI   C1A14653   3.157   7.058   6.479 -0.1593 -0.0741  0.0924
 1023POPI   D2A14654   2.765   7.064   6.757 -0.0085 -0.1967 -0.0107
 1023POPI   C3A14655   2.481   7.190   7.103  0.2237  0.1062  0.1668
 1023POPI   C4A14656   2.555   7.241   7.586 -0.1100 -0.0605 -0.3935
 1023POPI   C1B14657   3.493   6.949   6.795 -0.1112  0.0830  0.0465
 1023POPI   C2B14658   3.195   7.006   7.056  0.3219  0.0230  0.0155
 1023POPI   C3B14659   3.052   7.165   7.374  0.0168  0.2074  0.1471
 1023POPI   C4B14660   3.051   7.362   7.705  0.0899 -0.1157  0.1006
 1024POPI    C114661  11.351  16.052   5.883 -0.1745 -0.0410 -0.0578
 1024POPI    C214662  11.147  16.250   5.602  0.0515  0.0081 -0.1901
 1024POPI    C314663  11.462  16.026   5.500  0.0388 -0.1019  0.0068
 1024POPI   PO414664  11.415  16.299   6.029  0.1686  0.1877  0.2027
 1024POPI   GL114665  11.563  16.530   6.385 -0.0410 -0.1607  0.1869
 1024POPI   GL214666  11.817  16.410   6.356 -0.1264 -0.0337 -0.7431
 1024POPI   C1A14667  11.518  16.363   6.807 -0.0127 -0.1730 -0.0227
 1024POPI   D2A14668  11.242  16.217   7.113 -0.2021 -0.1045  0.0383
 1024POPI   C3A14669  11.109  16.378   7.525  0.0733  0.1122 -0.1030
 1024POPI   C4A14670  11.352  16.674   7.745  0.1217 -0.1644 -0.3027
 1024POPI   C1B14671  12.108  16.528   6.686  0.2229  0.3148  0.1387
 1024POPI   C2B14672  12.016  16.579   7.002  0.1322  0.0063 -0.0289
 1024POPI   C3B14673  12.112  16.481   7.321  0.0579 -0.0930 -0.0357
 1024POPI   C4B14674  12.030  16.505   7.770 -0.2733  0.0214  0.1741
 1025POPI    C114675  10.078   1.989   5.670  0.0737 -0.0418 -0.0344
 1025POPI    C214676  10.225   1.776   5.364 -0.1798 -0.3727  0.0678
 1025POPI    C314677  10.083   2.144   5.301  0.3951 -0.1653 -0.0861
 1025POPI   PO414678  10.289   1.851   5.868  0.1152 -0.1464 -0.4146
 1025POPI   GL114679  10.362   1.888   6.249  0.2302  0.0778 -0.1397
 1025POPI   GL214680  10.597   1.786   6.525 -0.2020  0.0815 -0.3328
 1025POPI   C1A14681  10.189   2.099   6.613  0.1567 -0.1091  0.0187
 1025POPI   D2A14682  10.388   2.258   6.952 -0.0567 -0.0274  0.1326
 1025POPI   C3A14683  10.292   2.419   7.382  0.0539  0.0636  0.1405
 1025POPI   C4A14684  10.029   2.720   7.535  0.0979  0.0438 -0.0104
 1025POPI   C1B14685  10.579   1.822   6.948 -0.1104  0.0174 -0.0516
 1025POPI   C2B14686  10.611   2.029   7.319 -0.1078  0.1119  0.0693
 1025POPI   C3B14687  10.775   1.951   7.695  0.1431  0.0858 -0.0623
 1025POPI   C4B14688  10.721   1.748   8.075 -0.3346 -0.0473  0.0277
 1026POPI    C114689  13.895  11.531   5.989 -0.0231 -0.1133  0.1897
 1026POPI    C214690  13.775  11.348   5.655  0.0477 -0.1112  0.1629
 1026POPI    C314691  13.543  11.626   5.825  0.1275  0.0774 -0.0307
 1026POPI   PO414692  13.950  11.328   6.108 -0.0791 -0.1753  0.1384
 1026POPI   GL114693  13.725  11.155   6.434  0.1564  0.0473 -0.3236
 1026POPI   GL214694  13.552  11.290   6.447  0.2625  0.1132 -0.0671
 1026POPI   C1A14695  13.696  11.059   6.890  0.1876 -0.0310  0.0445
 1026POPI   D2A14696  13.922  11.080   7.284 -0.2815  0.1738  0.1435
 1026POPI   C3A14697  13.708  11.289   7.580 -0.2611 -0.4015 -0.3762
 1026POPI   C4A14698  13.428  11.298   7.895 -0.0170  0.1050 -0.1740
 1026POPI   C1B14699  13.490  11.525   6.820  0.0720  0.4215  0.1870
 1026POPI   C2B14700  13.395  11.511   7.185  0.2763 -0.1149 -0.1604
 1026POPI   C3B14701  13.476  11.760   7.533 -0.2657  0.2404 -0.2253
 1026POPI   C4B14702  13.652  11.788   7.968 -0.1349  0.0709 -0.2209
 1027POPI    C114703  13.813  16.336   5.784 -0.0315 -0.0836  0.0639
 1027POPI    C214704  14.113  16.451   5.545 -0.1193 -0.0720 -0.0414
 1027POPI    C314705  13.745  16.402   5.395 -0.1876 -0.0088  0.1031
 1027POPI   PO414706  13.840  16.562   5.994  0.1537  0.2440 -0.0227
 1027POPI   GL114707  14.023  16.616   6.403  0.0301  0.0577 -0.1322
 1027POPI   GL214708  14.273  16.274   6.457 -0.0033 -0.0434 -0.2373
 1027POPI   C1A14709  14.008  16.905   6.729 -0.0901 -0.2596  0.0427
 1027POPI   D2A14710  14.301  16.974   7.081 -0.0304 -0.2005  0.1461
 1027POPI   C3A14711  14.698  16.921   7.107  0.0485  0.0322  0.2117
 1027POPI   C4A14712  14.901  16.728   6.839  0.1229  0.2218 -0.1165
 1027POPI   C1B14713  14.487  16.382   6.829 -0.1777 -0.1676  0.1302
 1027POPI   C2B14714  14.605  16.452   7.196 -0.0017 -0.1057  0.0310
 1027POPI   C3B14715  14.536  16.330   7.651 -0.4082  0.2597 -0.0206
 1027POPI   C4B14716  14.777  16.447   7.942 -0.0275 -0.3328  0.1784
 1028POPI    C114717  14.232  11.062   5.707  0.1197 -0.0411 -0.0073
 1028POPI    C214718  14.272  11.433   5.565  0.0470  0.0436  0.1895
 1028POPI    C314719  14.369  11.120   5.336  0.1914  0.1860  0.0533
 1028POPI   PO414720  14.321  11.001   5.924 -0.3111 -0.1507 -0.0094
 1028POPI   GL114721  14.153  10.917   6.291 -0.1558 -0.1148 -0.0145
 1028POPI   GL214722  14.333  11.129   6.396  0.0109  0.2411 -0.1613
 1028POPI   C1A14723  14.262  10.616   6.569  0.1973 -0.3303 -0.2250
 1028POPI   D2A14724  14.393  10.410   6.819  0.1874  0.1712  0.1876
 1028POPI   C3A14725  14.377  10.287   7.225 -0.1467 -0.1167  0.0548
 1028POPI   C4A14726  14.368  10.264   7.581 -0.2738 -0.0932 -0.0264
 1028POPI   C1B14727  14.294  11.254   6.927  0.0599 -0.0649  0.2076
 1028POPI   C2B14728  14.388  11.304   7.445  0.2013  0.1794  0.1169
 1028POPI   C3B14729  14.440  11.240   7.910 -0.2243  0.0023  0.3437
 1028POPI   C4B14730  14.369  11.513   8.177  0.1471 -0.0957 -0.2004
 1029POPI    C114731   6.272   0.302   5.652  0.2578 -0.4056 -0.2865
 1029POPI    C214732   5.973   0.151   5.433  0.0980 -0.2949 -0.1470
 1029POPI    C314733   6.024   0.547   5.455  0.0769 -0.3029  0.0619
 1029POPI   PO414734   6.268   0.182   5.838  0.0472  0.2138  0.0720
 1029POPI   GL114735   6.282   0.207   6.248  0.1578  0.2649 -0.0552
 1029POPI   GL214736   6.012   0.326   6.313  0.0537  0.1226 -0.3378
 1029POPI   C1A14737   6.130   0.039   6.713  0.3944 -0.3512  0.0572
 1029POPI   D2A14738   6.068   0.135   7.187  0.0903 -0.1316  0.2229
 1029POPI   C3A14739   6.304   0.273   7.566 -0.1229  0.0210 -0.0809
 1029POPI   C4A14740   6.438   0.599   8.034  0.3003 -0.0432 -0.1257
 1029POPI   C1B14741   6.335   0.643   6.634 -0.1568  0.2266  0.1140
 1029POPI   C2B14742   6.290   1.111   6.804 -0.1366  0.1701  0.5138
 1029POPI   C3B14743   6.395   1.508   6.820  0.0156 -0.2621 -0.0328
 1029POPI   C4B14744   6.631   1.786   6.933  0.0875 -0.0746 -0.3140
 1030POPI    C114745   8.533  10.652   5.395 -0.0922  0.1654  0.0201
 1030POPI    C214746   8.600  11.032   5.288  0.0100  0.1305 -0.0417
 1030POPI    C314747   8.417  10.782   5.034 -0.1689  0.1701  0.0461
 1030POPI   PO414748   8.413  10.686   5.716  0.0099 -0.2348  0.0485
 1030POPI   GL114749   8.299  10.415   6.092  0.0978 -0.1374 -0.1065
 1030POPI   GL214750   8.077  10.588   6.191  0.2316  0.3754  0.1688
 1030POPI   C1A14751   8.359  10.252   6.507  0.0757 -0.0024 -0.0351
 1030POPI   D2A14752   8.272  10.057   6.846  0.0221 -0.0417 -0.1784
 1030POPI   C3A14753   7.873   9.994   6.842  0.0412  0.2778 -0.4282
 1030POPI   C4A14754   7.501   9.890   6.773 -0.1598 -0.0422 -0.0396
 1030POPI   C1B14755   7.755  10.879   6.360 -0.1473 -0.0266 -0.2507
 1030POPI   C2B14756   7.759  11.126   6.731 -0.1865  0.1035 -0.0979
 1030POPI   C3B14757   8.092  10.957   7.138  0.0682  0.0801  0.3370
 1030POPI   C4B14758   8.337  10.946   7.497  0.1654 -0.1340  0.2108
 1031POPI    C114759  13.625   9.301   5.778  0.0199 -0.0403  0.2009
 1031POPI    C214760  13.496   9.647   5.931 -0.0523  0.0731 -0.1097
 1031POPI    C314761  13.795   9.645   5.665 -0.0316 -0.1061 -0.0860
 1031POPI   PO414762  13.400   9.085   5.839  0.0319 -0.1134 -0.0248
 1031POPI   GL114763  13.329   8.811   6.262 -0.1009  0.0877 -0.1183
 1031POPI   GL214764  13.141   8.603   6.108 -0.1208  0.0235 -0.0967
 1031POPI   C1A14765  13.284   8.919   6.646  0.2686 -0.2952 -0.1448
 1031POPI   D2A14766  13.302   9.022   6.959 -0.0740 -0.0901 -0.0250
 1031POPI   C3A14767  13.314   9.065   7.375 -0.0054  0.0671  0.0575
 1031POPI   C4A14768  13.384   8.939   7.815  0.0415 -0.0027 -0.1865
 1031POPI   C1B14769  13.045   8.446   6.531 -0.0863  0.2541 -0.1362
 1031POPI   C2B14770  13.064   8.608   6.947 -0.0862  0.1803  0.0098
 1031POPI   C3B14771  13.067   8.613   7.372 -0.1854 -0.0393 -0.3516
 1031POPI   C4B14772  12.949   8.222   7.732  0.1015 -0.2438  0.0349
 1032POPI    C114773  15.521   3.338   5.452 -0.0566  0.1602 -0.0635
 1032POPI    C214774  15.499   2.952   5.555  0.1153  0.1985  0.1236
 1032POPI    C314775  15.168   3.151   5.452  0.0112  0.0285  0.1258
 1032POPI   PO414776  15.586   3.483   5.705 -0.1307 -0.1689 -0.0358
 1032POPI   GL114777  15.719   3.320   6.135  0.0884 -0.1390  0.1234
 1032POPI   GL214778  15.344   3.401   6.183  0.1832  0.1398 -0.1904
 1032POPI   C1A14779  15.841   3.026   6.462 -0.0485  0.0228  0.1559
 1032POPI   D2A14780  15.793   2.769   6.850  0.2887 -0.0427  0.0865
 1032POPI   C3A14781  15.625   2.886   7.269 -0.0962  0.0348  0.1345
 1032POPI   C4A14782  15.456   2.970   7.690  0.0339 -0.0171  0.0063
 1032POPI   C1B14783  15.411   3.070   6.651 -0.0960  0.1293  0.0620
 1032POPI   C2B14784  15.207   3.179   7.015  0.1569 -0.2023  0.1194
 1032POPI   C3B14785  15.107   3.139   7.412  0.2054 -0.0452  0.1006
 1032POPI   C4B14786  14.971   3.224   7.761  0.2208  0.0113 -0.2106
 1033POPI    C114787   4.879  16.960   5.949  0.2468 -0.0236  0.1262
 1033POPI    C214788   5.117  16.701   5.757 -0.1795 -0.0548 -0.3857
 1033POPI    C314789   4.722  16.696   5.692 -0.2466  0.4480 -0.0777
 1033POPI   PO414790   4.944  16.983   6.222 -0.1335 -0.5813  0.2886
 1033POPI   GL114791   5.008  17.046   6.707 -0.2042  0.0111  0.0188
 1033POPI   GL214792   5.147  16.720   6.622 -0.0340  0.0950  0.1761
 1033POPI   C1A14793   5.189  17.171   7.093 -0.0881 -0.3418 -0.1912
 1033POPI   D2A14794   5.228  17.189   7.494 -0.2325  0.0269  0.2344
 1033POPI   C3A14795   5.173  17.464   7.751 -0.1999 -0.3351  0.3085
 1033POPI   C4A14796   5.083  17.653   8.141 -0.1346  0.1757  0.0426
 1033POPI   C1B14797   5.139  16.667   7.130 -0.2715 -0.0888  0.1230
 1033POPI   C2B14798   5.125  16.688   7.498  0.0208  0.0373 -0.0198
 1033POPI   C3B14799   5.133  16.810   7.917  0.1710 -0.2283 -0.1412
 1033POPI   C4B14800   5.112  16.816   8.324  0.1606 -0.0364  0.1182
 1034POPI    C114801   3.190   7.283   5.825  0.2531  0.0265 -0.1253
 1034POPI    C214802   3.296   7.418   5.463  0.0082  0.1962 -0.1360
 1034POPI    C314803   2.932   7.262   5.520  0.0444  0.1726  0.0381
 1034POPI   PO414804   3.261   7.495   5.980  0.0973  0.1469  0.0783
 1034POPI   GL114805   3.552   7.321   6.293 -0.0859  0.1515 -0.0159
 1034POPI   GL214806   3.838   7.251   6.188 -0.1008 -0.2216 -0.1131
 1034POPI   C1A14807   3.362   7.424   6.683 -0.3469  0.1642  0.2925
 1034POPI   D2A14808   3.399   7.778   6.832  0.0522 -0.0584 -0.2358
 1034POPI   C3A14809   3.379   7.664   7.291  0.2403 -0.3000 -0.0467
 1034POPI   C4A14810   3.493   7.524   7.702 -0.3066  0.0171 -0.2806
 1034POPI   C1B14811   3.961   7.207   6.676  0.1837  0.0954 -0.1734
 1034POPI   C2B14812   3.661   7.228   7.152  0.0338 -0.3165 -0.1812
 1034POPI   C3B14813   3.731   7.116   7.577 -0.0657 -0.0418  0.0880
 1034POPI   C4B14814   3.895   7.036   7.944 -0.2536 -0.0199 -0.4922
 1035POPI    C114815   4.061  13.009   5.736 -0.0557  0.1346  0.0471
 1035POPI    C214816   4.431  13.128   5.639 -0.0727  0.2066  0.0703
 1035POPI    C314817   4.250  12.843   5.424  0.0308  0.1077  0.1132
 1035POPI   PO414818   3.991  13.347   5.722 -0.2703  0.0180  0.0015
 1035POPI   GL114819   4.144  13.521   6.027 -0.1272 -0.0236  0.2228
 1035POPI   GL214820   4.332  13.269   6.122  0.2630 -0.0521 -0.4841
 1035POPI   C1A14821   4.335  13.698   6.435  0.1288  0.1643 -0.3539
 1035POPI   D2A14822   4.288  14.054   6.488  0.1985 -0.1207  0.1133
 1035POPI   C3A14823   3.890  14.271   6.578 -0.0313  0.1549 -0.0101
 1035POPI   C4A14824   3.872  14.749   6.655  0.3999 -0.1469  0.1178
 1035POPI   C1B14825   4.426  13.234   6.541 -0.0055  0.2271 -0.0593
 1035POPI   C2B14826   4.466  13.194   6.888  0.0155  0.1163 -0.1417
 1035POPI   C3B14827   4.452  13.387   7.166  0.1927  0.0089  0.0904
 1035POPI   C4B14828   4.075  13.701   7.498 -0.1188 -0.1549  0.0574
 1036POPI    C114829  10.100  10.717   5.905  0.1359  0.0325  0.0862
 1036POPI    C214830  10.475  10.588   5.959  0.1405 -0.0168 -0.0587
 1036POPI    C314831  10.405  10.905   5.726  0.0791 -0.0990 -0.1531
 1036POPI   PO414832   9.992  10.686   6.067 -0.1043 -0.0958 -0.0224
 1036POPI   GL114833   9.834  10.446   6.297 -0.0164 -0.0980  0.3077
 1036POPI   GL214834  10.170  10.359   6.479  0.0041  0.1406  0.0659
 1036POPI   C1A14835   9.808  10.585   6.689 -0.0740  0.0215 -0.2918
 1036POPI   D2A14836   9.948  10.424   7.055 -0.0897 -0.0440  0.0934
 1036POPI   C3A14837  10.001  10.521   7.525 -0.0806 -0.4209  0.2792
 1036POPI   C4A14838   9.862  10.481   7.851  0.1502 -0.1111 -0.2181
 1036POPI   C1B14839  10.338  10.437   6.773  0.0683 -0.1006  0.0164
 1036POPI   C2B14840  10.433  10.488   7.245  0.1554  0.1487  0.2690
 1036POPI   C3B14841  10.466  10.523   7.752 -0.0376  0.0567 -0.1775
 1036POPI   C4B14842  10.425  10.262   8.100  0.1834 -0.0301 -0.0378
 1037POPI    C114843  14.115   4.689   5.730  0.0208  0.1081 -0.0564
 1037POPI    C214844  13.867   4.795   5.434 -0.2235 -0.0441  0.0898
 1037POPI    C314845  13.929   4.408   5.514  0.1273 -0.0095  0.0036
 1037POPI   PO414846  14.054   4.953   5.904 -0.0920  0.0898 -0.4080
 1037POPI   GL114847  14.149   4.983   6.275  0.2153 -0.0967 -0.0847
 1037POPI   GL214848  14.205   5.307   6.378 -0.1522 -0.1975 -0.3953
 1037POPI   C1A14849  13.986   4.960   6.646  0.0085 -0.1752  0.1929
 1037POPI   D2A14850  14.089   5.167   6.981 -0.1157  0.0640 -0.1345
 1037POPI   C3A14851  14.007   5.198   7.364 -0.0547  0.2060 -0.2251
 1037POPI   C4A14852  14.008   4.815   7.601  0.3581 -0.0018  0.1217
 1037POPI   C1B14853  14.568   5.091   6.486  0.1005  0.2634  0.2945
 1037POPI   C2B14854  14.861   5.399   6.763  0.2090  0.1895  0.2714
 1037POPI   C3B14855  14.699   5.343   7.190 -0.1106  0.0233  0.1007
 1037POPI   C4B14856  14.478   5.390   7.483 -0.0802 -0.0344  0.1259
 1038POPI    C114857   5.211  16.347   6.163  0.0036  0.0219  0.0393
 1038POPI    C214858   4.840  16.495   6.186 -0.0201  0.0306 -0.3390
 1038POPI    C314859   4.939  16.247   5.888  0.2951  0.0742 -0.2749
 1038POPI   PO414860   5.237  16.192   6.392 -0.1947  0.4573 -0.0770
 1038POPI   GL114861   5.400  16.303   6.871  0.1064  0.0131  0.1140
 1038POPI   GL214862   4.978  16.301   6.801 -0.1375 -0.2352  0.3556
 1038POPI   C1A14863   5.465  16.337   7.336  0.1619  0.1915 -0.0510
 1038POPI   D2A14864   5.244  16.302   7.750 -0.2000 -0.1649  0.0370
 1038POPI   C3A14865   4.892  16.290   7.927  0.0807  0.2435  0.0161
 1038POPI   C4A14866   4.573  16.226   8.176 -0.1273  0.0274  0.0292
 1038POPI   C1B14867   4.985  16.194   7.269 -0.1873  0.1091 -0.0926
 1038POPI   C2B14868   4.848  15.967   7.586  0.1814  0.3108  0.2355
 1038POPI   C3B14869   4.544  15.777   7.909 -0.3784  0.3514  0.0121
 1038POPI   C4B14870   4.391  15.728   8.298  0.2265  0.0303 -0.0718
 1039POPI    C114871   9.183   9.162   5.523  0.2540  0.0965 -0.1062
 1039POPI    C214872   9.403   9.283   5.212 -0.0332 -0.1162 -0.3982
 1039POPI    C314873   9.044   9.117   5.151 -0.1602 -0.0221  0.0569
 1039POPI   PO414874   9.226   9.435   5.706  0.1887 -0.1744  0.2119
 1039POPI   GL114875   9.050   9.411   6.074 -0.1216 -0.1892 -0.1069
 1039POPI   GL214876   9.094   9.035   6.023  0.2851 -0.2391 -0.0760
 1039POPI   C1A14877   8.923   9.458   6.503 -0.2544 -0.0824 -0.0564
 1039POPI   D2A14878   8.871   9.280   6.887  0.2248 -0.0617  0.2975
 1039POPI   C3A14879   8.781   9.475   7.136 -0.1143  0.0996 -0.0165
 1039POPI   C4A14880   8.651   9.541   7.534 -0.2919  0.5801 -0.0770
 1039POPI   C1B14881   9.214   8.914   6.371  0.0321 -0.2729  0.2810
 1039POPI   C2B14882   9.252   9.028   6.797  0.0159 -0.1646  0.0302
 1039POPI   C3B14883   9.259   9.112   7.125 -0.0601 -0.0059 -0.0433
 1039POPI   C4B14884   9.368   9.239   7.598 -0.0960 -0.0161 -0.0111
 1040POPI    C114885   1.136   6.224   5.681  0.1413  0.0532  0.0296
 1040POPI    C214886   1.420   6.024   5.483  0.1489  0.1462 -0.0547
 1040POPI    C314887   1.105   6.172   5.286 -0.0634 -0.1305  0.0676
 1040POPI   PO414888   1.195   6.122   5.918 -0.3333  0.0777  0.2486
 1040POPI   GL114889   1.173   6.033   6.300  0.0085  0.0964  0.1901
 1040POPI   GL214890   1.168   6.366   6.360 -0.1116  0.0337  0.0559
 1040POPI   C1A14891   1.146   5.866   6.685 -0.1287  0.1600 -0.1828
 1040POPI   D2A14892   0.989   5.777   7.080  0.1269 -0.1651  0.1098
 1040POPI   C3A14893   1.066   5.560   7.429 -0.1580  0.0847 -0.0991
 1040POPI   C4A14894   1.172   5.611   7.888 -0.0867  0.1189 -0.2343
 1040POPI   C1B14895   0.862   6.274   6.629 -0.0084 -0.0502  0.1400
 1040POPI   C2B14896   0.762   6.340   7.108  0.1762 -0.0090 -0.1254
 1040POPI   C3B14897   0.851   6.154   7.471  0.0618  0.0623 -0.2392
 1040POPI   C4B14898   0.784   5.888   7.720  0.0370  0.0787  0.1994
 1041POPI    C114899   6.203  12.373   5.576 -0.1921  0.1475  0.3138
 1041POPI    C214900   5.955  12.497   5.288 -0.1667  0.0354  0.2431
 1041POPI    C314901   6.307  12.333   5.192 -0.0436  0.2369  0.3441
 1041POPI   PO414902   6.135  12.484   5.771  0.0104  0.1228 -0.2899
 1041POPI   GL114903   6.162  12.454   6.326 -0.0079 -0.3281  0.0225
 1041POPI   GL214904   6.171  12.175   6.118 -0.2193 -0.1929 -0.1969
 1041POPI   C1A14905   6.131  12.501   6.764  0.0147  0.1392  0.1051
 1041POPI   D2A14906   6.183  12.360   7.290 -0.0882 -0.1000  0.0140
 1041POPI   C3A14907   6.432  12.520   7.647 -0.0482  0.1717 -0.2357
 1041POPI   C4A14908   6.720  12.785   7.698  0.1350 -0.0615 -0.0527
 1041POPI   C1B14909   5.863  12.126   6.487  0.1797 -0.3073  0.2673
 1041POPI   C2B14910   5.689  12.339   6.888 -0.1500  0.1152  0.2549
 1041POPI   C3B14911   5.513  12.425   7.279 -0.0132  0.1432 -0.2366
 1041POPI   C4B14912   5.347  12.210   7.669  0.2194 -0.2306 -0.0643
 1042POPI    C114913  11.280  13.181   6.163 -0.0144  0.0715  0.0033
 1042POPI    C214914  10.910  13.230   6.017 -0.0264  0.1297  0.0530
 1042POPI    C314915  11.207  13.116   5.775 -0.1397 -0.2196  0.0722
 1042POPI   PO414916  11.381  13.404   6.188 -0.3044 -0.2620  0.1298
 1042POPI   GL114917  11.633  13.432   6.608 -0.1139  0.2186 -0.0505
 1042POPI   GL214918  11.692  13.105   6.537 -0.2569 -0.2118  0.0437
 1042POPI   C1A14919  11.648  13.454   7.064  0.3151 -0.2038  0.0981
 1042POPI   D2A14920  11.645  13.551   7.540 -0.2786  0.0293 -0.1496
 1042POPI   C3A14921  11.486  13.639   7.889 -0.1966 -0.1113 -0.1053
 1042POPI   C4A14922  11.198  13.480   8.084 -0.2415  0.1457  0.3020
 1042POPI   C1B14923  11.588  12.953   6.901  0.0256 -0.0355 -0.2914
 1042POPI   C2B14924  11.229  13.001   7.215 -0.0774  0.4357 -0.0352
 1042POPI   C3B14925  11.087  13.050   7.617 -0.1437 -0.2590  0.0660
 1042POPI   C4B14926  11.032  12.786   7.893 -0.2277 -0.0396 -0.0455
 1043POPI    C114927  17.783   9.891   5.744 -0.0700 -0.1733  0.1459
 1043POPI    C214928  18.062   9.836   5.462 -0.1510 -0.1069  0.0519
 1043POPI    C314929  17.692   9.950   5.358 -0.1285  0.1075  0.1997
 1043POPI   PO414930  17.778   9.670   5.909  0.1341  0.3608 -0.0258
 1043POPI   GL114931  17.634   9.651   6.242  0.2481 -0.2251 -0.1180
 1043POPI   GL214932  17.784   9.537   6.497  0.1856 -0.1787  0.0104
 1043POPI   C1A14933  17.299   9.659   6.576  0.0377 -0.0943 -0.2079
 1043POPI   D2A14934  17.185   9.605   6.988  0.2056  0.1673  0.0111
 1043POPI   C3A14935  16.918   9.240   7.071 -0.0824 -0.0713  0.0037
 1043POPI   C4A14936  16.636   9.157   7.443 -0.3903 -0.0752  0.0981
 1043POPI   C1B14937  18.058   9.600   6.842 -0.2470 -0.4272 -0.1501
 1043POPI   C2B14938  18.152   9.676   7.202 -0.2779  0.1062 -0.2626
 1043POPI   C3B14939  18.183   9.648   7.664  0.0794  0.0664 -0.0676
 1043POPI   C4B14940  18.020   9.340   7.993 -0.5375  0.1493 -0.1013
 1044POPI    C114941  11.519   0.938   5.806 -0.1019 -0.1161 -0.0214
 1044POPI    C214942  11.843   0.948   5.572 -0.0604 -0.0194  0.0392
 1044POPI    C314943  11.564   0.667   5.516 -0.0771  0.0355 -0.1607
 1044POPI   PO414944  11.611   0.912   6.042  0.0141 -0.1893  0.1535
 1044POPI   GL114945  11.753   1.030   6.408  0.0658 -0.0605 -0.0641
 1044POPI   GL214946  11.481   1.218   6.535 -0.1631  0.0025  0.0601
 1044POPI   C1A14947  11.819   0.875   6.759  0.0996 -0.1822 -0.4133
 1044POPI   D2A14948  11.870   0.809   7.260  0.1620 -0.2565  0.3832
 1044POPI   C3A14949  11.982   0.553   7.592  0.0495  0.0112 -0.0424
 1044POPI   C4A14950  12.249   0.416   7.947 -0.2527  0.0432  0.2365
 1044POPI   C1B14951  11.604   1.302   6.918 -0.0016  0.1082 -0.1310
 1044POPI   C2B14952  11.511   1.134   7.291  0.1543  0.1238 -0.1353
 1044POPI   C3B14953  11.395   1.221   7.687 -0.0924  0.0581 -0.0541
 1044POPI   C4B14954  11.204   1.415   8.069  0.0193 -0.2763 -0.2364
 1045POPI    C114955   5.647  10.649   5.619 -0.1191 -0.0678  0.0605
 1045POPI    C214956   5.297  10.815   5.719 -0.0605  0.0187  0.1236
 1045POPI    C314957   5.604  11.046   5.608  0.0084 -0.0502  0.1689
 1045POPI   PO414958   5.755  10.518   5.823 -0.1662  0.0012  0.1149
 1045POPI   GL114959   5.782  10.507   6.228  0.2198  0.0041 -0.0536
 1045POPI   GL214960   6.075  10.682   6.219 -0.0497  0.0374 -0.1316
 1045POPI   C1A14961   5.911  10.346   6.716 -0.0788  0.3798 -0.1886
 1045POPI   D2A14962   5.925  10.461   7.168  0.0922  0.2420 -0.0748
 1045POPI   C3A14963   6.122  10.615   7.487  0.1226 -0.1548 -0.1497
 1045POPI   C4A14964   5.996  10.764   7.850 -0.1016 -0.1591 -0.2253
 1045POPI   C1B14965   6.238  10.724   6.571  0.1763  0.0107  0.2762
 1045POPI   C2B14966   6.384  10.671   7.018  0.2015 -0.4637 -0.3326
 1045POPI   C3B14967   6.597  10.683   7.330 -0.0020 -0.1588 -0.0502
 1045POPI   C4B14968   6.454  10.284   7.509 -0.0537  0.3105  0.2177
 1046POPI    C114969  15.591  16.048   5.912  0.0099  0.0806  0.0183
 1046POPI    C214970  15.912  15.910   5.717  0.0351  0.0637  0.0714
 1046POPI    C314971  15.642  16.135   5.525  0.1238  0.1515  0.0487
 1046POPI   PO414972  15.540  15.851   6.068  0.3627  0.2122  0.0944
 1046POPI   GL114973  15.540  15.836   6.387  0.1412 -0.5853 -0.2402
 1046POPI   GL214974  15.302  15.997   6.504 -0.0944  0.2683 -0.0847
 1046POPI   C1A14975  15.415  15.777   6.908  0.1528  0.0389  0.2441
 1046POPI   D2A14976  15.445  15.717   7.338 -0.0882 -0.0140  0.2381
 1046POPI   C3A14977  15.149  15.574   7.536 -0.1154  0.1898 -0.3410
 1046POPI   C4A14978  14.752  15.521   7.744 -0.0454  0.3042  0.0888
 1046POPI   C1B14979  15.663  16.167   6.767  0.1573  0.1579  0.1957
 1046POPI   C2B14980  15.879  16.493   7.097  0.0266  0.0931  0.4771
 1046POPI   C3B14981  16.166  16.351   7.429  0.1475  0.3741  0.1577
 1046POPI   C4B14982  16.607  16.267   7.559  0.1002 -0.2258  0.0420
 1047POPI    C114983  17.918   7.772   5.654 -0.0065 -0.1046  0.2842
 1047POPI    C214984  17.863   7.377   5.684  0.0485 -0.1379 -0.0240
 1047POPI    C314985  18.107   7.524   5.404  0.1775  0.1056  0.2113
 1047POPI   PO414986  17.815   7.858   5.983  0.2853 -0.0538  0.0226
 1047POPI   GL114987  17.952   7.898   6.416  0.3678  0.1282  0.1428
 1047POPI   GL214988  18.202   8.162   6.431  0.1450 -0.2589  0.0106
 1047POPI   C1A14989  18.053   7.650   6.825 -0.2055 -0.1207 -0.2662
 1047POPI   D2A14990  18.254   7.745   7.140  0.0447 -0.0937 -0.1932
 1047POPI   C3A14991  18.274   7.924   7.583  0.0122  0.0743 -0.1088
 1047POPI   C4A14992  18.209   7.985   8.002 -0.1039  0.1370 -0.0821
 1047POPI   C1B14993  18.220   8.216   6.949  0.0690  0.3416  0.2440
 1047POPI   C2B14994  18.115   8.240   7.267 -0.1852  0.2222 -0.0953
 1047POPI   C3B14995  17.865   8.204   7.584  0.0599 -0.3179 -0.1187
 1047POPI   C4B14996  17.889   8.313   7.929  0.4364  0.0068 -0.0921
 1048POPI    C114997  15.638   1.620   5.377  0.1096  0.1109 -0.2874
 1048POPI    C214998  15.839   1.965   5.379  0.0874  0.1282  0.2219
 1048POPI    C314999  15.458   1.956   5.258  0.1186  0.2615  0.1110
 1048POPI   PO415000  15.597   1.562   5.706 -0.0117 -0.2430  0.0034
 1048POPI   GL115001  15.873   1.550   6.055 -0.0555 -0.2250  0.2499
 1048POPI   GL215002  15.860   1.877   6.000  0.1491 -0.0089  0.0005
 1048POPI   C1A15003  16.085   1.174   6.309  0.0461  0.2782 -0.1000
 1048POPI   D2A15004  15.882   0.885   6.362  0.0802  0.0566  0.2526
 1048POPI   C3A15005  15.826   0.897   6.719  0.0837  0.0137 -0.0570
 1048POPI   C4A15006  15.979   0.844   7.105 -0.0529  0.0711 -0.1071
 1048POPI   C1B15007  16.017   1.969   6.279  0.0138  0.2262  0.0417
 1048POPI   C2B15008  16.072   1.870   6.584 -0.1405 -0.3718 -0.1805
 1048POPI   C3B15009  15.923   2.202   6.895 -0.3658 -0.0199 -0.0228
 1048POPI   C4B15010  15.912   2.169   7.416  0.3085  0.0174  0.1023
 1049POPI    C115011  16.199   4.347   5.602 -0.3209 -0.1749  0.1132
 1049POPI    C215012  15.872   4.350   5.372 -0.0256 -0.0970 -0.3198
 1049POPI    C315013  16.005   4.690   5.535 -0.0809 -0.1052 -0.2567
 1049POPI   PO415014  16.143   4.137   5.814  0.0481 -0.5635  0.0860
 1049POPI   GL115015  15.945   4.112   6.175 -0.2460  0.2880  0.3039
 1049POPI   GL215016  16.081   3.803   6.348 -0.1900 -0.0839 -0.1324
 1049POPI   C1A15017  15.778   4.108   6.661  0.0128 -0.1463 -0.0238
 1049POPI   D2A15018  15.819   4.035   7.061 -0.1675 -0.1069  0.2025
 1049POPI   C3A15019  15.598   4.060   7.440 -0.1202 -0.1698  0.1528
 1049POPI   C4A15020  15.515   4.133   7.930 -0.1662  0.0232  0.1054
 1049POPI   C1B15021  16.034   3.676   6.832 -0.1857  0.1894 -0.2139
 1049POPI   C2B15022  16.030   3.656   7.340 -0.0660  0.4232  0.1078
 1049POPI   C3B15023  16.036   3.886   7.665  0.1387 -0.0558 -0.1248
 1049POPI   C4B15024  15.836   3.772   8.037  0.0566 -0.3325 -0.0248
 1050POPI    C115025  13.469   0.759   5.565  0.0656  0.0511  0.2881
 1050POPI    C215026  13.828   0.799   5.393 -0.0520  0.1893  0.0690
 1050POPI    C315027  13.525   0.640   5.187 -0.0957 -0.0108  0.2830
 1050POPI   PO415028  13.550   0.718   5.806  0.0931 -0.1712  0.0828
 1050POPI   GL115029  13.663   0.757   6.219 -0.2361 -0.1495 -0.0259
 1050POPI   GL215030  13.432   0.654   6.384 -0.2625 -0.0141 -0.0307
 1050POPI   C1A15031  13.837   0.639   6.694 -0.0831  0.0594  0.1588
 1050POPI   D2A15032  13.947   0.759   7.140 -0.0037 -0.1530 -0.2108
 1050POPI   C3A15033  14.039   0.560   7.521 -0.2606  0.3019 -0.3508
 1050POPI   C4A15034  13.962   0.322   7.936  0.0664  0.2382  0.1261
 1050POPI   C1B15035  13.409   0.361   6.765  0.1411 -0.4134  0.1566
 1050POPI   C2B15036  13.443   0.394   7.192 -0.0845  0.2217  0.2722
 1050POPI   C3B15037  13.621   0.380   7.581  0.1605  0.1290 -0.0134
 1050POPI   C4B15038  13.477   0.412   8.051 -0.0472 -0.0700 -0.2368
 1051POPI    C115039  10.991   6.205   5.603  0.0086  0.1066 -0.1375
 1051POPI    C215040  11.347   6.173   5.423  0.0818  0.4469 -0.0590
 1051POPI    C315041  11.040   6.342   5.230 -0.0173  0.2264 -0.0972
 1051POPI   PO415042  11.049   6.067   5.798 -0.3533  0.1262  0.0109
 1051POPI   GL115043  11.164   6.108   6.303 -0.0576 -0.0109  0.0231
 1051POPI   GL215044  11.339   6.302   6.361  0.0412 -0.4130 -0.0367
 1051POPI   C1A15045  11.243   5.863   6.677  0.2334  0.1857  0.1397
 1051POPI   D2A15046  11.396   5.546   6.969 -0.2276 -0.1339 -0.2767
 1051POPI   C3A15047  11.202   5.273   7.162  0.2325 -0.2771  0.0544
 1051POPI   C4A15048  11.237   5.002   7.467 -0.0892 -0.0664  0.0108
 1051POPI   C1B15049  11.136   6.359   6.763 -0.1875 -0.0210  0.0944
 1051POPI   C2B15050  11.084   6.430   7.238 -0.1001 -0.1818  0.1650
 1051POPI   C3B15051  10.866   6.361   7.607  0.0560  0.2164  0.0342
 1051POPI   C4B15052  10.812   6.201   8.006 -0.2870 -0.1635 -0.1107
 1052POPI    C115053   3.893   9.992   5.494 -0.0368  0.0456  0.0489
 1052POPI    C215054   3.593   9.728   5.514  0.0505 -0.0335  0.3544
 1052POPI    C315055   3.941   9.622   5.349 -0.0169 -0.0097  0.1953
 1052POPI   PO415056   3.883  10.089   5.742  0.1004  0.2600  0.0309
 1052POPI   GL115057   3.862  10.075   6.140  0.0686  0.0142  0.1843
 1052POPI   GL215058   3.589   9.930   6.395  0.0221  0.0887  0.0179
 1052POPI   C1A15059   4.188  10.259   6.378 -0.2749  0.0431 -0.1243
 1052POPI   D2A15060   4.339  10.416   6.792  0.0670 -0.1329 -0.0905
 1052POPI   C3A15061   4.396  10.342   7.177  0.2654 -0.0231 -0.2515
 1052POPI   C4A15062   4.345  10.167   7.528  0.0896  0.2099  0.0548
 1052POPI   C1B15063   3.299   9.782   6.584  0.0317  0.4189  0.0677
 1052POPI   C2B15064   3.199   9.694   7.000  0.2208 -0.1512  0.0941
 1052POPI   C3B15065   3.306   9.434   7.350 -0.1345 -0.2537 -0.1979
 1052POPI   C4B15066   3.226   9.370   7.821  0.0373 -0.1517  0.0377
 1053POPI    C115067   9.699   5.782   5.373  0.0495  0.0523  0.0755
 1053POPI    C215068   9.381   5.539   5.366  0.0246  0.0885 -0.0959
 1053POPI    C315069   9.330   5.935   5.391  0.0569  0.0935 -0.1085
 1053POPI   PO415070   9.849   5.679   5.496 -0.0313  0.0093  0.0421
 1053POPI   GL115071   9.839   5.768   5.919 -0.1362  0.0384  0.3213
 1053POPI   GL215072  10.110   5.982   6.015  0.0619  0.2683  0.2459
 1053POPI   C1A15073   9.806   5.473   6.137  0.0865  0.0791  0.0475
 1053POPI   D2A15074  10.077   5.308   6.368 -0.1538  0.0429  0.0174
 1053POPI   C3A15075  10.058   5.370   6.758  0.0088 -0.0469 -0.1939
 1053POPI   C4A15076  10.254   5.369   7.104  0.0877  0.3278 -0.1016
 1053POPI   C1B15077  10.109   5.861   6.450 -0.0423  0.1514 -0.1334
 1053POPI   C2B15078  10.299   6.015   6.831  0.0550  0.1343 -0.2835
 1053POPI   C3B15079  10.496   5.824   7.221 -0.2190 -0.0493  0.1568
 1053POPI   C4B15080  10.621   5.898   7.620  0.1406  0.1108 -0.1054
 1054POPI    C115081   4.810  12.340   5.411  0.1069  0.0333  0.0471
 1054POPI    C215082   4.668  12.582   5.126  0.2734  0.1220  0.0383
 1054POPI    C315083   4.808  12.736   5.467  0.1591  0.0217  0.1316
 1054POPI   PO415084   4.588  12.104   5.503 -0.0982  0.2958  0.1934
 1054POPI   GL115085   4.616  12.010   5.882 -0.0780  0.0589  0.0534
 1054POPI   GL215086   4.851  11.833   5.954  0.1415 -0.1628  0.1924
 1054POPI   C1A15087   4.393  12.033   6.363  0.2994 -0.0607  0.1030
 1054POPI   D2A15088   4.413  12.173   6.826 -0.0236  0.0186 -0.2655
 1054POPI   C3A15089   4.439  12.178   7.226  0.0161 -0.3024  0.0756
 1054POPI   C4A15090   4.320  12.249   7.688 -0.0186  0.2592  0.1149
 1054POPI   C1B15091   4.939  11.875   6.321  0.1909 -0.0703  0.3277
 1054POPI   C2B15092   4.784  11.894   6.710  0.2158 -0.1081 -0.1852
 1054POPI   C3B15093   4.839  11.780   7.131  0.0045 -0.0333  0.1681
 1054POPI   C4B15094   5.038  11.803   7.565 -0.1075 -0.0961  0.1479
 1055POPI    C115095   7.546   3.958   5.566  0.0495 -0.0362 -0.1571
 1055POPI    C215096   7.707   4.058   5.214  0.2042  0.1583 -0.0331
 1055POPI    C315097   7.312   4.010   5.246  0.1844  0.1873 -0.2219
 1055POPI   PO415098   7.716   4.078   5.743  0.0955  0.0183  0.0070
 1055POPI   GL115099   7.611   4.054   6.098 -0.1274 -0.2892  0.0956
 1055POPI   GL215100   7.287   3.986   6.196 -0.1382 -0.3368 -0.0755
 1055POPI   C1A15101   7.819   4.047   6.549 -0.1908 -0.0379  0.1211
 1055POPI   D2A15102   8.221   4.261   6.602  0.1033 -0.3279  0.3076
 1055POPI   C3A15103   8.312   4.323   7.110  0.0325  0.0825 -0.2658
 1055POPI   C4A15104   8.549   4.435   7.457  0.1093  0.2075 -0.3913
 1055POPI   C1B15105   7.279   4.134   6.573 -0.1284 -0.1092  0.4307
 1055POPI   C2B15106   7.235   4.130   7.011 -0.1371  0.0021  0.0167
 1055POPI   C3B15107   6.906   4.205   7.426 -0.1748  0.2364  0.2498
 1055POPI   C4B15108   6.631   4.137   7.765  0.5751 -0.0869  0.0944
 1056POPI    C115109   4.634   8.183   5.676  0.0929  0.2212 -0.0971
 1056POPI    C215110   4.808   8.112   5.323 -0.0018  0.0950 -0.1188
 1056POPI    C315111   4.447   8.283   5.337  0.0253  0.1490 -0.0814
 1056POPI   PO415112   4.584   7.930   5.836  0.2582  0.0773  0.1186
 1056POPI   GL115113   4.789   7.645   6.073  0.0645  0.1025 -0.1082
 1056POPI   GL215114   4.680   7.340   6.180 -0.1137 -0.0326 -0.4334
 1056POPI   C1A15115   4.777   7.657   6.562 -0.0438  0.1064  0.0265
 1056POPI   D2A15116   4.839   7.572   6.935 -0.0096  0.2876 -0.0026
 1056POPI   C3A15117   4.985   7.621   7.277 -0.0370 -0.2816 -0.1727
 1056POPI   C4A15118   5.321   7.786   7.403 -0.1174  0.0246  0.0803
 1056POPI   C1B15119   4.403   7.335   6.383 -0.0929  0.1506  0.1196
 1056POPI   C2B15120   4.412   7.347   6.881  0.0712  0.1850  0.0618
 1056POPI   C3B15121   4.596   7.258   7.204  0.0578 -0.0692  0.0195
 1056POPI   C4B15122   4.659   7.371   7.529  0.2189  0.1370  0.0740
 1057POPI    C115123  14.570   2.424   5.644  0.1062  0.1200  0.1860
 1057POPI    C215124  14.498   2.648   5.321  0.1431 -0.0036  0.0913
 1057POPI    C315125  14.650   2.816   5.651 -0.0598  0.1563  0.1055
 1057POPI   PO415126  14.342   2.307   5.630 -0.0284 -0.0148 -0.0498
 1057POPI   GL115127  14.152   2.026   5.892  0.1889  0.0912 -0.1529
 1057POPI   GL215128  13.972   2.135   6.197 -0.3788 -0.0300 -0.2448
 1057POPI   C1A15129  14.410   1.825   6.274 -0.2716 -0.1406  0.1525
 1057POPI   D2A15130  14.625   2.064   6.689 -0.0077 -0.3050  0.2050
 1057POPI   C3A15131  14.962   2.315   6.554 -0.2387 -0.1366  0.3165
 1057POPI   C4A15132  15.181   2.586   6.411 -0.0957 -0.0062  0.2173
 1057POPI   C1B15133  14.195   2.292   6.571  0.0390 -0.1881  0.2375
 1057POPI   C2B15134  14.273   2.349   6.978  0.2472 -0.2339  0.1642
 1057POPI   C3B15135  14.525   2.126   7.192  0.0999  0.0403 -0.1890
 1057POPI   C4B15136  14.464   1.965   7.742  0.2620 -0.0184  0.0708
 1058POPI    C115137   4.730   7.371   5.615 -0.2024 -0.2880  0.0618
 1058POPI    C215138   4.746   7.371   5.215 -0.0228 -0.1021  0.0670
 1058POPI    C315139   4.597   7.687   5.409  0.2558 -0.0237  0.1575
 1058POPI   PO415140   4.952   7.212   5.708  0.0109  0.0023 -0.2630
 1058POPI   GL115141   5.144   6.924   5.978 -0.3038 -0.2951 -0.0163
 1058POPI   GL215142   5.161   6.694   6.081  0.1699  0.1271 -0.3078
 1058POPI   C1A15143   5.006   7.018   6.455  0.3633  0.0791 -0.0866
 1058POPI   D2A15144   4.745   7.008   6.749  0.0808  0.0380 -0.0010
 1058POPI   C3A15145   4.307   6.825   6.753 -0.0536  0.1683 -0.0300
 1058POPI   C4A15146   4.062   6.929   7.137  0.2410  0.0273  0.1918
 1058POPI   C1B15147   5.314   6.494   6.565  0.3056  0.0303 -0.0777
 1058POPI   C2B15148   5.319   6.439   7.037  0.2290 -0.0524 -0.2261
 1058POPI   C3B15149   5.165   6.603   7.417  0.0911  0.4557 -0.4134
 1058POPI   C4B15150   5.294   6.825   7.732 -0.4230 -0.0161  0.2198
 1059POPI    C115151  14.518   7.138   5.481  0.0403  0.0457 -0.1420
 1059POPI    C215152  14.806   6.950   5.276  0.1013  0.0172 -0.0304
 1059POPI    C315153  14.877   7.309   5.437  0.0953 -0.0186  0.0526
 1059POPI   PO415154  14.427   7.012   5.734 -0.0096 -0.2790  0.0331
 1059POPI   GL115155  14.076   6.978   6.107  0.1909  0.0505  0.2343
 1059POPI   GL215156  14.093   7.249   5.957 -0.0071  0.0717  0.1253
 1059POPI   C1A15157  14.356   6.925   6.468 -0.0588  0.0262 -0.0660
 1059POPI   D2A15158  14.300   6.694   6.813 -0.1144  0.2425  0.1378
 1059POPI   C3A15159  14.391   6.693   7.247  0.2330 -0.1139  0.5959
 1059POPI   C4A15160  14.411   6.745   7.572 -0.4040  0.0113 -0.0472
 1059POPI   C1B15161  13.971   7.367   6.489  0.1170 -0.0978  0.0348
 1059POPI   C2B15162  13.881   7.362   6.905 -0.2605 -0.2264 -0.0594
 1059POPI   C3B15163  13.923   7.413   7.305  0.2669  0.2215  0.1199
 1059POPI   C4B15164  13.862   7.345   7.712 -0.0032 -0.2637  0.1313
 1060POPI    C115165   9.155  11.794   5.760 -0.1114  0.1380 -0.0873
 1060POPI    C215166   9.429  11.506   5.723 -0.2036  0.0357  0.0184
 1060POPI    C315167   9.302  11.704   5.400 -0.2845 -0.1779 -0.0824
 1060POPI   PO415168   9.218  11.886   6.054 -0.1820 -0.3876  0.4367
 1060POPI   GL115169   9.056  11.814   6.458 -0.1145 -0.1529  0.0848
 1060POPI   GL215170   8.822  11.666   6.425 -0.0038 -0.0537  0.1442
 1060POPI   C1A15171   9.208  11.913   6.922  0.0090 -0.3969  0.1293
 1060POPI   D2A15172   9.390  12.070   7.302  0.1405 -0.4454 -0.0360
 1060POPI   C3A15173   9.171  12.339   7.446 -0.1776  0.0935  0.1665
 1060POPI   C4A15174   8.861  12.464   7.916  0.0389  0.2830 -0.1720
 1060POPI   C1B15175   8.921  11.434   6.850 -0.2012  0.1880 -0.2931
 1060POPI   C2B15176   8.872  11.400   7.338 -0.1232  0.1299  0.2004
 1060POPI   C3B15177   9.027  11.260   7.805 -0.0662  0.1234 -0.3959
 1060POPI   C4B15178   9.140  11.074   8.154 -0.0911  0.3664 -0.2494
 1061POPI    C115179   9.326   2.962   5.992 -0.1169  0.1473  0.0272
 1061POPI    C215180   9.058   2.769   5.767 -0.0896  0.2200 -0.0686
 1061POPI    C315181   9.441   2.780   5.656  0.0154 -0.1577  0.2338
 1061POPI   PO415182   9.193   3.233   5.992 -0.0433  0.2933  0.0816
 1061POPI   GL115183   9.464   3.417   6.328 -0.0687 -0.1344 -0.1679
 1061POPI   GL215184   9.381   3.210   6.447  0.0428 -0.1806  0.0200
 1061POPI   C1A15185   9.565   3.788   6.632 -0.1200 -0.0728  0.3757
 1061POPI   D2A15186   9.617   3.998   6.974 -0.2576  0.0743  0.0737
 1061POPI   C3A15187  10.013   3.960   7.224 -0.1348  0.1189  0.1057
 1061POPI   C4A15188  10.248   3.848   7.512  0.1633  0.2374  0.0403
 1061POPI   C1B15189   9.460   3.311   6.847  0.0230  0.1591 -0.0086
 1061POPI   C2B15190   9.531   3.438   7.267 -0.0231  0.0108 -0.2150
 1061POPI   C3B15191   9.740   3.637   7.618 -0.0639  0.0348  0.0982
 1061POPI   C4B15192   9.904   4.132   7.735 -0.2210  0.0521 -0.0699
 1062POPI    C115193   9.372  14.215   5.803 -0.1195 -0.0455 -0.0741
 1062POPI    C215194   9.574  14.524   5.647 -0.0093 -0.1416 -0.1235
 1062POPI    C315195   9.403  14.253   5.406  0.0348 -0.2093 -0.0792
 1062POPI   PO415196   9.190  14.357   6.031  0.0850 -0.2599  0.0451
 1062POPI   GL115197   9.232  14.550   6.427 -0.3061 -0.0444  0.1586
 1062POPI   GL215198   9.015  14.825   6.350  0.3873  0.0745 -0.0935
 1062POPI   C1A15199   9.089  14.611   6.861  0.0570 -0.0990 -0.0283
 1062POPI   D2A15200   8.903  14.820   7.312  0.1675  0.0519  0.2413
 1062POPI   C3A15201   9.123  14.674   7.796  0.0826 -0.2534 -0.2318
 1062POPI   C4A15202   8.792  14.434   8.042  0.0417  0.0974 -0.1595
 1062POPI   C1B15203   8.994  15.138   6.727  0.3121  0.1626 -0.2014
 1062POPI   C2B15204   9.024  15.289   7.177 -0.0259 -0.0059  0.1586
 1062POPI   C3B15205   9.140  15.180   7.664  0.3110 -0.0522 -0.0952
 1062POPI   C4B15206   9.460  15.104   7.964 -0.0976 -0.0162  0.1751
 1063POPI    C115207  15.830   0.693   5.637  0.0984 -0.2231  0.3329
 1063POPI    C215208  15.980   1.046   5.749 -0.2887  0.0661 -0.0288
 1063POPI    C315209  16.191   0.807   5.508  0.0490 -0.0358  0.3576
 1063POPI   PO415210  15.747   0.605   5.913 -0.4679  0.0536  0.1295
 1063POPI   GL115211  15.687   0.406   6.335 -0.2197 -0.2829 -0.0222
 1063POPI   GL215212  15.591   0.132   6.433  0.0057 -0.1709  0.0380
 1063POPI   C1A15213  15.584   0.460   6.799 -0.0960 -0.2032 -0.2523
 1063POPI   D2A15214  15.539   0.661   7.220 -0.0464 -0.1111  0.5029
 1063POPI   C3A15215  15.481   1.011   7.523  0.3354 -0.0141  0.1357
 1063POPI   C4A15216  15.583   1.249   7.941  0.0333  0.2591  0.0932
 1063POPI   C1B15217  15.695  -0.248   6.657  0.1205 -0.2316  0.0441
 1063POPI   C2B15218  15.913  -0.598   6.984 -0.2042 -0.1037 -0.1556
 1063POPI   C3B15219  16.142  -0.744   7.318  0.1466 -0.1422  0.1632
 1063POPI   C4B15220  16.190  -1.215   7.561 -0.3700 -0.0363 -0.1299
 1064POPI    C115221   7.406   0.279   5.962  0.1905  0.0653  0.0369
 1064POPI    C215222   7.330   0.027   5.661  0.2173  0.1945 -0.0792
 1064POPI    C315223   7.618  -0.058   5.926 -0.0705 -0.1127  0.1426
 1064POPI   PO415224   7.132   0.445   5.942  0.4077 -0.4036  0.2692
 1064POPI   GL115225   7.090   0.595   6.304  0.0892 -0.2902  0.0156
 1064POPI   GL215226   7.320   0.868   6.183 -0.0829  0.1199  0.0464
 1064POPI   C1A15227   6.804   0.773   6.588 -0.0854 -0.0698  0.1934
 1064POPI   D2A15228   6.789   0.839   6.956  0.2467 -0.1772 -0.1791
 1064POPI   C3A15229   6.477   1.093   7.229  0.2239 -0.2405  0.1089
 1064POPI   C4A15230   6.196   1.235   7.315  0.2017 -0.0757 -0.4864
 1064POPI   C1B15231   7.593   0.917   6.475 -0.0385 -0.0976 -0.0179
 1064POPI   C2B15232   7.724   1.168   6.907  0.0760  0.0065 -0.3411
 1064POPI   C3B15233   7.737   1.056   7.379 -0.2132  0.0106 -0.2441
 1064POPI   C4B15234   7.976   1.077   7.718  0.1628  0.2100 -0.1880
 1065POPI    C115235   6.246   8.311   5.300  0.1688  0.1027  0.1959
 1065POPI    C215236   6.603   8.130   5.287  0.0043 -0.2227  0.0754
 1065POPI    C315237   6.455   8.304   4.959 -0.0711 -0.3352  0.0493
 1065POPI   PO415238   6.224   8.271   5.600 -0.0188  0.0201 -0.0768
 1065POPI   GL115239   6.587   8.303   5.978 -0.4775 -0.0682 -0.0221
 1065POPI   GL215240   6.882   8.359   5.838  0.1945 -0.4430 -0.0995
 1065POPI   C1A15241   6.389   8.263   6.347 -0.1625 -0.0718 -0.0761
 1065POPI   D2A15242   6.657   8.248   6.707 -0.0807 -0.2435  0.0191
 1065POPI   C3A15243   6.615   8.139   7.154 -0.2610  0.0201  0.0829
 1065POPI   C4A15244   6.774   7.965   7.549 -0.1358  0.0104 -0.0761
 1065POPI   C1B15245   6.847   8.551   6.322 -0.3093  0.0423  0.1855
 1065POPI   C2B15246   6.997   8.717   6.724 -0.0255 -0.0222 -0.0947
 1065POPI   C3B15247   7.175   8.730   7.051 -0.2472  0.0163  0.1246
 1065POPI   C4B15248   7.404   8.817   7.433 -0.0262  0.1747 -0.1072
 1066POPI    C115249   6.660   4.759   5.094 -0.1014 -0.1067  0.1181
 1066POPI    C215250   6.479   4.406   5.147 -0.1600 -0.1392 -0.2638
 1066POPI    C315251   6.865   4.420   5.043 -0.1172 -0.0847 -0.1020
 1066POPI   PO415252   6.611   4.917   5.327  0.2547  0.0410 -0.0833
 1066POPI   GL115253   6.604   4.999   5.809  0.1661  0.0516  0.2851
 1066POPI   GL215254   6.680   4.724   5.987 -0.0389 -0.3406 -0.0208
 1066POPI   C1A15255   6.247   4.917   6.047 -0.0440  0.1461 -0.0729
 1066POPI   D2A15256   6.035   5.225   6.343 -0.0101  0.3116  0.1777
 1066POPI   C3A15257   6.123   5.179   6.777 -0.0541  0.1546  0.1750
 1066POPI   C4A15258   6.042   5.276   7.281 -0.1146  0.2312  0.1739
 1066POPI   C1B15259   6.540   4.584   6.396 -0.0706 -0.1552 -0.1391
 1066POPI   C2B15260   6.634   4.489   6.782 -0.0607  0.1032  0.0996
 1066POPI   C3B15261   6.657   4.449   7.142  0.0302  0.0325 -0.2298
 1066POPI   C4B15262   6.582   4.620   7.584 -0.1119  0.0305  0.3822
 1067POPI    C115263   3.418  10.061   5.901  0.0262 -0.0085 -0.1624
 1067POPI    C215264   3.121   9.888   5.696  0.0440 -0.1547 -0.0666
 1067POPI    C315265   3.166   9.811   6.086 -0.0394  0.1855  0.0142
 1067POPI   PO415266   3.443  10.390   5.826 -0.0701  0.1691 -0.2408
 1067POPI   GL115267   3.356  10.619   6.150 -0.0666  0.1693 -0.1202
 1067POPI   GL215268   3.379  11.005   6.349 -0.0716  0.1591 -0.0091
 1067POPI   C1A15269   2.993  10.784   6.505  0.1053  0.0220  0.2037
 1067POPI   D2A15270   3.070  10.591   6.946 -0.0884 -0.0871  0.1086
 1067POPI   C3A15271   2.969  10.107   6.890  0.2884  0.0873  0.0550
 1067POPI   C4A15272   2.806   9.886   6.582  0.1116  0.1008  0.0054
 1067POPI   C1B15273   3.420  10.866   6.801 -0.2190  0.2537  0.1044
 1067POPI   C2B15274   3.535  10.938   7.270 -0.3091 -0.2923  0.1098
 1067POPI   C3B15275   3.622  10.599   7.519  0.2860 -0.1266 -0.0022
 1067POPI   C4B15276   3.787  10.638   7.980  0.1814  0.1358  0.3116
 1068POPI    C115277   2.715   9.688   5.492 -0.0856  0.1719  0.0967
 1068POPI    C215278   2.785   9.415   5.208 -0.0804  0.0113  0.2509
 1068POPI    C315279   2.575   9.744   5.122 -0.3158 -0.1677  0.1274
 1068POPI   PO415280   2.699   9.517   5.745  0.2468 -0.1160 -0.2516
 1068POPI   GL115281   2.876   9.432   6.193  0.0362  0.1264  0.0508
 1068POPI   GL215282   2.742   9.113   6.115 -0.0953 -0.0894  0.2313
 1068POPI   C1A15283   2.771   9.404   6.616 -0.1343  0.1827  0.0635
 1068POPI   D2A15284   2.847   9.330   7.000  0.2281 -0.1604 -0.3850
 1068POPI   C3A15285   2.802   9.744   7.305  0.0968 -0.1921 -0.1434
 1068POPI   C4A15286   2.908  10.087   7.403  0.0288 -0.2272 -0.0329
 1068POPI   C1B15287   2.750   8.899   6.489  0.0187  0.1911 -0.3128
 1068POPI   C2B15288   2.825   8.740   6.833  0.0002  0.1798 -0.0996
 1068POPI   C3B15289   2.873   8.703   7.147  0.3624 -0.0441  0.0011
 1068POPI   C4B15290   2.899   8.932   7.510  0.1115  0.3323  0.3131
 1069POPI    C115291   5.747   1.131   5.677  0.0742 -0.1561  0.0393
 1069POPI    C215292   6.129   1.026   5.620  0.0399 -0.2662  0.0094
 1069POPI    C315293   5.866   0.996   5.320 -0.0066 -0.2529  0.0486
 1069POPI   PO415294   5.681   1.022   5.822 -0.1037  0.0278 -0.0728
 1069POPI   GL115295   5.522   0.792   6.148 -0.0505  0.0747 -0.2078
 1069POPI   GL215296   5.742   0.802   6.374  0.0245 -0.2980 -0.3417
 1069POPI   C1A15297   5.166   0.893   6.261 -0.1253 -0.0933 -0.1588
 1069POPI   D2A15298   4.781   0.801   6.456 -0.0733 -0.2238  0.0974
 1069POPI   C3A15299   4.776   0.710   6.909 -0.0409 -0.1179  0.0768
 1069POPI   C4A15300   4.938   0.456   7.270 -0.2327 -0.3993  0.1465
 1069POPI   C1B15301   5.844   0.895   6.813  0.0709 -0.0726  0.2001
 1069POPI   C2B15302   6.048   0.814   7.144 -0.1658  0.0406 -0.3819
 1069POPI   C3B15303   6.067   0.836   7.635  0.0147 -0.1728  0.3222
 1069POPI   C4B15304   5.842   0.704   7.931 -0.0954 -0.0341  0.0902
 1070POPI    C115305   8.801  13.964   5.966 -0.1216  0.0579 -0.0094
 1070POPI    C215306   8.721  14.328   5.820  0.2091  0.1508  0.0330
 1070POPI    C315307   8.975  14.087   5.627  0.1516  0.0232  0.1155
 1070POPI   PO415308   8.549  13.890   6.026  0.0867 -0.1095  0.1221
 1070POPI   GL115309   8.578  13.643   6.395  0.1740 -0.0226 -0.0700
 1070POPI   GL215310   8.910  13.448   6.356 -0.3309  0.0198  0.1964
 1070POPI   C1A15311   8.614  13.859   6.824 -0.0064  0.0153  0.1465
 1070POPI   D2A15312   8.815  13.924   7.187  0.0988  0.2674  0.2633
 1070POPI   C3A15313   9.103  14.182   7.176 -0.0291 -0.0476 -0.2224
 1070POPI   C4A15314   9.463  14.516   7.172  0.2469  0.0442 -0.0703
 1070POPI   C1B15315   8.906  13.470   6.830  0.0582  0.1498  0.0490
 1070POPI   C2B15316   8.894  13.431   7.326 -0.2778  0.1079 -0.0196
 1070POPI   C3B15317   8.927  13.511   7.659  0.1395  0.1700 -0.0445
 1070POPI   C4B15318   8.955  13.495   8.125  0.3461  0.0068  0.0850
 1071POPI    C115319   4.683  11.245   5.529  0.0492 -0.0383 -0.1154
 1071POPI    C215320   4.904  10.915   5.476  0.1716  0.0356 -0.0681
 1071POPI    C315321   4.954  11.230   5.234 -0.0367 -0.0271 -0.1953
 1071POPI   PO415322   4.762  11.348   5.847  0.0939  0.4249  0.1664
 1071POPI   GL115323   4.674  11.468   6.259  0.1873 -0.0917 -0.0553
 1071POPI   GL215324   4.718  11.114   6.300  0.1041 -0.0759  0.1224
 1071POPI   C1A15325   4.660  11.408   6.711 -0.1778 -0.0934 -0.3315
 1071POPI   D2A15326   4.691  11.280   7.075 -0.1670  0.0726 -0.2783
 1071POPI   C3A15327   4.737  11.451   7.458  0.0104  0.2058 -0.1803
 1071POPI   C4A15328   4.690  11.545   8.001  0.0006  0.1312  0.1095
 1071POPI   C1B15329   5.001  10.836   6.529  0.2319  0.1248  0.1348
 1071POPI   C2B15330   5.018  10.904   7.064 -0.2434 -0.1764  0.2250
 1071POPI   C3B15331   4.948  11.012   7.477 -0.3589 -0.1569  0.0033
 1071POPI   C4B15332   5.088  11.274   7.798  0.0127 -0.0884 -0.1878
 1072POPI    C115333   4.885  13.040   5.908 -0.2103 -0.0580 -0.0297
 1072POPI    C215334   5.129  12.831   6.147 -0.2422  0.0291  0.0798
 1072POPI    C315335   5.211  12.864   5.757 -0.0722  0.0674  0.1179
 1072POPI   PO415336   4.664  12.840   6.072 -0.0515 -0.0366 -0.1266
 1072POPI   GL115337   4.341  12.748   6.223  0.2081 -0.0207  0.1099
 1072POPI   GL215338   4.144  12.483   6.344 -0.1706  0.1087 -0.0393
 1072POPI   C1A15339   4.187  12.789   6.674  0.3618 -0.2235  0.3175
 1072POPI   D2A15340   4.215  12.613   7.049 -0.0570 -0.0793 -0.0281
 1072POPI   C3A15341   4.067  13.021   7.195  0.0502  0.3795 -0.0553
 1072POPI   C4A15342   4.137  13.223   7.545 -0.0853 -0.0077 -0.1340
 1072POPI   C1B15343   3.949  12.225   6.743 -0.1123 -0.3450 -0.0781
 1072POPI   C2B15344   3.998  12.165   7.262 -0.1023 -0.3938 -0.0593
 1072POPI   C3B15345   3.832  12.226   7.706 -0.2646  0.0002  0.0031
 1072POPI   C4B15346   3.924  12.359   8.033  0.1343 -0.1781  0.0088
 1073POPI    C115347   5.268  15.781   5.920  0.3725 -0.0275  0.3195
 1073POPI    C215348   5.632  15.642   5.831  0.1834 -0.2257 -0.1788
 1073POPI    C315349   5.315  15.526   5.616 -0.1101  0.3043 -0.0494
 1073POPI   PO415350   5.230  15.587   6.222  0.0749  0.0269  0.3030
 1073POPI   GL115351   5.227  15.700   6.629  0.0892  0.0949  0.1017
 1073POPI   GL215352   5.544  15.827   6.615  0.2143 -0.1833 -0.2012
 1073POPI   C1A15353   5.156  15.849   6.990 -0.2997 -0.1904  0.0891
 1073POPI   D2A15354   5.317  15.877   7.390  0.0885  0.2571  0.0153
 1073POPI   C3A15355   5.245  15.755   7.797  0.2840 -0.0230 -0.1688
 1073POPI   C4A15356   5.076  15.830   8.187  0.1133  0.0257 -0.1511
 1073POPI   C1B15357   5.676  15.637   6.940 -0.1497  0.4645 -0.0029
 1073POPI   C2B15358   5.717  15.555   7.450  0.1525  0.1816  0.0994
 1073POPI   C3B15359   5.687  15.522   7.845 -0.1449  0.0362  0.1217
 1073POPI   C4B15360   5.336  15.393   8.110 -0.1078 -0.1705 -0.3117
 1074POPI    C115361  16.095  11.297   5.945 -0.0180 -0.1583  0.0012
 1074POPI    C215362  16.298  11.126   6.245  0.0868 -0.2334 -0.1115
 1074POPI    C315363  16.115  10.898   5.971 -0.1475 -0.1660 -0.0132
 1074POPI   PO415364  15.968  11.499   6.132  0.2237  0.1288  0.1679
 1074POPI   GL115365  16.059  11.426   6.561 -0.1449 -0.0707 -0.1730
 1074POPI   GL215366  15.748  11.484   6.610 -0.0641  0.0275  0.0955
 1074POPI   C1A15367  16.258  11.128   6.706  0.0120 -0.1761 -0.0103
 1074POPI   D2A15368  16.325  10.933   7.066 -0.3996  0.0668 -0.2081
 1074POPI   C3A15369  16.195  11.043   7.549  0.1589  0.4496 -0.0639
 1074POPI   C4A15370  16.347  10.905   7.941 -0.1394 -0.1497  0.1158
 1074POPI   C1B15371  15.819  11.478   6.984  0.0357  0.0323 -0.0174
 1074POPI   C2B15372  16.013  11.446   7.298  0.1628 -0.0246  0.1264
 1074POPI   C3B15373  15.983  11.510   7.638  0.0684 -0.2808 -0.1185
 1074POPI   C4B15374  15.966  11.611   8.009 -0.0073 -0.2181  0.0368
 1075POPI    C115375   9.293   4.446   5.152 -0.0063 -0.2226  0.0280
 1075POPI    C215376   9.430   4.256   4.827 -0.2294 -0.3040 -0.0206
 1075POPI    C315377   9.093   4.471   4.806 -0.1052 -0.0944  0.0937
 1075POPI   PO415378   9.448   4.491   5.345 -0.1799  0.1076 -0.1372
 1075POPI   GL115379   9.356   4.613   5.818 -0.0107  0.3851  0.0807
 1075POPI   GL215380   9.613   4.763   5.878 -0.5409  0.0863 -0.1516
 1075POPI   C1A15381   9.200   5.038   6.179 -0.0024 -0.0017  0.4053
 1075POPI   D2A15382   9.019   5.155   6.615 -0.0434  0.0235  0.2927
 1075POPI   C3A15383   9.148   5.489   6.994 -0.1661 -0.0195  0.1444
 1075POPI   C4A15384   9.058   5.338   7.377 -0.0932  0.1151 -0.1633
 1075POPI   C1B15385   9.760   4.909   6.293 -0.0321 -0.1108 -0.1988
 1075POPI   C2B15386   9.660   4.957   6.681 -0.0698 -0.1790 -0.0127
 1075POPI   C3B15387   9.364   5.006   6.930 -0.2052  0.0696 -0.1761
 1075POPI   C4B15388   9.012   4.900   7.241 -0.4792  0.0424 -0.0619
 1076POPI    C115389   3.315   5.211   5.666  0.1294  0.0725 -0.0353
 1076POPI    C215390   3.461   5.207   5.293  0.1820  0.0756 -0.0149
 1076POPI    C315391   3.532   4.900   5.539  0.1307  0.0646 -0.0136
 1076POPI   PO415392   3.284   5.346   5.802 -0.0220 -0.0057  0.2211
 1076POPI   GL115393   3.122   5.274   6.147  0.0594 -0.2924 -0.2851
 1076POPI   GL215394   3.345   5.018   6.372  0.1128  0.0751  0.0308
 1076POPI   C1A15395   3.035   5.404   6.603 -0.1836 -0.0999  0.0691
 1076POPI   D2A15396   2.746   5.603   6.953 -0.1023  0.0702 -0.0756
 1076POPI   C3A15397   2.680   5.537   7.306 -0.0052 -0.0915 -0.2643
 1076POPI   C4A15398   2.701   5.507   7.748 -0.4238  0.2743 -0.0687
 1076POPI   C1B15399   3.357   4.981   6.767 -0.1469 -0.3270 -0.0436
 1076POPI   C2B15400   3.198   5.112   7.240  0.0868  0.1166  0.0868
 1076POPI   C3B15401   3.162   5.311   7.612 -0.5037  0.0200  0.1096
 1076POPI   C4B15402   3.161   5.528   8.107  0.3184 -0.0194  0.2105
 1077POPI    C115403  11.122   2.302   5.441 -0.0546  0.2076  0.0024
 1077POPI    C215404  11.216   1.915   5.397  0.0710  0.2062  0.2623
 1077POPI    C315405  11.274   2.172   5.095  0.1048  0.0458  0.1313
 1077POPI   PO415406  11.133   2.351   5.773 -0.2278 -0.1942  0.0844
 1077POPI   GL115407  11.398   2.362   6.065 -0.1949  0.0337 -0.4265
 1077POPI   GL215408  11.212   2.651   6.232  0.1406  0.0368  0.0935
 1077POPI   C1A15409  11.535   2.120   6.505 -0.2239  0.2066  0.0165
 1077POPI   D2A15410  11.578   2.267   6.953  0.0757  0.0287  0.0729
 1077POPI   C3A15411  11.575   2.136   7.309  0.0514 -0.2386 -0.3296
 1077POPI   C4A15412  11.645   2.137   7.709  0.2709  0.4199 -0.0947
 1077POPI   C1B15413  11.200   2.569   6.611 -0.1780  0.3260 -0.0467
 1077POPI   C2B15414  11.361   2.669   7.082  0.6045  0.1218  0.3317
 1077POPI   C3B15415  11.578   2.692   7.464  0.0557  0.1764 -0.1602
 1077POPI   C4B15416  11.701   2.582   7.914  0.1651  0.0524 -0.2786
 1078POPI    C115417  16.136   9.578   5.596  0.2704 -0.0931  0.2200
 1078POPI    C215418  15.875   9.353   5.393 -0.2084  0.3564  0.3135
 1078POPI    C315419  16.209   9.483   5.214 -0.0349 -0.2260  0.1920
 1078POPI   PO415420  16.110   9.421   5.857  0.1864  0.3309 -0.0310
 1078POPI   GL115421  16.027   9.267   6.269  0.0108  0.0334  0.0393
 1078POPI   GL215422  15.819   9.296   6.570 -0.2967  0.0635 -0.2041
 1078POPI   C1A15423  16.324   9.169   6.659 -0.0798 -0.1617 -0.1210
 1078POPI   D2A15424  16.408   8.811   6.937  0.2396 -0.0934  0.1809
 1078POPI   C3A15425  16.489   8.650   7.423  0.0013  0.1774  0.0099
 1078POPI   C4A15426  16.506   8.543   7.767  0.0039  0.2162  0.0935
 1078POPI   C1B15427  15.854   9.426   6.986 -0.3838 -0.3641 -0.1909
 1078POPI   C2B15428  15.815   9.563   7.356 -0.2488 -0.2389  0.0847
 1078POPI   C3B15429  15.906   9.643   7.684 -0.3775 -0.0315 -0.1176
 1078POPI   C4B15430  16.161   9.862   7.991 -0.0855  0.0418 -0.0625
 1079POPI    C115431   1.745   3.420   5.077 -0.3062 -0.2896 -0.1188
 1079POPI    C215432   1.464   3.704   5.063 -0.1933 -0.1713 -0.0140
 1079POPI    C315433   1.439   3.386   4.822 -0.2746 -0.0301 -0.1947
 1079POPI   PO415434   1.768   3.449   5.480 -0.0133  0.0978 -0.1771
 1079POPI   GL115435   1.571   3.096   5.837 -0.5265  0.0733  0.3167
 1079POPI   GL215436   1.299   3.164   5.961 -0.5760 -0.1597  0.0427
 1079POPI   C1A15437   1.713   2.878   6.161  0.0917  0.0681  0.2258
 1079POPI   D2A15438   1.635   2.895   6.631 -0.1863  0.0708  0.0616
 1079POPI   C3A15439   1.713   2.715   7.045 -0.1876 -0.1717  0.2252
 1079POPI   C4A15440   1.553   2.611   7.481  0.0097  0.1349 -0.1674
 1079POPI   C1B15441   1.487   3.318   6.306 -0.0663 -0.0505 -0.1030
 1079POPI   C2B15442   1.775   3.457   6.423  0.2076 -0.1023 -0.0266
 1079POPI   C3B15443   1.937   3.839   6.604  0.0215  0.0284  0.0606
 1079POPI   C4B15444   2.089   3.837   6.978 -0.0841 -0.0910 -0.0756
 1080POPI    C115445  10.870   0.161   5.628 -0.2101  0.0173  0.2141
 1080POPI    C215446  10.592   0.292   5.372 -0.1764 -0.0256  0.1552
 1080POPI    C315447  10.862   0.022   5.253 -0.2297 -0.1296  0.2684
 1080POPI   PO415448  10.729   0.007   5.866 -0.1797  0.2768  0.0399
 1080POPI   GL115449  10.451  -0.341   5.988 -0.0523 -0.0991 -0.0154
 1080POPI   GL215450  10.071  -0.261   6.037 -0.0575  0.0388  0.1525
 1080POPI   C1A15451  10.506  -0.535   6.369 -0.2653  0.0266 -0.1688
 1080POPI   D2A15452  10.429  -0.897   6.533  0.4274  0.0057 -0.1161
 1080POPI   C3A15453  10.144  -0.841   6.749  0.3007 -0.0658 -0.0306
 1080POPI   C4A15454   9.994  -0.896   7.182 -0.0444 -0.0795 -0.0166
 1080POPI   C1B15455  10.100  -0.326   6.492 -0.2602  0.0047  0.2196
 1080POPI   C2B15456  10.150  -0.405   7.010 -0.2673  0.2627  0.1512
 1080POPI   C3B15457  10.063  -0.472   7.485  0.1382  0.1326  0.1130
 1080POPI   C4B15458  10.405  -0.387   7.923 -0.1112  0.0159 -0.1595
 1081POPI    C115459   0.260  13.558   5.654  0.0047 -0.2029 -0.0166
 1081POPI    C215460   0.475  13.467   5.328  0.2718  0.2864  0.0134
 1081POPI    C315461   0.108  13.620   5.289  0.1450 -0.0261 -0.0468
 1081POPI   PO415462   0.526  13.755   5.829 -0.3974 -0.1810 -0.0493
 1081POPI   GL115463   0.773  13.745   6.208  0.0385 -0.1979  0.1917
 1081POPI   GL215464   0.511  13.874   6.366 -0.1104 -0.0144  0.0001
 1081POPI   C1A15465   0.969  13.940   6.644  0.1645 -0.2543 -0.0643
 1081POPI   D2A15466   1.395  14.250   6.530 -0.1126 -0.5726 -0.0735
 1081POPI   C3A15467   1.559  14.440   6.879  0.3021 -0.1831  0.0991
 1081POPI   C4A15468   1.680  14.391   7.308  0.0314 -0.1310  0.2799
 1081POPI   C1B15469   0.348  13.885   6.812 -0.1798  0.1578 -0.5164
 1081POPI   C2B15470   0.692  13.951   7.047 -0.0062 -0.0406  0.1091
 1081POPI   C3B15471   0.701  13.762   7.428 -0.1058  0.0379 -0.5127
 1081POPI   C4B15472   0.258  13.476   7.678 -0.1182 -0.0308  0.0800
 1082POPI    C115473   2.559   3.141   5.605  0.0753  0.0266  0.0789
 1082POPI    C215474   2.728   3.172   5.244  0.0991  0.0481  0.0918
 1082POPI    C315475   2.470   2.876   5.319  0.1139  0.0283  0.0652
 1082POPI   PO415476   2.618   3.305   5.725  0.2532  0.1584  0.0044
 1082POPI   GL115477   2.511   3.475   6.087 -0.0607  0.0037 -0.1212
 1082POPI   GL215478   2.208   3.532   6.239 -0.2677  0.1901 -0.2165
 1082POPI   C1A15479   2.625   3.197   6.462  0.0254 -0.0023  0.2622
 1082POPI   D2A15480   2.621   3.043   6.881 -0.1326  0.1848 -0.2958
 1082POPI   C3A15481   2.596   3.070   7.351  0.1572  0.0700 -0.4508
 1082POPI   C4A15482   2.254   3.220   7.604  0.0105  0.0180 -0.0378
 1082POPI   C1B15483   2.235   3.477   6.632 -0.2396 -0.0715 -0.1779
 1082POPI   C2B15484   2.149   3.306   7.079 -0.2212  0.2722 -0.0214
 1082POPI   C3B15485   2.071   3.655   7.438  0.1706 -0.1764  0.1888
 1082POPI   C4B15486   1.778   3.535   7.684  0.3247  0.0966 -0.1766
 1083POPI    C115487   8.350   2.778   5.897 -0.1965 -0.1915 -0.1764
 1083POPI    C215488   8.151   2.937   5.588 -0.0758  0.1609 -0.0770
 1083POPI    C315489   8.551   2.927   5.585 -0.0756  0.1082  0.0409
 1083POPI   PO415490   8.189   2.898   6.143 -0.2824 -0.0416  0.1054
 1083POPI   GL115491   8.230   3.077   6.554 -0.0241 -0.1381  0.1334
 1083POPI   GL215492   8.427   3.344   6.395 -0.3672  0.2644  0.1824
 1083POPI   C1A15493   8.222   3.318   6.972  0.0415 -0.2265 -0.0686
 1083POPI   D2A15494   8.361   3.407   7.294  0.2180  0.3612 -0.1830
 1083POPI   C3A15495   8.150   3.363   7.643 -0.2147  0.1487 -0.2134
 1083POPI   C4A15496   8.202   3.044   7.910  0.0804 -0.0527 -0.2115
 1083POPI   C1B15497   8.620   3.578   6.724 -0.1408 -0.1363  0.0373
 1083POPI   C2B15498   9.078   3.701   6.810 -0.1385 -0.3676  0.0942
 1083POPI   C3B15499   9.216   3.850   7.270  0.0954  0.1100  0.0766
 1083POPI   C4B15500   9.523   4.107   7.459  0.0911 -0.1641  0.0558
 1084POPI    C115501   0.032  14.696   5.832  0.1399 -0.1130 -0.0300
 1084POPI    C215502  -0.191  14.507   5.559  0.1061  0.0249 -0.0987
 1084POPI    C315503  -0.364  14.750   5.825  0.1767  0.1529 -0.1691
 1084POPI   PO415504   0.149  14.484   6.018  0.0732  0.1762  0.1032
 1084POPI   GL115505   0.176  14.330   6.389  0.3453  0.4119  0.1622
 1084POPI   GL215506   0.517  14.330   6.482  0.1172  0.2583 -0.4518
 1084POPI   C1A15507  -0.012  14.311   6.722  0.0803  0.0652 -0.0134
 1084POPI   D2A15508   0.008  14.181   7.129  0.1042 -0.3344 -0.3114
 1084POPI   C3A15509  -0.325  14.086   7.439 -0.2406 -0.1315 -0.0806
 1084POPI   C4A15510  -0.462  14.094   7.920  0.3056 -0.0552 -0.2124
 1084POPI   C1B15511   0.461  14.372   6.906  0.2576 -0.0297  0.2903
 1084POPI   C2B15512   0.451  14.342   7.335 -0.0287 -0.0257 -0.1574
 1084POPI   C3B15513   0.744  14.168   7.644  0.2505  0.3008  0.0323
 1084POPI   C4B15514   0.977  14.024   7.951  0.0424  0.0411 -0.3335
 1085POPI    C115515   3.259   6.428   5.832 -0.3608  0.1065  0.0877
 1085POPI    C215516   3.153   6.798   5.725  0.1144  0.2667  0.1467
 1085POPI    C315517   3.210   6.518   5.446  0.3524  0.4067  0.0525
 1085POPI   PO415518   3.155   6.343   5.981 -0.0899  0.1063 -0.0181
 1085POPI   GL115519   3.119   6.508   6.371  0.0430 -0.0753  0.1683
 1085POPI   GL215520   3.355   6.496   6.581 -0.4223  0.0072 -0.0089
 1085POPI   C1A15521   2.885   6.603   6.808 -0.0738 -0.0746 -0.0681
 1085POPI   D2A15522   2.745   6.763   7.185  0.2541 -0.2649 -0.1697
 1085POPI   C3A15523   2.883   6.747   7.672  0.0877  0.3845 -0.0943
 1085POPI   C4A15524   2.932   6.984   8.026 -0.1193 -0.5798 -0.1348
 1085POPI   C1B15525   3.297   6.544   7.038  0.5518  0.0798 -0.1772
 1085POPI   C2B15526   3.535   6.729   7.380  0.2658 -0.0493  0.1196
 1085POPI   C3B15527   3.373   6.725   7.810  0.0115  0.0483 -0.2010
 1085POPI   C4B15528   3.233   6.651   8.298 -0.1012 -0.2936  0.2063
 1086POPI    C115529   4.218   8.751   5.450 -0.0915  0.0372 -0.2365
 1086POPI    C215530   3.968   8.473   5.592 -0.1010  0.0090 -0.3078
 1086POPI    C315531   3.826   8.828   5.474 -0.0657  0.1135 -0.0433
 1086POPI   PO415532   4.398   8.742   5.726 -0.0344 -0.0795 -0.2471
 1086POPI   GL115533   4.472   8.720   6.229  0.0106 -0.2085 -0.0992
 1086POPI   GL215534   4.253   8.501   6.386  0.1375 -0.0901  0.0318
 1086POPI   C1A15535   4.623   8.750   6.520 -0.0702 -0.2681 -0.0599
 1086POPI   D2A15536   4.729   9.214   6.616 -0.1152 -0.0351 -0.5268
 1086POPI   C3A15537   4.510   9.285   6.935  0.0158 -0.1161  0.3548
 1086POPI   C4A15538   4.343   9.246   7.328  0.0418 -0.1696  0.1794
 1086POPI   C1B15539   4.205   8.511   6.790 -0.1118  0.1987  0.0707
 1086POPI   C2B15540   4.302   8.757   7.146  0.0691 -0.4796  0.2355
 1086POPI   C3B15541   4.601   8.766   7.508 -0.0531  0.0801 -0.0635
 1086POPI   C4B15542   4.640   8.561   7.939 -0.4973 -0.0386 -0.1878
 1087POPI    C115543  13.015  14.627   5.397  0.1583  0.0587 -0.0818
 1087POPI    C215544  13.169  14.995   5.425 -0.1108  0.1814 -0.1758
 1087POPI    C315545  13.094  14.836   5.065 -0.0198  0.0441 -0.1348
 1087POPI   PO415546  12.935  14.635   5.668 -0.0134  0.1544  0.0533
 1087POPI   GL115547  12.711  14.516   5.965  0.2360 -0.1233 -0.0078
 1087POPI   GL215548  12.702  14.706   6.241  0.2105  0.1887 -0.1831
 1087POPI   C1A15549  12.999  14.297   6.217 -0.1113 -0.1897 -0.2541
 1087POPI   D2A15550  13.278  13.992   6.329  0.2127 -0.3415  0.0409
 1087POPI   C3A15551  13.334  14.074   6.800  0.1297  0.0449  0.0292
 1087POPI   C4A15552  13.263  14.132   7.183  0.3294 -0.1880  0.2333
 1087POPI   C1B15553  12.674  14.721   6.486  0.0864 -0.0873  0.1529
 1087POPI   C2B15554  12.891  14.825   6.822 -0.0032  0.0958 -0.0719
 1087POPI   C3B15555  12.811  14.911   7.231  0.1118 -0.0280 -0.3599
 1087POPI   C4B15556  12.743  15.210   7.499  0.0739  0.2181 -0.0570
 1088POPI    C115557  12.632  16.595   5.584  0.1532 -0.0063  0.2410
 1088POPI    C215558  12.241  16.562   5.664  0.1244  0.3038  0.2405
 1088POPI    C315559  12.374  16.862   5.435  0.3366  0.0621  0.0411
 1088POPI   PO415560  12.774  16.553   5.802 -0.0759 -0.2041  0.3722
 1088POPI   GL115561  12.799  16.480   6.253  0.0854  0.2146  0.0322
 1088POPI   GL215562  13.009  16.297   6.385 -0.0285 -0.2029  0.2312
 1088POPI   C1A15563  12.600  16.212   6.581  0.2241 -0.2560 -0.3259
 1088POPI   D2A15564  12.466  16.218   6.830 -0.1556 -0.0761 -0.1416
 1088POPI   C3A15565  12.584  16.269   7.141  0.2130 -0.1103  0.0058
 1088POPI   C4A15566  12.529  16.414   7.586  0.0667 -0.3813 -0.2812
 1088POPI   C1B15567  13.008  16.376   6.789 -0.0693  0.1162  0.1537
 1088POPI   C2B15568  12.962  16.494   7.246 -0.3502 -0.2592 -0.1680
 1088POPI   C3B15569  12.987  16.475   7.777 -0.3272 -0.4667  0.1942
 1088POPI   C4B15570  13.035  16.280   8.119 -0.0909  0.1141  0.1334
 1089POPI    C115571  10.245  15.292   5.753 -0.0300 -0.1528  0.0457
 1089POPI    C215572  10.536  15.473   5.546 -0.0361 -0.2103 -0.0134
 1089POPI    C315573  10.153  15.562   5.472 -0.0393 -0.2491 -0.0445
 1089POPI   PO415574  10.196  15.262   5.995 -0.2450 -0.0197 -0.2039
 1089POPI   GL115575   9.919  15.309   6.236  0.0490 -0.0429 -0.1350
 1089POPI   GL215576   9.763  15.036   6.329 -0.0087  0.0123 -0.2629
 1089POPI   C1A15577  10.014  15.296   6.678 -0.0432  0.2301 -0.2933
 1089POPI   D2A15578   9.862  15.257   7.017 -0.3202  0.0539  0.0509
 1089POPI   C3A15579   9.947  15.528   7.284  0.1717 -0.1093  0.2063
 1089POPI   C4A15580   9.898  15.903   7.501 -0.1269 -0.0293  0.0117
 1089POPI   C1B15581   9.471  14.947   6.625  0.1075 -0.2411  0.0216
 1089POPI   C2B15582   9.415  14.976   6.982 -0.3228  0.0971 -0.3992
 1089POPI   C3B15583   9.551  15.227   7.403 -0.2256  0.0523  0.1870
 1089POPI   C4B15584   9.776  15.477   7.769 -0.1793 -0.0202  0.0987
 1090POPI    C115585  12.484  17.910   5.838  0.4636 -0.1616 -0.1860
 1090POPI    C215586  12.304  18.063   5.515  0.3328 -0.0624 -0.0675
 1090POPI    C315587  12.329  17.666   5.561 -0.0612 -0.0809  0.0243
 1090POPI   PO415588  12.772  18.171   5.861  0.1426  0.0759  0.0682
 1090POPI   GL115589  12.831  18.292   6.300 -0.1007 -0.0126 -0.0513
 1090POPI   GL215590  13.029  18.114   6.396  0.0379  0.0116 -0.0575
 1090POPI   C1A15591  12.472  18.310   6.543 -0.1104  0.1394 -0.0814
 1090POPI   D2A15592  12.604  18.430   6.951  0.1733 -0.0000  0.0451
 1090POPI   C3A15593  12.857  18.328   7.333  0.5338  0.0731  0.2018
 1090POPI   C4A15594  13.140  18.385   7.651  0.1287  0.2636 -0.1139
 1090POPI   C1B15595  13.037  18.152   6.797  0.0429  0.2221  0.1732
 1090POPI   C2B15596  13.315  18.018   7.097  0.1012 -0.0971 -0.1385
 1090POPI   C3B15597  13.397  17.984   7.520  0.0061  0.1033  0.1551
 1090POPI   C4B15598  13.540  18.018   7.852  0.1521  0.1901 -0.0378
 1091POPI    C115599   3.131   4.659   5.488  0.0777  0.0880 -0.1366
 1091POPI    C215600   3.022   4.983   5.281  0.3602  0.0318 -0.3809
 1091POPI    C315601   2.949   4.618   5.134 -0.0372 -0.0229 -0.0655
 1091POPI   PO415602   3.090   4.713   5.747  0.1300  0.2972 -0.0429
 1091POPI   GL115603   2.961   4.791   6.121 -0.2874 -0.3076  0.1935
 1091POPI   GL215604   2.901   4.465   6.216  0.0176 -0.2197  0.0633
 1091POPI   C1A15605   2.911   4.893   6.655 -0.0503 -0.4115 -0.1836
 1091POPI   D2A15606   2.758   5.011   7.093 -0.1818 -0.2911  0.1255
 1091POPI   C3A15607   2.805   4.890   7.409  0.3626  0.2668  0.0650
 1091POPI   C4A15608   2.641   4.731   7.755  0.2663  0.0105 -0.1840
 1091POPI   C1B15609   2.850   4.314   6.555 -0.0454  0.4819 -0.0392
 1091POPI   C2B15610   2.861   4.324   6.972 -0.2343 -0.0020 -0.1643
 1091POPI   C3B15611   2.795   4.426   7.385  0.1816 -0.0694  0.0817
 1091POPI   C4B15612   2.996   4.306   7.850  0.2189  0.0082 -0.3599
 1092POPI    C115613  10.856   1.237   5.854  0.1820  0.1055  0.0384
 1092POPI    C215614  10.602   1.493   5.679 -0.0052 -0.0055  0.1452
 1092POPI    C315615  10.995   1.518   5.605 -0.0714  0.0107 -0.2149
 1092POPI   PO415616  10.682   1.003   6.003  0.0058  0.0300  0.1825
 1092POPI   GL115617  10.586   0.982   6.442  0.3100 -0.0009 -0.0280
 1092POPI   GL215618  10.760   1.248   6.479  0.1879 -0.2485 -0.1570
 1092POPI   C1A15619  10.550   0.629   6.605  0.0566  0.2045 -0.1410
 1092POPI   D2A15620  10.495   0.624   7.181 -0.3061 -0.0412  0.2698
 1092POPI   C3A15621  10.677   0.611   7.602  0.2675 -0.0807 -0.1681
 1092POPI   C4A15622  10.634   0.715   8.076  0.1668  0.1178  0.2002
 1092POPI   C1B15623  10.605   1.310   6.870 -0.1574 -0.0677 -0.1718
 1092POPI   C2B15624  10.444   1.472   7.287  0.3976 -0.0339 -0.1181
 1092POPI   C3B15625  10.296   1.567   7.734  0.0845  0.2412  0.0307
 1092POPI   C4B15626   9.877   1.786   7.824 -0.1391 -0.1496 -0.2900
 1093POPI    C115627  12.853   5.869   5.775  0.2848  0.3226  0.0553
 1093POPI    C215628  12.544   6.109   5.859  0.0336  0.0329 -0.0220
 1093POPI    C315629  12.746   6.156   5.517 -0.1281  0.0200 -0.1199
 1093POPI   PO415630  12.898   5.705   6.009  0.2088 -0.3453  0.2089
 1093POPI   GL115631  12.958   5.791   6.432 -0.3200  0.2355 -0.0988
 1093POPI   GL215632  13.173   5.784   6.510  0.1347  0.2878 -0.1440
 1093POPI   C1A15633  13.003   6.206   6.747  0.0174  0.1406  0.0250
 1093POPI   D2A15634  12.960   6.297   7.210 -0.0911  0.1162 -0.3898
 1093POPI   C3A15635  13.301   6.357   7.571  0.2439  0.0817 -0.0384
 1093POPI   C4A15636  13.525   6.658   7.902 -0.1686  0.1804 -0.2140
 1093POPI   C1B15637  13.158   5.715   6.973  0.1077  0.1116  0.2699
 1093POPI   C2B15638  13.093   5.852   7.356  0.2438  0.2591 -0.0213
 1093POPI   C3B15639  12.889   6.069   7.666  0.1983  0.1508  0.0104
 1093POPI   C4B15640  12.931   6.322   8.017 -0.1885 -0.0657 -0.1804
 1094POPI    C115641  12.026  14.664   5.742 -0.0204 -0.1516 -0.0942
 1094POPI    C215642  12.147  14.870   5.422  0.1392  0.0162  0.0720
 1094POPI    C315643  11.784  14.936   5.576  0.1235  0.0492  0.0213
 1094POPI   PO415644  12.167  14.637   5.913  0.2940  0.1375  0.1363
 1094POPI   GL115645  12.166  14.356   6.294  0.2327 -0.1492  0.0496
 1094POPI   GL215646  12.039  14.098   6.227  0.4742 -0.1631 -0.1262
 1094POPI   C1A15647  12.217  14.125   6.708  0.0707  0.2110 -0.2020
 1094POPI   D2A15648  12.306  14.021   7.151 -0.0763 -0.0807  0.2298
 1094POPI   C3A15649  12.300  14.051   7.575  0.1331  0.2323  0.1201
 1094POPI   C4A15650  12.322  14.017   8.015 -0.1748  0.0779  0.0260
 1094POPI   C1B15651  12.180  13.693   6.448 -0.2368 -0.0652 -0.0751
 1094POPI   C2B15652  12.489  13.712   6.755 -0.0344  0.0890  0.1432
 1094POPI   C3B15653  12.720  13.722   7.140 -0.1753  0.1759  0.0770
 1094POPI   C4B15654  12.754  13.958   7.417 -0.0966  0.1888 -0.1225
 1095POPI    C115655   9.490   6.838   5.615  0.0482  0.0011 -0.1970
 1095POPI    C215656   9.429   6.618   5.287 -0.1429  0.2126 -0.3060
 1095POPI    C315657   9.543   7.000   5.253 -0.3040  0.2775 -0.1302
 1095POPI   PO415658   9.270   6.671   5.780 -0.0315 -0.1447 -0.1022
 1095POPI   GL115659   9.282   6.491   6.144 -0.3663  0.0067 -0.1191
 1095POPI   GL215660   8.988   6.209   5.987  0.1365  0.1349  0.0303
 1095POPI   C1A15661   9.440   6.427   6.609  0.3531  0.3299 -0.1005
 1095POPI   D2A15662   9.374   6.427   7.063  0.0134  0.0074  0.1196
 1095POPI   C3A15663   9.193   6.334   7.502  0.0220 -0.0265  0.0872
 1095POPI   C4A15664   9.072   6.463   7.885 -0.3243  0.1786  0.0696
 1095POPI   C1B15665   9.151   6.020   6.363  0.0879 -0.0864  0.1285
 1095POPI   C2B15666   9.217   5.945   6.884 -0.0730 -0.0020  0.1995
 1095POPI   C3B15667   9.433   5.873   7.299  0.0060 -0.0219  0.2892
 1095POPI   C4B15668   9.721   5.917   7.650  0.2062  0.0244 -0.0501
 1096POPI    C115669  17.568   0.299   5.617  0.3006  0.2950 -0.0913
 1096POPI    C215670  17.531   0.426   5.239  0.2923  0.1603 -0.1366
 1096POPI    C315671  17.456   0.676   5.543 -0.3151  0.0988 -0.2220
 1096POPI   PO415672  17.796   0.235   5.684  0.2707  0.1795 -0.1107
 1096POPI   GL115673  17.969   0.614   5.902 -0.5920  0.1502 -0.1502
 1096POPI   GL215674  17.646   0.620   6.010 -0.3153 -0.1981  0.0021
 1096POPI   C1A15675  18.058   0.498   6.361  0.1681 -0.0221 -0.2433
 1096POPI   D2A15676  18.223   0.558   6.770  0.0505  0.1242  0.3245
 1096POPI   C3A15677  18.012   0.247   6.977 -0.3077  0.3532  0.2182
 1096POPI   C4A15678  18.148   0.118   7.327  0.0244  0.2517  0.0158
 1096POPI   C1B15679  17.530   0.487   6.345 -0.0832  0.1069 -0.2880
 1096POPI   C2B15680  17.699   0.575   6.793 -0.1442  0.2222 -0.0978
 1096POPI   C3B15681  17.817   0.625   7.264 -0.1294  0.0105 -0.1055
 1096POPI   C4B15682  18.083   0.738   7.615  0.0932  0.0487  0.1499
 1097DPPI    C115683   6.720  17.374   5.924  0.3363  0.2281 -0.1191
 1097DPPI    C215684   6.991  17.269   5.649 -0.0430  0.0256 -0.4249
 1097DPPI    C315685   6.627  17.103   5.645  0.0382 -0.2164  0.3921
 1097DPPI   PO415686   6.872  17.496   6.098 -0.4068 -0.1134 -0.0422
 1097DPPI   GL115687   6.919  17.362   6.472 -0.2041 -0.2423 -0.2517
 1097DPPI   GL215688   6.778  17.102   6.606 -0.2381 -0.3546  0.1187
 1097DPPI   C1A15689   6.755  17.497   6.873 -0.1169 -0.2336  0.1081
 1097DPPI   C2A15690   6.542  17.549   7.212 -0.1026 -0.1711  0.1798
 1097DPPI   C3A15691   6.363  17.621   7.568 -0.2383 -0.0971 -0.0229
 1097DPPI   C4A15692   6.041  17.623   7.916  0.0140  0.0792  0.0069
 1097DPPI   C1B15693   6.820  17.048   7.046  0.0623 -0.0800  0.0411
 1097DPPI   C2B15694   6.753  16.945   7.420 -0.1805 -0.1258 -0.0353
 1097DPPI   C3B15695   6.706  17.039   7.839 -0.4009  0.1906  0.1418
 1097DPPI   C4B15696   6.638  16.976   8.264  0.1635 -0.0784  0.3134
 1098DPPI    C115697   6.842   1.822   5.637  0.1289  0.2696 -0.1019
 1098DPPI    C215698   7.238   1.762   5.636  0.0988  0.0652 -0.2200
 1098DPPI    C315699   6.996   1.510   5.440 -0.0910  0.1856 -0.1438
 1098DPPI   PO415700   6.787   1.921   5.921 -0.1954  0.2183  0.1579
 1098DPPI   GL115701   6.774   1.795   6.390 -0.3684 -0.0547 -0.2033
 1098DPPI   GL215702   6.511   2.019   6.454 -0.0743 -0.0964  0.0330
 1098DPPI   C1A15703   7.008   1.768   6.680 -0.0748  0.0826 -0.2004
 1098DPPI   C2A15704   7.090   1.838   7.110  0.2043  0.0868 -0.0492
 1098DPPI   C3A15705   7.097   1.782   7.520 -0.1181  0.0335  0.1293
 1098DPPI   C4A15706   7.145   1.767   7.913  0.2214  0.0141 -0.2080
 1098DPPI   C1B15707   6.336   2.275   6.886 -0.2339 -0.4661 -0.0619
 1098DPPI   C2B15708   6.501   2.568   7.135  0.0862  0.3531  0.2360
 1098DPPI   C3B15709   6.808   2.543   7.513 -0.3088 -0.3330  0.0158
 1098DPPI   C4B15710   7.009   2.651   7.907  0.1126  0.0252  0.2864
 1099DPPI    C115711   6.260   5.715   5.150 -0.0382  0.0111  0.0943
 1099DPPI    C215712   6.058   6.056   5.097  0.0129 -0.0115 -0.2729
 1099DPPI    C315713   5.925   5.717   4.931 -0.0595 -0.1827  0.1235
 1099DPPI   PO415714   6.267   5.611   5.402  0.2786  0.1377  0.0393
 1099DPPI   GL115715   6.145   5.598   5.820 -0.2030 -0.3864  0.2693
 1099DPPI   GL215716   6.413   5.430   5.874 -0.0614  0.1345 -0.3804
 1099DPPI   C1A15717   6.327   5.657   6.313  0.2837 -0.2822  0.0221
 1099DPPI   C2A15718   6.463   5.561   6.708 -0.1121 -0.1009  0.1356
 1099DPPI   C3A15719   6.437   5.644   7.252  0.1478  0.3042  0.0005
 1099DPPI   C4A15720   6.318   5.662   7.653 -0.0702  0.1590  0.0340
 1099DPPI   C1B15721   6.577   5.249   6.257  0.0703  0.0288 -0.0647
 1099DPPI   C2B15722   6.591   5.086   6.541  0.1819  0.1706 -0.1038
 1099DPPI   C3B15723   6.563   4.932   6.943 -0.1941 -0.0757  0.0857
 1099DPPI   C4B15724   6.514   5.101   7.371  0.3208  0.0843  0.0386
 1100DPPI    C115725  17.054   7.332   5.753 -0.1024 -0.1836 -0.1934
 1100DPPI    C215726  17.294   7.162   5.482 -0.0224  0.2385 -0.3960
 1100DPPI    C315727  17.032   7.442   5.369 -0.2482  0.1560 -0.0918
 1100DPPI   PO415728  17.046   7.175   5.980  0.0765 -0.0234 -0.4145
 1100DPPI   GL115729  16.923   6.981   6.483 -0.0632  0.2464 -0.0543
 1100DPPI   GL215730  17.077   7.248   6.481  0.0193  0.2019 -0.0031
 1100DPPI   C1A15731  16.652   7.015   6.824  0.1969 -0.1566 -0.0186
 1100DPPI   C2A15732  16.572   6.944   7.161 -0.0704  0.3430  0.3118
 1100DPPI   C3A15733  16.393   7.108   7.537  0.2065  0.0210 -0.0357
 1100DPPI   C4A15734  16.254   7.408   7.773  0.0244  0.0078 -0.0301
 1100DPPI   C1B15735  17.058   7.347   6.845 -0.0096  0.1929 -0.1666
 1100DPPI   C2B15736  17.056   7.252   7.198  0.2653 -0.4632  0.0381
 1100DPPI   C3B15737  17.029   7.142   7.606 -0.1736  0.1568  0.0284
 1100DPPI   C4B15738  17.133   7.454   7.914  0.3896 -0.3805 -0.1506
 1101DPPI    C115739   2.163  12.553   5.701  0.0174 -0.2925  0.1237
 1101DPPI    C215740   2.007  12.562   5.333  0.0297 -0.0415  0.1231
 1101DPPI    C315741   2.402  12.598   5.383  0.0506 -0.2930  0.1485
 1101DPPI   PO415742   1.965  12.359   5.846 -0.3712 -0.3735  0.1612
 1101DPPI   GL115743   1.963  12.280   6.190 -0.0162  0.2312  0.1880
 1101DPPI   GL215744   2.149  12.627   6.264  0.3250  0.3602  0.2343
 1101DPPI   C1A15745   2.087  11.993   6.563 -0.0956 -0.0672 -0.2736
 1101DPPI   C2A15746   2.130  11.592   6.853 -0.1801  0.1701  0.2788
 1101DPPI   C3A15747   2.141  11.296   7.221  0.0143  0.2540  0.2096
 1101DPPI   C4A15748   1.936  11.186   7.623  0.0241  0.2093 -0.0969
 1101DPPI   C1B15749   2.010  12.466   6.646  0.1344  0.0299 -0.4124
 1101DPPI   C2B15750   2.158  12.411   6.979 -0.3226 -0.0514  0.0606
 1101DPPI   C3B15751   2.081  12.395   7.337  0.4042  0.0536 -0.0722
 1101DPPI   C4B15752   1.965  12.664   7.732 -0.1036 -0.0634 -0.0738
 1102DPPI    C115753  15.007  14.218   5.810 -0.1625 -0.1366  0.2803
 1102DPPI    C215754  15.396  14.242   5.723 -0.1111 -0.4462  0.4138
 1102DPPI    C315755  15.138  14.111   5.447 -0.1133 -0.3008  0.3459
 1102DPPI   PO415756  14.971  14.404   5.906  0.1171  0.1426  0.0493
 1102DPPI   GL115757  15.145  14.429   6.327  0.3815  0.0956 -0.0593
 1102DPPI   GL215758  15.239  14.094   6.234  0.0668 -0.0364  0.1016
 1102DPPI   C1A15759  15.051  14.635   6.743 -0.1359 -0.0622  0.1476
 1102DPPI   C2A15760  14.903  14.692   7.163 -0.1515  0.0654 -0.1368
 1102DPPI   C3A15761  14.980  14.637   7.619 -0.3253  0.1480 -0.0577
 1102DPPI   C4A15762  15.131  14.743   8.091  0.2573  0.1544  0.1025
 1102DPPI   C1B15763  14.802  14.136   6.601  0.0698 -0.0994 -0.1138
 1102DPPI   C2B15764  14.629  14.260   7.080 -0.0774  0.1518 -0.0252
 1102DPPI   C3B15765  14.231  14.376   7.182 -0.3744 -0.3883  0.1830
 1102DPPI   C4B15766  14.050  14.508   7.540  0.0220 -0.2364  0.0461
 1103DPPI    C115767   1.992   7.616   5.887  0.0204 -0.2212  0.3256
 1103DPPI    C215768   2.366   7.658   5.751 -0.0492  0.1134  0.2280
 1103DPPI    C315769   2.139   7.356   5.621  0.1151  0.0324  0.1257
 1103DPPI   PO415770   2.027   7.599   6.283 -0.0027  0.2084 -0.0130
 1103DPPI   GL115771   2.370   7.727   6.569  0.1825 -0.0190  0.0431
 1103DPPI   GL215772   2.323   7.414   6.713 -0.0266  0.2262  0.1660
 1103DPPI   C1A15773   2.767   7.984   6.734 -0.0158  0.0433  0.0245
 1103DPPI   C2A15774   3.038   8.092   7.153 -0.1848  0.0386  0.2015
 1103DPPI   C3A15775   3.159   7.977   7.586  0.4164 -0.0883 -0.1263
 1103DPPI   C4A15776   3.489   8.137   7.873  0.0113 -0.0314 -0.1059
 1103DPPI   C1B15777   2.211   7.825   7.030  0.0101  0.1765  0.3523
 1103DPPI   C2B15778   2.499   8.136   7.137 -0.0398  0.0241  0.1897
 1103DPPI   C3B15779   2.608   8.312   7.417  0.2519 -0.0586 -0.0020
 1103DPPI   C4B15780   2.663   8.588   7.793  0.1815  0.3730 -0.0922
 1104DPPI    C115781   9.000   4.349   5.554  0.1457  0.0556 -0.0643
 1104DPPI    C215782   8.874   4.183   5.213  0.0396  0.0058 -0.0013
 1104DPPI    C315783   8.838   4.578   5.269 -0.2419 -0.0297  0.0825
 1104DPPI   PO415784   9.094   4.175   5.764  0.2544 -0.0947  0.0770
 1104DPPI   GL115785   9.328   4.096   6.132 -0.1607  0.3229  0.0748
 1104DPPI   GL215786   9.230   3.877   6.230 -0.1312 -0.1534  0.5177
 1104DPPI   C1A15787   9.326   4.541   6.279 -0.1058 -0.1081  0.0005
 1104DPPI   C2A15788   9.131   4.606   6.685  0.0963 -0.3173 -0.1210
 1104DPPI   C3A15789   8.716   4.585   7.006 -0.1864 -0.2576  0.0868
 1104DPPI   C4A15790   8.429   4.838   7.177  0.1302 -0.0405 -0.2077
 1104DPPI   C1B15791   9.201   4.134   6.650 -0.3361 -0.0307  0.2206
 1104DPPI   C2B15792   9.140   4.338   7.084 -0.4486  0.3214 -0.2768
 1104DPPI   C3B15793   9.057   4.336   7.395 -0.0196 -0.0516  0.1571
 1104DPPI   C4B15794   9.096   4.459   7.808 -0.0713  0.0743  0.0479
 1105DPPI    C115795   8.867  16.886   5.750 -0.0647  0.0251  0.0667
 1105DPPI    C215796   8.695  16.878   5.389 -0.2065  0.2249  0.1276
 1105DPPI    C315797   9.016  17.108   5.452  0.0649 -0.1167  0.0249
 1105DPPI   PO415798   8.589  16.870   5.857  0.3735  0.1694  0.3107
 1105DPPI   GL115799   8.807  16.750   6.243  0.1984  0.0509  0.2902
 1105DPPI   GL215800   8.484  16.790   6.405 -0.0712 -0.1729  0.2245
 1105DPPI   C1A15801   8.877  16.428   6.553  0.1717 -0.2125 -0.0890
 1105DPPI   C2A15802   8.927  16.191   6.933  0.2204  0.3739 -0.1171
 1105DPPI   C3A15803   8.826  16.238   7.400 -0.2013  0.1594  0.3062
 1105DPPI   C4A15804   8.726  16.400   7.803  0.0134  0.3129 -0.2767
 1105DPPI   C1B15805   8.672  16.793   6.850  0.1648 -0.2228 -0.2941
 1105DPPI   C2B15806   8.711  16.748   7.314  0.2548 -0.2208  0.0368
 1105DPPI   C3B15807   8.531  16.866   7.828  0.0500  0.0630 -0.1474
 1105DPPI   C4B15808   8.445  16.745   8.247 -0.2415  0.0896 -0.1139
 1106DPPI    C115809  12.434   1.043   5.498 -0.2372  0.0297 -0.0661
 1106DPPI    C215810  12.720   1.056   5.219  0.0724 -0.0504  0.2394
 1106DPPI    C315811  12.530   1.391   5.326  0.1576  0.0298  0.1417
 1106DPPI   PO415812  12.622   0.993   5.781  0.2682 -0.0888 -0.0517
 1106DPPI   GL115813  12.701   1.024   6.169 -0.1822  0.2336  0.3480
 1106DPPI   GL215814  12.874   0.752   6.259  0.1397 -0.0473  0.1986
 1106DPPI   C1A15815  12.749   1.144   6.580 -0.1452  0.1910  0.2109
 1106DPPI   C2A15816  12.585   1.277   6.932 -0.0821 -0.1288  0.0616
 1106DPPI   C3A15817  12.697   1.367   7.379 -0.1796  0.5177  0.0176
 1106DPPI   C4A15818  12.792   1.056   7.590  0.2050  0.1206  0.1256
 1106DPPI   C1B15819  12.933   0.659   6.642 -0.1188  0.3604  0.0751
 1106DPPI   C2B15820  12.942   0.602   7.054 -0.0710  0.0064 -0.1277
 1106DPPI   C3B15821  13.028   0.698   7.398 -0.1941  0.2509  0.2974
 1106DPPI   C4B15822  13.140   0.761   7.815  0.1958  0.4768  0.0606
 1107DPPI    C115823  17.908  13.758   5.667  0.0898  0.1689  0.2182
 1107DPPI    C215824  17.904  14.039   5.383  0.1535  0.1760  0.2240
 1107DPPI    C315825  18.199  14.033   5.653  0.2587 -0.0128  0.1067
 1107DPPI   PO415826  17.622  13.767   5.816 -0.0973 -0.2361  0.0025
 1107DPPI   GL115827  17.717  13.718   6.205 -0.1566 -0.2787 -0.1834
 1107DPPI   GL215828  17.349  13.877   6.404  0.0112 -0.0309  0.0985
 1107DPPI   C1A15829  17.929  13.868   6.530 -0.1630  0.3331  0.0327
 1107DPPI   C2A15830  17.920  13.802   6.878  0.0069  0.0931 -0.0351
 1107DPPI   C3A15831  17.856  13.621   7.284 -0.2025 -0.1511 -0.0165
 1107DPPI   C4A15832  17.917  13.698   7.721 -0.3070  0.3121  0.0421
 1107DPPI   C1B15833  17.147  13.687   6.818 -0.0499  0.1882  0.0908
 1107DPPI   C2B15834  16.916  13.505   7.239 -0.2143 -0.0575  0.1215
 1107DPPI   C3B15835  16.784  13.718   7.721  0.0084 -0.1351 -0.0316
 1107DPPI   C4B15836  16.705  13.875   8.207 -0.1426 -0.4514 -0.0909
 1108DPPI    C115837   3.529  18.050   5.816 -0.1428  0.2146 -0.1201
 1108DPPI    C215838   3.744  17.872   6.102 -0.0211  0.2841 -0.1677
 1108DPPI    C315839   3.623  17.663   5.784 -0.0505  0.2373 -0.1259
 1108DPPI   PO415840   3.366  18.231   5.903 -0.1003  0.1341  0.1071
 1108DPPI   GL115841   3.488  18.387   6.213  0.0176 -0.2661 -0.0941
 1108DPPI   GL215842   3.796  18.413   6.234  0.1268 -0.0091  0.3135
 1108DPPI   C1A15843   3.555  18.045   6.520  0.1278  0.0638  0.0034
 1108DPPI   C2A15844   3.562  18.187   6.958 -0.1292 -0.1778  0.3713
 1108DPPI   C3A15845   3.469  18.053   7.387 -0.0666 -0.2555  0.0391
 1108DPPI   C4A15846   3.432  17.795   7.853  0.2768  0.0346 -0.0135
 1108DPPI   C1B15847   3.878  18.436   6.578 -0.2537  0.0032  0.2780
 1108DPPI   C2B15848   3.963  18.454   6.968 -0.0906 -0.2468  0.2787
 1108DPPI   C3B15849   3.862  18.385   7.421 -0.5391 -0.0107 -0.0723
 1108DPPI   C4B15850   3.754  18.187   7.752  0.3300  0.0834 -0.1813
 1109DPPI    C115851   7.498   3.589   5.926 -0.1205 -0.0577  0.1285
 1109DPPI    C215852   7.465   3.460   5.549  0.0499 -0.0806  0.1203
 1109DPPI    C315853   7.818   3.586   5.686 -0.0656  0.1671  0.1971
 1109DPPI   PO415854   7.353   3.458   6.082 -0.3284  0.1178 -0.2216
 1109DPPI   GL115855   7.323   3.397   6.542 -0.0394  0.1642  0.3990
 1109DPPI   GL215856   7.582   3.671   6.440 -0.2778 -0.0996 -0.0345
 1109DPPI   C1A15857   7.293   3.179   6.976  0.0618  0.2895 -0.2413
 1109DPPI   C2A15858   7.077   3.209   7.357 -0.0775 -0.0768  0.2873
 1109DPPI   C3A15859   6.997   3.134   7.834  0.1583  0.2541 -0.3836
 1109DPPI   C4A15860   6.911   3.501   8.144  0.1207  0.1124 -0.0567
 1109DPPI   C1B15861   7.560   3.796   6.851  0.0546 -0.1405 -0.4863
 1109DPPI   C2B15862   7.763   4.128   7.047 -0.0280 -0.0936 -0.0036
 1109DPPI   C3B15863   7.883   4.422   7.387 -0.1471 -0.0495 -0.2857
 1109DPPI   C4B15864   8.109   4.517   7.742 -0.2477 -0.1195 -0.1583
 1110DPPI    C115865   1.294   9.581   5.434 -0.0266 -0.1064 -0.0659
 1110DPPI    C215866   1.054   9.331   5.235  0.2210 -0.2030 -0.2487
 1110DPPI    C315867   1.180   9.668   5.060 -0.2374  0.1368  0.0518
 1110DPPI   PO415868   1.163   9.477   5.725 -0.1232 -0.2415 -0.2395
 1110DPPI   GL115869   1.322   9.340   6.209 -0.1000  0.0793 -0.2619
 1110DPPI   GL215870   1.131   9.178   6.416  0.0975 -0.0480 -0.1992
 1110DPPI   C1A15871   1.540   9.064   6.607  0.0318 -0.1849 -0.2635
 1110DPPI   C2A15872   1.521   9.208   7.013  0.0444  0.0497  0.3616
 1110DPPI   C3A15873   1.306   9.232   7.433 -0.1322  0.1544 -0.1785
 1110DPPI   C4A15874   1.387   9.055   7.814 -0.0095 -0.0699 -0.1480
 1110DPPI   C1B15875   1.051   9.389   6.770 -0.1464 -0.1085 -0.3113
 1110DPPI   C2B15876   1.001   9.544   7.205  0.2453 -0.2588  0.3462
 1110DPPI   C3B15877   0.996   9.659   7.524  0.2197 -0.0227 -0.0868
 1110DPPI   C4B15878   1.055   9.379   7.875  0.1983 -0.2161 -0.1355
 1111DPPI    C115879  17.110  17.050   5.764 -0.4202 -0.3438 -0.0432
 1111DPPI    C215880  16.950  17.386   5.617  0.1484 -0.0114  0.0667
 1111DPPI    C315881  17.156  17.142   5.377 -0.0312 -0.1436  0.0449
 1111DPPI   PO415882  17.309  17.105   5.948 -0.0389  0.4413 -0.0971
 1111DPPI   GL115883  17.515  17.402   6.351 -0.1095 -0.0819  0.3783
 1111DPPI   GL215884  17.335  17.551   6.123 -0.4135 -0.4894 -0.0558
 1111DPPI   C1A15885  17.507  17.172   6.760 -0.0217 -0.0735 -0.1794
 1111DPPI   C2A15886  17.405  17.054   7.144 -0.0486  0.1591  0.2262
 1111DPPI   C3A15887  16.979  17.071   7.152  0.3857 -0.2830  0.0492
 1111DPPI   C4A15888  16.631  17.171   7.313 -0.1466  0.0344 -0.1817
 1111DPPI   C1B15889  17.551  17.987   6.389 -0.0003  0.1624 -0.1226
 1111DPPI   C2B15890  17.428  18.223   6.718  0.0969 -0.0370 -0.0860
 1111DPPI   C3B15891  17.534  18.367   7.157 -0.0126  0.4360  0.1223
 1111DPPI   C4B15892  17.621  18.387   7.603  0.3521  0.1441 -0.0157
 1112DPPI    C115893   0.934  17.064   5.825 -0.1940 -0.0300  0.1070
 1112DPPI    C215894   0.590  16.890   5.715 -0.3086  0.1299  0.2077
 1112DPPI    C315895   0.717  17.220   5.527  0.1155 -0.2816 -0.2602
 1112DPPI   PO415896   0.846  17.054   6.126 -0.1081  0.0923 -0.1988
 1112DPPI   GL115897   0.589  17.089   6.437 -0.0757  0.0206  0.0585
 1112DPPI   GL215898   0.314  16.956   6.538 -0.3013  0.1983  0.2409
 1112DPPI   C1A15899   0.705  17.272   6.812 -0.1491  0.0287 -0.1005
 1112DPPI   C2A15900   0.745  17.467   7.165  0.0908 -0.1117  0.0275
 1112DPPI   C3A15901   0.843  17.632   7.481 -0.1722 -0.2489  0.1329
 1112DPPI   C4A15902   1.058  17.810   7.856 -0.0240 -0.1329 -0.0102
 1112DPPI   C1B15903   0.200  16.870   6.871  0.0077 -0.0037 -0.1381
 1112DPPI   C2B15904   0.127  16.845   7.277 -0.0250  0.3981 -0.0993
 1112DPPI   C3B15905   0.277  16.620   7.689 -0.0178 -0.1305 -0.4245
 1112DPPI   C4B15906   0.203  16.551   8.153  0.1587  0.0424 -0.4205
 1113DPPI    C115907   3.414   9.067   5.729  0.0838 -0.1698  0.0488
 1113DPPI    C215908   3.185   9.391   5.781  0.1651 -0.0769 -0.1611
 1113DPPI    C315909   3.136   9.161   5.458  0.0862 -0.2937  0.0028
 1113DPPI   PO415910   3.573   9.002   6.007  0.2692 -0.2833  0.1974
 1113DPPI   GL115911   3.788   9.205   6.297 -0.1895 -0.1238  0.2951
 1113DPPI   GL215912   4.040   8.968   6.460 -0.1145  0.1251 -0.0314
 1113DPPI   C1A15913   3.666   9.413   6.750 -0.2500  0.0250  0.2586
 1113DPPI   C2A15914   3.649   9.742   7.146 -0.1102 -0.0254 -0.0030
 1113DPPI   C3A15915   3.481   9.786   7.596  0.0863  0.3280  0.2384
 1113DPPI   C4A15916   3.310  10.139   7.773 -0.1588 -0.2691  0.3650
 1113DPPI   C1B15917   3.995   9.075   6.963  0.0043 -0.4136 -0.0209
 1113DPPI   C2B15918   3.747   9.178   7.238  0.0366 -0.4570  0.1752
 1113DPPI   C3B15919   3.723   9.359   7.622 -0.0637 -0.0016  0.1579
 1113DPPI   C4B15920   3.756   9.676   7.954 -0.2566 -0.0784  0.2404
 1114DPPI    C115921   6.207  13.671   5.661 -0.0295 -0.0026  0.0536
 1114DPPI    C215922   5.976  13.995   5.704  0.0229  0.0948 -0.3557
 1114DPPI    C315923   6.375  14.032   5.695  0.0343  0.0005 -0.2589
 1114DPPI   PO415924   6.085  13.516   5.866  0.1984 -0.0705  0.2424
 1114DPPI   GL115925   6.076  13.259   6.342  0.0942  0.0768 -0.1276
 1114DPPI   GL215926   6.284  13.480   6.459  0.0244 -0.1000  0.1032
 1114DPPI   C1A15927   6.011  13.318   6.779 -0.5153 -0.0354  0.1169
 1114DPPI   C2A15928   6.085  13.232   7.228 -0.1375 -0.0929 -0.1815
 1114DPPI   C3A15929   6.236  13.025   7.593 -0.0083 -0.0038 -0.5419
 1114DPPI   C4A15930   6.143  12.846   8.012  0.0566  0.0056  0.1187
 1114DPPI   C1B15931   6.361  12.984   6.701 -0.2233  0.3128 -0.4148
 1114DPPI   C2B15932   6.328  12.842   7.086 -0.3990  0.1889 -0.2989
 1114DPPI   C3B15933   6.619  12.758   7.164 -0.0605 -0.2648 -0.1233
 1114DPPI   C4B15934   6.883  12.998   6.992  0.2318  0.3748  0.2510
 1115DPPI    C115935   2.478  14.873   5.550  0.1083  0.4405 -0.4032
 1115DPPI    C215936   2.082  14.827   5.522  0.1038  0.1402  0.0346
 1115DPPI    C315937   2.325  14.619   5.282  0.0038  0.1321 -0.0606
 1115DPPI   PO415938   2.514  14.868   5.866  0.0658 -0.1434  0.1673
 1115DPPI   GL115939   2.482  15.139   6.278 -0.2147  0.0887  0.2932
 1115DPPI   GL215940   2.354  15.459   6.280 -0.4567  0.1390  0.0587
 1115DPPI   C1A15941   2.777  15.148   6.599  0.1155  0.2088  0.2496
 1115DPPI   C2A15942   2.952  15.048   7.025 -0.2836 -0.2045 -0.1831
 1115DPPI   C3A15943   2.868  15.061   7.396 -0.1456 -0.2640  0.0010
 1115DPPI   C4A15944   2.956  14.890   7.768 -0.1559  0.0557  0.0879
 1115DPPI   C1B15945   2.436  15.502   6.747  0.5921 -0.2237 -0.0241
 1115DPPI   C2B15946   2.607  15.381   7.180 -0.0608 -0.0581  0.1448
 1115DPPI   C3B15947   2.652  15.468   7.592 -0.2517 -0.1109  0.0383
 1115DPPI   C4B15948   2.644  15.592   8.034 -0.3510 -0.2377 -0.0371
 1116DPPI    C115949  13.734   0.195   5.537  0.1194 -0.1722  0.0252
 1116DPPI    C215950  13.648   0.159   5.148 -0.1361  0.2930  0.0305
 1116DPPI    C315951  13.976   0.358   5.263 -0.1631  0.3226  0.0567
 1116DPPI   PO415952  13.707   0.014   5.630  0.1520  0.0966  0.1303
 1116DPPI   GL115953  13.598  -0.022   6.067 -0.3729  0.2542 -0.1699
 1116DPPI   GL215954  13.756   0.218   6.134  0.3318 -0.0530  0.0869
 1116DPPI   C1A15955  13.518  -0.053   6.551  0.2489  0.0819  0.1129
 1116DPPI   C2A15956  13.686  -0.411   6.850  0.1031 -0.0560  0.2021
 1116DPPI   C3A15957  13.757  -0.413   7.203  0.2378 -0.1218  0.0877
 1116DPPI   C4A15958  13.724  -0.524   7.643 -0.1024 -0.0639 -0.0815
 1116DPPI   C1B15959  13.885   0.220   6.446  0.0537  0.2181 -0.1181
 1116DPPI   C2B15960  13.817   0.144   6.881  0.1077 -0.1795 -0.1996
 1116DPPI   C3B15961  13.886   0.045   7.316  0.0908 -0.0497 -0.0873
 1116DPPI   C4B15962  14.120  -0.131   7.718 -0.0838 -0.0051  0.0866
 1117DPPI    C115963   7.051  12.118   5.506  0.1292 -0.1655  0.2017
 1117DPPI    C215964   6.956  11.730   5.499  0.2319 -0.1891  0.0328
 1117DPPI    C315965   6.722  11.996   5.313  0.2293 -0.1853  0.0414
 1117DPPI   PO415966   7.122  12.079   5.822  0.2388 -0.1719 -0.0928
 1117DPPI   GL115967   7.130  12.331   6.220 -0.0036 -0.1035 -0.0552
 1117DPPI   GL215968   7.350  12.460   6.339 -0.0753  0.1082 -0.2606
 1117DPPI   C1A15969   7.227  12.021   6.581 -0.1325 -0.2658  0.3605
 1117DPPI   C2A15970   7.153  12.015   6.979 -0.0182  0.0574 -0.0944
 1117DPPI   C3A15971   7.318  12.128   7.379  0.0398 -0.2053 -0.0180
 1117DPPI   C4A15972   7.551  12.136   7.742  0.2751 -0.5250  0.0803
 1117DPPI   C1B15973   7.396  12.450   6.808 -0.0700  0.0495  0.0499
 1117DPPI   C2B15974   7.171  12.562   7.218 -0.1941 -0.0355 -0.0729
 1117DPPI   C3B15975   7.232  12.698   7.634  0.0378  0.2193 -0.5432
 1117DPPI   C4B15976   7.183  13.031   7.969 -0.0185  0.1795  0.0975
 1118DPPI    C115977  10.253  13.273   6.088  0.0300 -0.0916  0.2389
 1118DPPI    C215978  10.497  13.014   5.906  0.1343  0.2241 -0.0834
 1118DPPI    C315979  10.102  12.951   5.906  0.1533  0.0986 -0.2145
 1118DPPI   PO415980  10.485  13.489   5.977 -0.1055  0.0537 -0.1633
 1118DPPI   GL115981  10.575  13.590   6.306  0.1250 -0.3745 -0.0145
 1118DPPI   GL215982  10.899  13.512   6.445 -0.0338 -0.1144  0.2304
 1118DPPI   C1A15983  10.230  13.319   6.544 -0.0098 -0.2130 -0.0052
 1118DPPI   C2A15984   9.823  13.558   6.640  0.1324 -0.0287  0.0025
 1118DPPI   C3A15985   9.814  14.038   6.675  0.1263  0.1903 -0.0351
 1118DPPI   C4A15986   9.447  14.282   6.731 -0.0685 -0.3595 -0.3171
 1118DPPI   C1B15987  10.692  13.418   6.829  0.0585  0.1895  0.1270
 1118DPPI   C2B15988  10.689  13.398   7.338  0.2728 -0.1887  0.1735
 1118DPPI   C3B15989  10.745  13.378   7.770  0.0854  0.2944 -0.2200
 1118DPPI   C4B15990  10.833  13.234   8.228  0.0584  0.2876  0.2307
 1119DPPI    C115991   4.137   0.676   5.444 -0.0474  0.1351  0.1927
 1119DPPI    C215992   4.322   0.326   5.386 -0.1343  0.1082  0.0729
 1119DPPI    C315993   4.218   0.552   5.073  0.3208  0.4550  0.1613
 1119DPPI   PO415994   4.072   0.787   5.755  0.1597  0.2029  0.3391
 1119DPPI   GL115995   3.888   0.812   6.140  0.2659  0.2591 -0.0871
 1119DPPI   GL215996   4.173   0.759   6.245  0.0974  0.1735  0.0241
 1119DPPI   C1A15997   3.818   0.809   6.632 -0.0994 -0.1926 -0.4577
 1119DPPI   C2A15998   3.823   0.881   7.096  0.1536  0.1233  0.3413
 1119DPPI   C3A15999   3.966   0.766   7.492  0.1072  0.0307  0.1742
 1119DPPI   C4A16000   4.054   0.646   7.915 -0.1192  0.2037 -0.2359
 1119DPPI   C1B16001   4.362   0.857   6.664  0.3715 -0.0819  0.0296
 1119DPPI   C2B16002   4.293   0.788   7.114  0.1499 -0.3863  0.0601
 1119DPPI   C3B16003   4.616   0.938   7.408  0.1078 -0.0168  0.4384
 1119DPPI   C4B16004   4.997   0.908   7.427 -0.0935 -0.0492  0.2901
 1120DPPI    C116005  13.080   1.120   5.612 -0.0748  0.0386 -0.2232
 1120DPPI    C216006  13.409   1.314   5.491  0.0784  0.2135  0.4344
 1120DPPI    C316007  13.047   1.464   5.411  0.1645  0.2285  0.0546
 1120DPPI   PO416008  13.129   1.103   5.947  0.2617 -0.2519  0.1056
 1120DPPI   GL116009  13.316   1.321   6.355 -0.0371  0.2266  0.0074
 1120DPPI   GL216010  12.986   1.485   6.306 -0.0560  0.1743 -0.0180
 1120DPPI   C1A16011  13.243   1.167   6.662 -0.0322  0.1365  0.0618
 1120DPPI   C2A16012  13.383   0.800   6.945  0.1126 -0.0080  0.3541
 1120DPPI   C3A16013  13.531   0.889   7.435  0.1216  0.0422  0.2513
 1120DPPI   C4A16014  13.685   0.836   7.831 -0.1014 -0.1769  0.2335
 1120DPPI   C1B16015  12.997   1.597   6.813 -0.1351 -0.4006  0.3082
 1120DPPI   C2B16016  12.858   1.823   7.168 -0.1250 -0.4262  0.0533
 1120DPPI   C3B16017  12.690   2.062   7.340  0.0147  0.0897  0.2522
 1120DPPI   C4B16018  12.636   2.397   7.695  0.0659  0.0253  0.0032
 1121DPPI    C116019   7.029  13.203   5.847 -0.1279  0.1501 -0.0644
 1121DPPI    C216020   7.360  13.113   5.641 -0.1199  0.0440 -0.0060
 1121DPPI    C316021   7.002  12.999   5.504 -0.1169 -0.0025  0.0245
 1121DPPI   PO416022   7.037  13.502   5.919 -0.1300  0.0017 -0.3284
 1121DPPI   GL116023   7.312  13.886   6.109  0.0148 -0.2272  0.0655
 1121DPPI   GL216024   7.588  13.944   6.177  0.0029 -0.0719  0.0313
 1121DPPI   C1A16025   7.157  13.642   6.504 -0.0413 -0.0973  0.1504
 1121DPPI   C2A16026   6.917  13.692   6.777  0.2089  0.2951 -0.4144
 1121DPPI   C3A16027   6.796  13.759   7.202 -0.0297  0.0483 -0.3399
 1121DPPI   C4A16028   6.650  13.810   7.646 -0.2692  0.1197  0.0368
 1121DPPI   C1B16029   7.678  13.725   6.516  0.2083  0.0113  0.2999
 1121DPPI   C2B16030   7.487  13.664   6.896 -0.3027 -0.1120 -0.0164
 1121DPPI   C3B16031   7.236  13.453   7.224  0.1199  0.1512 -0.3325
 1121DPPI   C4B16032   7.111  13.284   7.548  0.2950 -0.1298  0.0749
 1122DPPI    C116033  16.661  16.198   5.640 -0.0463  0.0728  0.1596
 1122DPPI    C216034  16.929  16.052   5.381 -0.0130  0.2786  0.0765
 1122DPPI    C316035  16.563  16.155   5.255 -0.1012  0.0873  0.1718
 1122DPPI   PO416036  16.854  16.238   5.894 -0.0360  0.1159 -0.2259
 1122DPPI   GL116037  16.726  16.351   6.273  0.3655  0.0024 -0.2945
 1122DPPI   GL216038  17.015  16.225   6.409  0.3030  0.0403  0.0902
 1122DPPI   C1A16039  16.514  16.601   6.541  0.1929  0.0758  0.2391
 1122DPPI   C2A16040  16.816  16.908   6.735 -0.2145 -0.0602  0.1979
 1122DPPI   C3A16041  17.069  17.284   6.522 -0.1631 -0.0606 -0.0836
 1122DPPI   C4A16042  17.101  17.764   6.565 -0.1078 -0.0188  0.1515
 1122DPPI   C1B16043  16.795  16.236   6.757  0.1244  0.1007 -0.0557
 1122DPPI   C2B16044  16.859  15.977   7.030  0.0864  0.0713 -0.2284
 1122DPPI   C3B16045  17.051  16.088   7.410 -0.0669 -0.1381  0.4595
 1122DPPI   C4B16046  17.461  16.122   7.431 -0.1479 -0.1057 -0.1650
 1123DPPI    C116047  13.069   4.821   5.646 -0.0978  0.1175 -0.0767
 1123DPPI    C216048  12.721   4.765   5.457 -0.1270  0.2061 -0.0492
 1123DPPI    C316049  12.988   5.026   5.313  0.0217 -0.0220 -0.1932
 1123DPPI   PO416050  13.025   4.742   5.861  0.4378 -0.0218 -0.0390
 1123DPPI   GL116051  13.227   4.770   6.239 -0.0569 -0.0125  0.1655
 1123DPPI   GL216052  13.573   4.799   6.336  0.1537  0.0318 -0.3431
 1123DPPI   C1A16053  13.114   4.765   6.696 -0.0254  0.0441  0.1006
 1123DPPI   C2A16054  13.032   4.847   7.071  0.1087  0.1668 -0.0465
 1123DPPI   C3A16055  13.167   5.226   7.226 -0.1746  0.1014 -0.0242
 1123DPPI   C4A16056  13.210   5.426   7.680 -0.2306  0.1343  0.1229
 1123DPPI   C1B16057  13.560   4.501   6.713  0.0322 -0.1440  0.0476
 1123DPPI   C2B16058  13.306   4.421   7.035  0.0123  0.1671  0.0236
 1123DPPI   C3B16059  13.323   4.387   7.429 -0.1670  0.0363  0.0630
 1123DPPI   C4B16060  13.036   4.174   7.597  0.0829  0.0211 -0.1848
 1124DPPI    C116061  14.954   2.155   5.195 -0.1134  0.0995 -0.1460
 1124DPPI    C216062  14.558   2.210   5.190 -0.1310 -0.0145 -0.0500
 1124DPPI    C316063  14.793   2.424   4.947 -0.2421  0.1222 -0.0387
 1124DPPI   PO416064  15.100   2.214   5.478 -0.4415 -0.0670  0.0620
 1124DPPI   GL116065  14.954   2.183   5.884  0.0734  0.0203  0.0351
 1124DPPI   GL216066  14.818   2.029   6.066 -0.1799 -0.0911 -0.3808
 1124DPPI   C1A16067  15.311   2.123   6.192 -0.1086 -0.0599  0.0958
 1124DPPI   C2A16068  15.570   1.884   6.462 -0.1420  0.0843  0.1508
 1124DPPI   C3A16069  15.605   1.856   6.921  0.2046 -0.2581 -0.3117
 1124DPPI   C4A16070  15.485   1.859   7.321 -0.1994  0.0500  0.0827
 1124DPPI   C1B16071  14.985   1.776   6.412  0.0424  0.0735  0.0237
 1124DPPI   C2B16072  15.103   1.882   6.785 -0.1273 -0.3359  0.0584
 1124DPPI   C3B16073  15.079   2.195   7.073 -0.2475 -0.1076  0.3679
 1124DPPI   C4B16074  14.885   2.248   7.494  0.0655 -0.0050 -0.1933
 1125DPPI    C116075   2.611   0.497   5.755  0.0283 -0.0484  0.1207
 1125DPPI    C216076   2.536   0.764   5.466  0.1151  0.0318  0.1717
 1125DPPI    C316077   2.845   0.512   5.431  0.0953  0.0075  0.1713
 1125DPPI   PO416078   2.620   0.662   5.938  0.1205  0.4745 -0.0314
 1125DPPI   GL116079   2.807   0.694   6.299  0.3115  0.1359  0.2322
 1125DPPI   GL216080   2.992   0.429   6.223  0.0785  0.2338 -0.1591
 1125DPPI   C1A16081   2.874   0.677   6.830  0.2654  0.0450  0.0972
 1125DPPI   C2A16082   2.760   0.641   7.239 -0.0336  0.2368  0.0119
 1125DPPI   C3A16083   2.888   0.780   7.529 -0.0284  0.3365  0.0080
 1125DPPI   C4A16084   3.029   0.814   7.900 -0.0640  0.2285  0.0135
 1125DPPI   C1B16085   3.137   0.307   6.614  0.2492 -0.0547  0.0771
 1125DPPI   C2B16086   3.045   0.218   7.020  0.0294  0.1662  0.0969
 1125DPPI   C3B16087   3.059   0.317   7.463 -0.0695  0.0958  0.0529
 1125DPPI   C4B16088   2.751   0.350   7.797 -0.1214 -0.1545 -0.2777
 1126DPPI    C116089   0.692   8.733   5.833 -0.0311  0.2172 -0.2759
 1126DPPI    C216090   0.773   8.992   6.127 -0.2026  0.0058 -0.0382
 1126DPPI    C316091   1.041   8.929   5.837  0.1961 -0.1668  0.3541
 1126DPPI   PO416092   0.520   8.496   6.163 -0.2485 -0.1904 -0.1077
 1126DPPI   GL116093   0.593   8.383   6.539  0.1388  0.3859  0.4087
 1126DPPI   GL216094   0.860   8.248   6.676  0.1210 -0.2240  0.0481
 1126DPPI   C1A16095   0.431   8.582   6.817 -0.0341  0.1244 -0.1513
 1126DPPI   C2A16096   0.405   8.571   7.226 -0.2119 -0.3217 -0.1037
 1126DPPI   C3A16097   0.393   8.458   7.699  0.1158 -0.2303 -0.1545
 1126DPPI   C4A16098   0.437   8.587   8.042 -0.2127 -0.1447 -0.1117
 1126DPPI   C1B16099   0.892   8.424   7.110 -0.0392  0.1064 -0.1501
 1126DPPI   C2B16100   0.958   8.441   7.550  0.0494  0.0021 -0.1026
 1126DPPI   C3B16101   0.919   8.385   7.895  0.0468 -0.1394 -0.1727
 1126DPPI   C4B16102   0.885   8.530   8.298 -0.0367  0.1873  0.1224
 1127DPPI    C116103  15.710  12.283   5.593  0.2563 -0.2368  0.0568
 1127DPPI    C216104  15.587  12.577   5.351  0.0945 -0.1401  0.2538
 1127DPPI    C316105  15.432  12.211   5.314  0.1061 -0.1377  0.1793
 1127DPPI   PO416106  15.811  12.387   5.854 -0.0278  0.0668 -0.0745
 1127DPPI   GL116107  15.550  12.389   6.178 -0.1429 -0.2193 -0.0674
 1127DPPI   GL216108  15.133  12.187   6.143 -0.0954 -0.0141  0.0171
 1127DPPI   C1A16109  15.460  12.358   6.587 -0.2480 -0.1649  0.0864
 1127DPPI   C2A16110  15.338  12.388   6.984  0.1397  0.2246 -0.1258
 1127DPPI   C3A16111  15.302  12.281   7.379 -0.0867 -0.1406 -0.0337
 1127DPPI   C4A16112  15.009  12.421   7.637 -0.1595  0.1941 -0.0844
 1127DPPI   C1B16113  14.958  12.257   6.530  0.1548  0.1664 -0.0299
 1127DPPI   C2B16114  14.737  12.266   6.889  0.2960 -0.2027  0.1157
 1127DPPI   C3B16115  14.637  12.352   7.362 -0.4724 -0.2231  0.1978
 1127DPPI   C4B16116  14.561  12.209   7.813 -0.3252  0.1896  0.2094
 1128DPPI    C116117   6.778  16.733   5.999 -0.5349 -0.1407 -0.1074
 1128DPPI    C216118   6.820  16.415   5.760 -0.0607 -0.0639 -0.1370
 1128DPPI    C316119   7.006  16.757   5.671 -0.0127  0.0169  0.2539
 1128DPPI   PO416120   6.898  16.737   6.252  0.1891 -0.1590 -0.1680
 1128DPPI   GL116121   6.982  16.334   6.557  0.0988 -0.0984 -0.0265
 1128DPPI   GL216122   6.992  16.575   6.728  0.0931 -0.1856 -0.4604
 1128DPPI   C1A16123   6.935  16.117   6.950 -0.0613  0.1171 -0.0294
 1128DPPI   C2A16124   6.843  16.182   7.338 -0.3562 -0.2729  0.1276
 1128DPPI   C3A16125   6.769  16.220   7.843 -0.1835 -0.1574  0.0441
 1128DPPI   C4A16126   6.670  16.438   8.158 -0.2354  0.2446  0.4726
 1128DPPI   C1B16127   7.114  16.567   7.177 -0.0203  0.2636  0.0448
 1128DPPI   C2B16128   7.083  16.625   7.628  0.0395  0.1306 -0.2423
 1128DPPI   C3B16129   7.094  16.772   8.075 -0.2318 -0.2514  0.0126
 1128DPPI   C4B16130   7.219  16.886   8.619 -0.0509  0.2559 -0.2880
 1129DPPI    C116131  12.934  11.078   5.765  0.0503  0.0566 -0.2282
 1129DPPI    C216132  12.563  11.000   5.639  0.0883 -0.0786 -0.2575
 1129DPPI    C316133  12.853  10.729   5.587  0.1375 -0.0740 -0.0156
 1129DPPI   PO416134  12.911  11.161   5.988  0.0730  0.1064 -0.0082
 1129DPPI   GL116135  12.842  11.089   6.447 -0.0143 -0.2382  0.2592
 1129DPPI   GL216136  13.115  10.924   6.375 -0.1342  0.1659 -0.1463
 1129DPPI   C1A16137  12.817  10.878   6.775 -0.0011  0.1810 -0.6069
 1129DPPI   C2A16138  12.807  10.872   7.271  0.2885 -0.0862 -0.0134
 1129DPPI   C3A16139  12.737  10.916   7.652  0.1342 -0.3023 -0.0119
 1129DPPI   C4A16140  13.047  10.976   7.976 -0.2795 -0.0119  0.2521
 1129DPPI   C1B16141  13.267  10.990   6.627  0.2490  0.0784  0.0574
 1129DPPI   C2B16142  13.266  11.069   7.093 -0.2177  0.2768  0.3539
 1129DPPI   C3B16143  13.195  11.139   7.492  0.3068  0.1547 -0.0535
 1129DPPI   C4B16144  12.991  11.461   7.687  0.1179  0.1068 -0.0373
 1130DPPI    C116145   0.183   0.630   5.221  0.0769  0.0654 -0.1591
 1130DPPI    C216146  -0.074   0.327   5.271 -0.0435  0.1978  0.0442
 1130DPPI    C316147  -0.093   0.554   4.942 -0.2016  0.2199  0.0679
 1130DPPI   PO416148   0.155   0.759   5.510 -0.2739 -0.2371  0.0219
 1130DPPI   GL116149   0.302   0.998   5.793  0.0302 -0.1528 -0.2718
 1130DPPI   GL216150   0.486   1.205   5.748  0.2020 -0.2553 -0.1108
 1130DPPI   C1A16151   0.320   0.891   6.208  0.1833  0.0100  0.3349
 1130DPPI   C2A16152   0.447   0.920   6.614  0.1037  0.2023  0.1155
 1130DPPI   C3A16153   0.412   0.842   7.028  0.3214 -0.0537  0.1536
 1130DPPI   C4A16154   0.307   0.967   7.410  0.2276 -0.1282 -0.0649
 1130DPPI   C1B16155   0.425   1.350   6.095 -0.1121 -0.4084  0.4244
 1130DPPI   C2B16156   0.260   1.461   6.512 -0.0002  0.3106  0.2796
 1130DPPI   C3B16157   0.218   1.679   6.972 -0.0315 -0.0097 -0.0811
 1130DPPI   C4B16158  -0.071   1.682   7.263 -0.1063 -0.1915 -0.1243
 1131DPPI    C116159   5.627  16.593   5.804 -0.0873  0.2254 -0.1578
 1131DPPI    C216160   5.402  16.279   5.700  0.1598  0.0219 -0.0897
 1131DPPI    C316161   5.623  16.467   5.424  0.1562  0.0192 -0.0945
 1131DPPI   PO416162   5.745  16.543   6.013  0.1423 -0.0986  0.1175
 1131DPPI   GL116163   5.708  16.517   6.469  0.1991 -0.1293  0.5778
 1131DPPI   GL216164   5.911  16.725   6.483  0.0628  0.0928 -0.0585
 1131DPPI   C1A16165   5.885  16.216   6.797 -0.1148 -0.1533  0.0233
 1131DPPI   C2A16166   5.819  15.999   7.247 -0.1999  0.1055  0.4678
 1131DPPI   C3A16167   5.822  15.937   7.692  0.1177 -0.1784  0.0098
 1131DPPI   C4A16168   5.574  16.045   8.079  0.1686  0.0673  0.0505
 1131DPPI   C1B16169   5.613  16.772   6.863 -0.1374  0.2302  0.1780
 1131DPPI   C2B16170   5.618  16.812   7.260  0.0735  0.0244 -0.2128
 1131DPPI   C3B16171   5.607  16.830   7.673  0.1164 -0.0851 -0.4541
 1131DPPI   C4B16172   5.571  16.642   8.060 -0.3910  0.0789 -0.2351
 1132DPPI    C116173   7.911   6.025   5.032  0.1077 -0.0354 -0.1548
 1132DPPI    C216174   8.098   5.972   4.683  0.0101  0.0073 -0.2139
 1132DPPI    C316175   8.032   5.659   4.923 -0.2114 -0.0776 -0.3818
 1132DPPI   PO416176   8.048   6.307   5.139 -0.0621  0.1254  0.2218
 1132DPPI   GL116177   8.211   6.390   5.554  0.1916  0.1309  0.0947
 1132DPPI   GL216178   8.501   6.364   5.402  0.2407 -0.4460 -0.3132
 1132DPPI   C1A16179   8.194   6.316   6.089  0.1056  0.1561  0.1771
 1132DPPI   C2A16180   8.229   6.216   6.552 -0.0759 -0.0232 -0.1141
 1132DPPI   C3A16181   8.429   6.287   6.918  0.0802  0.2954  0.3611
 1132DPPI   C4A16182   8.386   6.079   7.283 -0.1024  0.0987 -0.0000
 1132DPPI   C1B16183   8.602   6.406   5.862  0.0110 -0.1085  0.1878
 1132DPPI   C2B16184   8.675   6.304   6.359 -0.0751  0.2495  0.1590
 1132DPPI   C3B16185   8.867   6.286   6.714  0.1477 -0.0935  0.0743
 1132DPPI   C4B16186   8.886   6.268   7.095 -0.1455 -0.0903  0.1439
 1133DPPI    C116187  17.799   1.659   5.093  0.1873  0.0816 -0.0965
 1133DPPI    C216188  17.887   2.047   5.058  0.3476  0.0324 -0.2561
 1133DPPI    C316189  17.534   1.910   4.930  0.1289  0.1893  0.1594
 1133DPPI   PO416190  17.869   1.558   5.386 -0.0015  0.0858  0.2360
 1133DPPI   GL116191  18.129   1.644   5.572  0.1136  0.2953  0.1242
 1133DPPI   GL216192  18.144   1.494   5.817  0.0126 -0.1809 -0.2684
 1133DPPI   C1A16193  17.841   1.898   5.954 -0.2110 -0.3176  0.2178
 1133DPPI   C2A16194  17.608   2.034   6.310 -0.2399  0.0955  0.1261
 1133DPPI   C3A16195  17.580   1.987   6.643  0.1911  0.0740 -0.1596
 1133DPPI   C4A16196  17.445   1.900   7.047  0.1928  0.1320 -0.1785
 1133DPPI   C1B16197  17.980   1.525   6.223 -0.2882  0.0287  0.2838
 1133DPPI   C2B16198  17.826   1.511   6.614  0.0411 -0.0630 -0.1309
 1133DPPI   C3B16199  17.687   1.465   6.940 -0.2983 -0.1049 -0.1318
 1133DPPI   C4B16200  17.604   1.541   7.385  0.0557 -0.0282 -0.2821
 1134DPPI    C116201  16.104   7.032   5.813 -0.2608 -0.1808 -0.1708
 1134DPPI    C216202  16.195   7.065   5.425  0.0151  0.3221 -0.0722
 1134DPPI    C316203  15.832   7.170   5.555  0.0260  0.4599 -0.1513
 1134DPPI   PO416204  16.279   7.224   5.969 -0.2292  0.3074  0.2977
 1134DPPI   GL116205  16.433   7.096   6.325  0.0173 -0.0907 -0.3005
 1134DPPI   GL216206  16.378   7.380   6.518  0.0005 -0.2462 -0.3687
 1134DPPI   C1A16207  16.125   6.952   6.704  0.2894  0.4070 -0.2820
 1134DPPI   C2A16208  16.068   6.842   7.110  0.1442 -0.0851 -0.1652
 1134DPPI   C3A16209  16.100   6.719   7.607  0.2282  0.1376 -0.0341
 1134DPPI   C4A16210  16.235   6.416   7.987 -0.0068  0.2734 -0.1652
 1134DPPI   C1B16211  16.253   7.330   6.920  0.0864 -0.0754  0.1309
 1134DPPI   C2B16212  16.065   7.354   7.299  0.0510 -0.0014 -0.0852
 1134DPPI   C3B16213  15.777   7.419   7.602 -0.0690  0.0865  0.2417
 1134DPPI   C4B16214  15.767   7.424   7.977 -0.0333 -0.3352 -0.1768
 1135DPPI    C116215  13.394  17.653   5.712 -0.0774 -0.1757  0.2295
 1135DPPI    C216216  13.084  17.749   5.946 -0.2145  0.1100 -0.0608
 1135DPPI    C316217  13.258  18.029   5.720  0.0086 -0.1304 -0.1927
 1135DPPI   PO416218  13.624  17.579   5.927  0.1870  0.1457 -0.0413
 1135DPPI   GL116219  13.319  17.586   6.320 -0.1020 -0.1712  0.0088
 1135DPPI   GL216220  13.373  17.255   6.352 -0.0772 -0.0609 -0.0836
 1135DPPI   C1A16221  13.179  17.656   6.695  0.0304 -0.0363 -0.1513
 1135DPPI   C2A16222  13.253  17.553   7.143  0.0133  0.1531  0.1115
 1135DPPI   C3A16223  13.366  17.303   7.485  0.0524 -0.2656  0.3469
 1135DPPI   C4A16224  13.124  17.234   7.873 -0.3631  0.1632  0.0304
 1135DPPI   C1B16225  13.494  17.210   6.726  0.3512  0.1160 -0.2275
 1135DPPI   C2B16226  13.699  17.163   7.061  0.0703  0.3209  0.0235
 1135DPPI   C3B16227  13.851  16.888   7.370  0.1105  0.2110  0.0624
 1135DPPI   C4B16228  13.914  17.018   7.796 -0.0932  0.0570 -0.1166
 1136DPPI    C116229   7.889   5.737   5.435  0.1652 -0.1956  0.2678
 1136DPPI    C216230   8.039   5.889   5.773  0.4324 -0.0772  0.0994
 1136DPPI    C316231   8.249   5.911   5.434  0.0615  0.0282 -0.1286
 1136DPPI   PO416232   7.598   5.646   5.463  0.1559 -0.3269 -0.1198
 1136DPPI   GL116233   7.561   5.514   5.853  0.1655  0.0594 -0.0009
 1136DPPI   GL216234   7.539   5.320   6.027 -0.1335 -0.1697  0.1163
 1136DPPI   C1A16235   7.621   5.894   6.077 -0.0552  0.2526  0.1011
 1136DPPI   C2A16236   7.738   6.023   6.529 -0.0352  0.0694 -0.1740
 1136DPPI   C3A16237   7.857   6.153   6.951 -0.0553 -0.1753 -0.0595
 1136DPPI   C4A16238   7.884   6.282   7.343 -0.2363  0.1177  0.1772
 1136DPPI   C1B16239   7.667   5.439   6.458  0.2004  0.0229  0.0903
 1136DPPI   C2B16240   7.730   5.559   6.867  0.1508 -0.1886  0.3805
 1136DPPI   C3B16241   7.682   5.499   7.176  0.1079  0.1327 -0.3120
 1136DPPI   C4B16242   7.625   5.302   7.516  0.0789  0.1880  0.0344
 1137DPPI    C116243  16.547  11.956   5.902 -0.1602 -0.0137  0.2425
 1137DPPI    C216244  16.339  12.290   5.973  0.0070  0.1451  0.0020
 1137DPPI    C316245  16.738  12.297   5.989  0.0093 -0.0626  0.0684
 1137DPPI   PO416246  16.412  11.809   6.075  0.1686  0.0149  0.2133
 1137DPPI   GL116247  16.417  11.978   6.486  0.0446 -0.0536 -0.0070
 1137DPPI   GL216248  16.520  12.228   6.451 -0.2214 -0.2876  0.0639
 1137DPPI   C1A16249  16.056  11.886   6.755  0.3258 -0.2800  0.0479
 1137DPPI   C2A16250  16.018  11.936   7.170  0.0127  0.1800  0.0619
 1137DPPI   C3A16251  16.179  11.934   7.487  0.3764 -0.0777  0.1487
 1137DPPI   C4A16252  16.472  11.862   7.808 -0.0133  0.2417 -0.0196
 1137DPPI   C1B16253  16.444  12.242   6.873 -0.2354 -0.2851  0.0617
 1137DPPI   C2B16254  16.471  12.202   7.244 -0.1329 -0.2046 -0.2561
 1137DPPI   C3B16255  16.307  12.370   7.686  0.1301  0.0280 -0.0078
 1137DPPI   C4B16256  16.023  12.592   7.983  0.1497  0.1413  0.1987
 1138DPPI    C116257   6.606   3.038   5.776 -0.0656 -0.1937  0.0936
 1138DPPI    C216258   6.219   2.986   5.690  0.0126 -0.1640 -0.2962
 1138DPPI    C316259   6.493   2.744   5.529  0.1444 -0.3094  0.1331
 1138DPPI   PO416260   6.662   2.938   6.011 -0.1216 -0.1799 -0.1413
 1138DPPI   GL116261   6.616   3.010   6.489  0.1729 -0.0620 -0.0233
 1138DPPI   GL216262   6.884   3.193   6.396  0.2810  0.0137  0.0567
 1138DPPI   C1A16263   6.489   3.088   6.928  0.2487 -0.0018  0.0401
 1138DPPI   C2A16264   6.621   3.016   7.324 -0.0099 -0.1389  0.0871
 1138DPPI   C3A16265   6.549   3.339   7.658  0.1497  0.1539  0.0335
 1138DPPI   C4A16266   6.019   3.341   7.781 -0.2057  0.0729 -0.0759
 1138DPPI   C1B16267   6.818   3.439   6.805  0.1854  0.0732 -0.2602
 1138DPPI   C2B16268   7.095   3.619   7.018  0.0001 -0.0930  0.0687
 1138DPPI   C3B16269   7.385   3.732   7.307 -0.2709 -0.0669  0.1738
 1138DPPI   C4B16270   7.413   4.120   7.511  0.5220  0.0482  0.0210
 1139DPPI    C116271   1.716   5.307   5.778  0.0398  0.0400  0.1257
 1139DPPI    C216272   1.558   5.460   5.444  0.1130 -0.2058 -0.0242
 1139DPPI    C316273   1.793   5.686   5.676 -0.1835  0.0598  0.0244
 1139DPPI   PO416274   1.461   5.171   5.945 -0.0969  0.0164 -0.0183
 1139DPPI   GL116275   1.533   5.229   6.303  0.1212  0.3342  0.0065
 1139DPPI   GL216276   1.663   4.868   6.347  0.1162  0.2939 -0.1293
 1139DPPI   C1A16277   1.366   5.262   6.707 -0.1369 -0.1618 -0.1210
 1139DPPI   C2A16278   1.268   5.350   7.039 -0.1168 -0.2017  0.2039
 1139DPPI   C3A16279   1.441   5.175   7.345  0.2165  0.1045 -0.0947
 1139DPPI   C4A16280   1.491   4.949   7.636 -0.0829  0.3911  0.2558
 1139DPPI   C1B16281   1.671   4.692   6.755  0.0735  0.1618 -0.1104
 1139DPPI   C2B16282   1.647   4.758   7.192  0.0991 -0.2588 -0.0412
 1139DPPI   C3B16283   1.729   4.520   7.572 -0.0459  0.4184  0.3641
 1139DPPI   C4B16284   1.645   4.368   8.028 -0.0391 -0.2113  0.1676
 1140DPPI    C116285   6.772  15.766   5.730  0.0097 -0.0171 -0.0510
 1140DPPI    C216286   6.470  16.025   5.775  0.1681  0.1908 -0.1681
 1140DPPI    C316287   6.691  16.031   5.441  0.2270 -0.0406 -0.1351
 1140DPPI   PO416288   6.834  15.788   6.036  0.2118  0.1928 -0.0379
 1140DPPI   GL116289   6.653  15.651   6.387 -0.1271  0.3808  0.3132
 1140DPPI   GL216290   6.607  15.973   6.573  0.2276  0.0960  0.0725
 1140DPPI   C1A16291   6.830  15.621   6.842 -0.0792 -0.0996  0.3054
 1140DPPI   C2A16292   6.818  15.606   7.231  0.0043 -0.0435 -0.3769
 1140DPPI   C3A16293   7.030  15.801   7.669 -0.0577 -0.0615 -0.0055
 1140DPPI   C4A16294   7.391  15.625   7.951 -0.2015  0.1595 -0.0042
 1140DPPI   C1B16295   6.415  16.028   6.998  0.2797  0.2014 -0.0746
 1140DPPI   C2B16296   6.311  16.143   7.373  0.2066  0.2601  0.0881
 1140DPPI   C3B16297   6.264  16.162   7.882  0.3386 -0.1497  0.2130
 1140DPPI   C4B16298   6.132  15.835   8.141 -0.0188  0.0318  0.1909
 1141DPPI    C116299  17.248   2.315   5.562 -0.3838 -0.1257  0.0317
 1141DPPI    C216300  17.079   2.128   5.252 -0.1220 -0.0367 -0.1691
 1141DPPI    C316301  17.417   2.334   5.200  0.2044 -0.4379  0.2762
 1141DPPI   PO416302  17.217   2.077   5.744 -0.1387  0.0178  0.0203
 1141DPPI   GL116303  17.023   1.873   6.160  0.0562 -0.1995 -0.0566
 1141DPPI   GL216304  16.780   1.953   6.075  0.0491 -0.0548  0.1196
 1141DPPI   C1A16305  16.868   2.058   6.551  0.2124 -0.0420  0.2796
 1141DPPI   C2A16306  16.924   1.914   6.966  0.1346 -0.1737  0.0480
 1141DPPI   C3A16307  17.038   1.769   7.366 -0.0718 -0.2240  0.0846
 1141DPPI   C4A16308  16.991   1.599   7.724  0.1229 -0.2492  0.3257
 1141DPPI   C1B16309  16.438   2.171   6.305 -0.0632 -0.1020 -0.3911
 1141DPPI   C2B16310  16.456   2.153   6.836  0.2704  0.0063 -0.0240
 1141DPPI   C3B16311  16.370   2.062   7.190 -0.2747  0.1036  0.1290
 1141DPPI   C4B16312  16.319   1.824   7.560 -0.0571  0.0326  0.1456
 1142DPPI    C116313   2.773  16.846   5.623 -0.0279 -0.1991 -0.0750
 1142DPPI    C216314   3.121  16.929   5.444  0.0053 -0.0650  0.0498
 1142DPPI    C316315   2.964  16.562   5.415  0.3073 -0.2137  0.2424
 1142DPPI   PO416316   2.768  17.126   5.843 -0.1164  0.2368  0.2308
 1142DPPI   GL116317   2.975  17.284   6.212  0.1128  0.2786  0.1659
 1142DPPI   GL216318   3.067  16.994   6.310 -0.3881 -0.1766 -0.3941
 1142DPPI   C1A16319   2.769  17.458   6.616  0.3025  0.1063  0.1506
 1142DPPI   C2A16320   2.722  17.490   6.955 -0.1371  0.4686 -0.2635
 1142DPPI   C3A16321   2.896  17.442   7.446  0.1714 -0.1248 -0.0585
 1142DPPI   C4A16322   3.039  17.270   7.953 -0.4220  0.0573  0.0253
 1142DPPI   C1B16323   3.032  17.083   6.761  0.3050 -0.0089  0.0666
 1142DPPI   C2B16324   3.036  17.044   7.135 -0.1716 -0.4968 -0.0030
 1142DPPI   C3B16325   3.057  16.868   7.598 -0.0950 -0.1654 -0.1464
 1142DPPI   C4B16326   3.232  16.798   8.035  0.4084  0.0116 -0.1285
 1143DPPI    C116327   2.821  17.752   5.303 -0.0875 -0.2322 -0.3666
 1143DPPI    C216328   2.959  18.111   5.193  0.0619 -0.1503  0.0697
 1143DPPI    C316329   3.043  17.788   4.972  0.1619  0.0397 -0.1747
 1143DPPI   PO416330   2.531  17.882   5.493  0.2008  0.1431 -0.0949
 1143DPPI   GL116331   2.535  18.036   5.985 -0.1386 -0.0505 -0.0841
 1143DPPI   GL216332   2.577  18.255   6.106 -0.2435  0.0162  0.0742
 1143DPPI   C1A16333   2.712  17.803   6.294 -0.0328  0.0490 -0.2087
 1143DPPI   C2A16334   2.810  17.935   6.708 -0.1731  0.2407  0.0695
 1143DPPI   C3A16335   3.018  17.872   7.192 -0.0659  0.0963 -0.2185
 1143DPPI   C4A16336   2.955  17.884   7.654  0.3869 -0.1309 -0.2653
 1143DPPI   C1B16337   2.631  18.304   6.486  0.0893  0.2012  0.2817
 1143DPPI   C2B16338   2.483  18.346   6.795  0.1844 -0.3656 -0.2648
 1143DPPI   C3B16339   2.610  18.236   7.236 -0.2374  0.3081  0.4432
 1143DPPI   C4B16340   2.468  18.038   7.583 -0.0047  0.2708  0.2337
 1144DPPI    C116341  14.693  17.713   5.868 -0.2333  0.3155  0.0164
 1144DPPI    C216342  14.675  17.676   5.471  0.0414 -0.0547  0.0329
 1144DPPI    C316343  14.992  17.851   5.641 -0.0536  0.0601  0.0927
 1144DPPI   PO416344  14.484  17.763   5.899  0.0493  0.3046 -0.1981
 1144DPPI   GL116345  14.339  17.754   6.297  0.1716 -0.2889  0.0734
 1144DPPI   GL216346  14.658  17.924   6.406 -0.0573  0.0493  0.0769
 1144DPPI   C1A16347  14.161  17.860   6.694  0.1359  0.0382 -0.0698
 1144DPPI   C2A16348  14.212  17.814   7.103  0.0644 -0.0313  0.0033
 1144DPPI   C3A16349  14.445  17.733   7.474 -0.3067  0.1674  0.1402
 1144DPPI   C4A16350  14.584  17.872   7.858 -0.0168 -0.0389  0.0069
 1144DPPI   C1B16351  14.613  18.007   6.871 -0.1264 -0.0886 -0.2326
 1144DPPI   C2B16352  14.845  17.972   7.317  0.1960  0.2789  0.0713
 1144DPPI   C3B16353  15.238  17.983   7.461  0.3382  0.0967  0.2930
 1144DPPI   C4B16354  15.501  17.843   7.797 -0.0003  0.0155  0.3063
 1145DPPI    C116355  12.201   0.679   5.805  0.2730  0.1847  0.1828
 1145DPPI    C216356  12.501   0.505   6.005  0.2888  0.0141  0.0137
 1145DPPI    C316357  12.482   0.474   5.607  0.0460  0.0231  0.0232
 1145DPPI   PO416358  11.968   0.600   5.996 -0.0718 -0.0895 -0.2966
 1145DPPI   GL116359  11.879   0.437   6.384  0.2521  0.4252  0.0217
 1145DPPI   GL216360  11.570   0.506   6.304 -0.0552 -0.0129 -0.2310
 1145DPPI   C1A16361  11.959   0.375   6.764 -0.1394 -0.1335 -0.2850
 1145DPPI   C2A16362  12.104   0.250   7.089  0.4209  0.0350 -0.0777
 1145DPPI   C3A16363  12.356   0.295   7.429 -0.0310  0.1664 -0.0374
 1145DPPI   C4A16364  12.693   0.516   7.716  0.0403 -0.1265  0.1210
 1145DPPI   C1B16365  11.489   0.462   6.747 -0.1618 -0.0349 -0.1159
 1145DPPI   C2B16366  11.406   0.671   7.149  0.0433 -0.0885  0.0121
 1145DPPI   C3B16367  11.289   0.772   7.524  0.2702 -0.1658  0.1515
 1145DPPI   C4B16368  11.148   0.879   7.936  0.3481 -0.0146 -0.0001
 1146DPPI    C116369   4.861  13.421   5.614  0.1934 -0.0597  0.1962
 1146DPPI    C216370   5.233  13.299   5.529  0.2306  0.0659  0.1755
 1146DPPI    C316371   5.052  13.567   5.293  0.0346 -0.1749  0.0477
 1146DPPI   PO416372   4.777  13.507   5.920 -0.3344 -0.2520 -0.1178
 1146DPPI   GL116373   4.755  13.601   6.312  0.0817 -0.0077  0.0625
 1146DPPI   GL216374   4.878  13.254   6.374  0.0834  0.0985 -0.1900
 1146DPPI   C1A16375   4.681  13.659   6.783  0.0718  0.2161  0.0711
 1146DPPI   C2A16376   4.806  13.716   7.245 -0.0061 -0.0664  0.1850
 1146DPPI   C3A16377   5.045  13.967   7.640  0.2450 -0.1889  0.1677
 1146DPPI   C4A16378   5.340  14.086   7.935  0.0577  0.0421 -0.1386
 1146DPPI   C1B16379   4.949  13.297   6.772 -0.0649 -0.0636  0.1512
 1146DPPI   C2B16380   4.933  13.257   7.178 -0.1515 -0.1862 -0.1346
 1146DPPI   C3B16381   5.111  13.200   7.611  0.0118 -0.0705 -0.2959
 1146DPPI   C4B16382   5.053  13.496   7.890  0.0286 -0.0209 -0.0250
 1147PYPI    C116383  14.379   1.453   5.779  0.1850 -0.0315  0.0945
 1147PYPI    C216384  14.644   1.325   5.508  0.1350 -0.3209  0.1793
 1147PYPI    C316385  14.771   1.507   5.841  0.2183 -0.3142  0.1442
 1147PYPI   PO416386  14.139   1.161   5.768  0.0306  0.1994 -0.0980
 1147PYPI   GL116387  14.133   0.938   6.123  0.2176 -0.0717 -0.0350
 1147PYPI   GL216388  14.199   0.684   6.307 -0.0573  0.1265 -0.0014
 1147PYPI   C1A16389  13.741   1.123   6.497 -0.2084 -0.2750 -0.1924
 1147PYPI   C2A16390  13.727   1.205   6.900 -0.0423  0.1185  0.0313
 1147PYPI   D3A16391  13.468   1.271   7.179 -0.0204  0.2473 -0.0156
 1147PYPI   C4A16392  13.034   1.147   7.097  0.2278  0.2551  0.0767
 1147PYPI   C1B16393  14.346   0.824   6.667  0.2515  0.4764  0.3716
 1147PYPI   C2B16394  14.498   0.780   7.184  0.1464  0.0122  0.0456
 1147PYPI   C3B16395  14.547   0.912   7.622  0.0834  0.1171  0.0422
 1147PYPI   C4B16396  14.428   0.611   7.914  0.1169 -0.1097 -0.0694
 1148PYPI    C116397  16.944  11.727   5.635 -0.0415 -0.3681 -0.0499
 1148PYPI    C216398  17.102  11.601   5.290 -0.0826 -0.1113 -0.1654
 1148PYPI    C316399  16.743  11.468   5.405  0.0161 -0.3475 -0.1242
 1148PYPI   PO416400  17.078  11.950   5.767  0.0604 -0.0385 -0.0602
 1148PYPI   GL116401  17.158  12.120   6.158 -0.1153  0.0630  0.0510
 1148PYPI   GL216402  16.920  11.931   6.341 -0.0408 -0.1636  0.1234
 1148PYPI   C1A16403  17.415  12.186   6.479 -0.0502  0.0581 -0.0896
 1148PYPI   C2A16404  17.591  12.335   6.883 -0.0436 -0.1884 -0.3308
 1148PYPI   D3A16405  17.592  12.448   7.291  0.0954  0.3092 -0.0092
 1148PYPI   C4A16406  17.432  12.224   7.648 -0.1868  0.1986 -0.2040
 1148PYPI   C1B16407  16.928  11.878   6.683 -0.1394  0.2051  0.2100
 1148PYPI   C2B16408  16.870  11.887   7.052  0.1996  0.4216 -0.1077
 1148PYPI   C3B16409  16.856  11.917   7.463  0.0397 -0.0355  0.1698
 1148PYPI   C4B16410  16.962  12.038   7.875 -0.0490 -0.2788  0.0724
 1149PYPI    C116411   5.651  11.556   5.434  0.0747  0.1791 -0.1121
 1149PYPI    C216412   5.724  11.540   5.041 -0.2389 -0.2330 -0.1603
 1149PYPI    C316413   5.347  11.567   5.174 -0.1294 -0.0074  0.1134
 1149PYPI   PO416414   5.890  11.422   5.611  0.1011 -0.0291 -0.0448
 1149PYPI   GL116415   6.131  11.324   6.017 -0.0209  0.0444 -0.0050
 1149PYPI   GL216416   6.095  11.686   6.003  0.5472  0.1010 -0.2572
 1149PYPI   C1A16417   6.107  11.207   6.436  0.2493 -0.1433 -0.0660
 1149PYPI   C2A16418   6.097  11.159   6.824  0.2470 -0.0029  0.0570
 1149PYPI   D3A16419   6.004  11.001   7.198  0.0900 -0.1937 -0.3940
 1149PYPI   C4A16420   6.340  11.057   7.549  0.0526 -0.1595  0.2648
 1149PYPI   C1B16421   6.179  11.687   6.378  0.1843  0.0449 -0.0875
 1149PYPI   C2B16422   6.365  11.580   6.763 -0.0610  0.3994 -0.0144
 1149PYPI   C3B16423   6.296  11.469   7.229 -0.1909 -0.0783  0.0810
 1149PYPI   C4B16424   6.192  11.627   7.562  0.0682 -0.0024 -0.1315
 1150PYPI    C116425  14.464   0.352   5.820 -0.1967 -0.1173 -0.0531
 1150PYPI    C216426  14.601   0.058   5.585 -0.0840 -0.0473 -0.0755
 1150PYPI    C316427  14.208   0.093   5.653 -0.0996 -0.1912 -0.0884
 1150PYPI   PO416428  14.768   0.490   5.848 -0.2961  0.1345  0.0016
 1150PYPI   GL116429  14.671   0.501   6.320  0.1630 -0.1057 -0.0490
 1150PYPI   GL216430  14.824   0.798   6.378  0.3927  0.0783  0.3348
 1150PYPI   C1A16431  14.820   0.435   6.726  0.1170 -0.1276  0.0803
 1150PYPI   C2A16432  15.132   0.509   7.033 -0.0550 -0.1991 -0.1459
 1150PYPI   D3A16433  15.048   0.871   7.123 -0.1664  0.1681 -0.0285
 1150PYPI   C4A16434  14.975   0.693   7.526  0.0328 -0.0731  0.0519
 1150PYPI   C1B16435  14.827   1.021   6.680 -0.0080  0.1949  0.0176
 1150PYPI   C2B16436  15.069   1.387   6.849  0.1276 -0.0931  0.0991
 1150PYPI   C3B16437  15.167   1.428   7.248 -0.2005  0.1077  0.2660
 1150PYPI   C4B16438  15.289   1.533   7.663 -0.0109 -0.2358  0.1509
 1151PYPI    C116439   9.895  18.029   5.566  0.0236 -0.3429  0.1525
 1151PYPI    C216440   9.596  17.824   5.397 -0.0630  0.0425 -0.1780
 1151PYPI    C316441   9.942  17.870   5.201 -0.0758  0.2840 -0.1460
 1151PYPI   PO416442   9.717  18.239   5.773  0.1765  0.0561  0.0768
 1151PYPI   GL116443   9.882  18.441   6.065  0.0113 -0.1335 -0.0482
 1151PYPI   GL216444   9.833  18.143   6.261  0.1087 -0.4156 -0.1684
 1151PYPI   C1A16445  10.030  18.613   6.363  0.1174 -0.1807 -0.4477
 1151PYPI   C2A16446  10.095  18.684   6.812  0.6066 -0.3575 -0.2644
 1151PYPI   D3A16447   9.926  18.850   7.150  0.0061  0.2409 -0.1636
 1151PYPI   C4A16448  10.126  18.658   7.517 -0.1107  0.2199 -0.2059
 1151PYPI   C1B16449   9.919  18.182   6.735 -0.0810  0.1865 -0.0231
 1151PYPI   C2B16450   9.977  18.288   7.151  0.1226 -0.3047 -0.0183
 1151PYPI   C3B16451  10.107  18.169   7.574 -0.0994  0.0513  0.0678
 1151PYPI   C4B16452  10.303  18.421   7.934  0.2569  0.1487  0.0658
 1152PYPI    C116453   0.759   0.871   5.429 -0.0791 -0.0431  0.0864
 1152PYPI    C216454   0.770   0.771   5.042  0.0065 -0.1466  0.1150
 1152PYPI    C316455   1.059   0.999   5.198 -0.0248 -0.1100  0.1197
 1152PYPI   PO416456   0.659   0.644   5.514  0.0460 -0.1912  0.1308
 1152PYPI   GL116457   0.621   0.553   5.983  0.0991 -0.2002  0.2850
 1152PYPI   GL216458   0.741   0.774   5.986  0.1085 -0.1285  0.3919
 1152PYPI   C1A16459   0.546   0.423   6.386  0.1636  0.2287 -0.2040
 1152PYPI   C2A16460   0.328   0.113   6.676 -0.1943  0.0020  0.0070
 1152PYPI   D3A16461   0.040  -0.237   6.875  0.0209  0.1312  0.4314
 1152PYPI   C4A16462  -0.331  -0.188   7.161  0.1077  0.2351 -0.3787
 1152PYPI   C1B16463   0.870   0.859   6.395  0.3665  0.0331  0.1278
 1152PYPI   C2B16464   0.892   0.869   6.792  0.0637 -0.0695 -0.0046
 1152PYPI   C3B16465   0.912   0.808   7.245  0.3724 -0.0983  0.0669
 1152PYPI   C4B16466   0.907   0.782   7.640  0.1672 -0.1471  0.1394
 1153PYPI    C116467   2.475  13.776   5.593 -0.2472 -0.1549  0.0185
 1153PYPI    C216468   2.430  14.111   5.380  0.1504 -0.1993 -0.1435
 1153PYPI    C316469   2.125  13.855   5.415 -0.1219  0.1213 -0.1120
 1153PYPI   PO416470   2.629  13.898   5.816 -0.0190  0.0943 -0.3299
 1153PYPI   GL116471   2.830  14.183   6.184 -0.1453 -0.0006 -0.0531
 1153PYPI   GL216472   2.638  14.304   6.457  0.3233 -0.1496  0.2934
 1153PYPI   C1A16473   3.083  14.133   6.511  0.6666 -0.0865  0.0474
 1153PYPI   C2A16474   3.188  14.208   6.936 -0.0684  0.0802 -0.0545
 1153PYPI   D3A16475   3.493  14.274   7.220  0.1706 -0.0988  0.4749
 1153PYPI   C4A16476   3.845  14.142   7.051  0.0616 -0.1939 -0.0779
 1153PYPI   C1B16477   2.613  14.257   6.902  0.0613 -0.0298 -0.0696
 1153PYPI   C2B16478   2.650  14.164   7.318  0.0151 -0.1077 -0.0194
 1153PYPI   C3B16479   2.513  14.103   7.689 -0.0457 -0.2886  0.0615
 1153PYPI   C4B16480   2.437  14.368   8.149  0.1698 -0.3397 -0.0778
 1154PYPI    C116481   6.168  15.212   5.557 -0.1456  0.1074  0.0311
 1154PYPI    C216482   6.163  15.612   5.565 -0.2119  0.1038  0.2452
 1154PYPI    C316483   6.498  15.418   5.464 -0.1855  0.2127  0.1203
 1154PYPI   PO416484   5.998  15.245   5.840 -0.2925 -0.3236  0.1092
 1154PYPI   GL116485   5.926  15.135   6.253 -0.2420  0.1185  0.0170
 1154PYPI   GL216486   5.774  15.432   6.334  0.2242  0.0771 -0.1642
 1154PYPI   C1A16487   5.925  15.165   6.717  0.0728 -0.2850 -0.0362
 1154PYPI   C2A16488   6.038  15.126   7.130  0.1686 -0.2077 -0.2190
 1154PYPI   D3A16489   6.097  15.188   7.579 -0.0444 -0.4294  0.0492
 1154PYPI   C4A16490   6.166  15.544   7.723 -0.1808 -0.0716  0.1050
 1154PYPI   C1B16491   6.083  15.694   6.498  0.1589 -0.1320 -0.0470
 1154PYPI   C2B16492   6.290  15.590   6.801 -0.0425  0.0087  0.0872
 1154PYPI   C3B16493   6.292  15.648   7.259 -0.0006 -0.2224  0.0368
 1154PYPI   C4B16494   6.560  15.796   7.605  0.0917 -0.2300  0.2191
 1155PYPI    C116495  12.468  13.678   5.584  0.1909  0.2166  0.0164
 1155PYPI    C216496  12.240  13.722   5.911  0.0521 -0.1269 -0.0296
 1155PYPI    C316497  12.267  14.019   5.644  0.0496  0.1003  0.2192
 1155PYPI   PO416498  12.705  13.595   5.777  0.2811 -0.1312  0.3532
 1155PYPI   GL116499  12.917  13.695   6.150  0.2807 -0.1385 -0.2839
 1155PYPI   GL216500  12.637  13.513   6.278 -0.2515  0.2214 -0.1477
 1155PYPI   C1A16501  13.088  13.592   6.647  0.2343  0.1309  0.0455
 1155PYPI   C2A16502  13.193  13.633   7.082 -0.0523  0.0638 -0.0085
 1155PYPI   D3A16503  13.130  13.646   7.547  0.1485 -0.1598 -0.0264
 1155PYPI   C4A16504  13.364  13.950   7.625  0.1410  0.1937 -0.4542
 1155PYPI   C1B16505  12.685  13.287   6.679 -0.0657  0.0075  0.1416
 1155PYPI   C2B16506  12.724  13.218   7.126  0.1484 -0.3543  0.1590
 1155PYPI   C3B16507  12.761  13.235   7.521 -0.1501 -0.1113  0.0670
 1155PYPI   C4B16508  12.833  13.295   7.921  0.1746  0.3202 -0.1529
 1156PYPI    C116509   7.649   2.061   5.951  0.1569 -0.0300  0.0219
 1156PYPI    C216510   7.621   2.172   5.568  0.3567  0.1029  0.0445
 1156PYPI    C316511   7.967   2.031   5.711  0.1837 -0.2934  0.0868
 1156PYPI   PO416512   7.619   2.203   6.068  0.0571  0.0053  0.1440
 1156PYPI   GL116513   7.534   2.183   6.418 -0.2204  0.3575 -0.1132
 1156PYPI   GL216514   7.612   1.880   6.483 -0.0472  0.0705 -0.1854
 1156PYPI   C1A16515   7.360   2.174   6.865  0.1359  0.1965  0.0694
 1156PYPI   C2A16516   7.188   2.273   7.355  0.2587 -0.0643  0.0968
 1156PYPI   D3A16517   7.298   2.252   7.721  0.1226  0.0175  0.2413
 1156PYPI   C4A16518   6.809   2.130   7.857  0.1705 -0.2812  0.0680
 1156PYPI   C1B16519   7.488   1.593   6.717 -0.3634  0.1784  0.1179
 1156PYPI   C2B16520   7.395   1.415   7.254 -0.3697  0.3876 -0.0334
 1156PYPI   C3B16521   7.446   1.409   7.619  0.1116  0.3167 -0.0392
 1156PYPI   C4B16522   7.444   1.379   8.003 -0.4123  0.2903  0.1054
 1157PYPI    C116523   8.825   9.642   5.513 -0.0448  0.1323  0.1176
 1157PYPI    C216524   8.656   9.408   5.235 -0.0347  0.1653  0.0836
 1157PYPI    C316525   8.963   9.646   5.137 -0.0203  0.1648  0.1270
 1157PYPI   PO416526   8.666   9.726   5.703 -0.0122  0.0362 -0.0012
 1157PYPI   GL116527   8.536   9.556   6.075 -0.0303 -0.2734  0.2864
 1157PYPI   GL216528   8.332   9.810   6.006  0.1305 -0.0866 -0.0300
 1157PYPI   C1A16529   8.393   9.487   6.485  0.0977 -0.0356  0.3112
 1157PYPI   C2A16530   8.310   9.479   6.902  0.0517 -0.0573 -0.3086
 1157PYPI   D3A16531   8.400   9.187   7.275  0.3992  0.0310 -0.1611
 1157PYPI   C4A16532   8.396   9.159   7.704  0.0760 -0.4891 -0.1156
 1157PYPI   C1B16533   8.002   9.956   6.266 -0.0100 -0.0520  0.1113
 1157PYPI   C2B16534   7.530   9.894   6.145  0.0422  0.0820 -0.3686
 1157PYPI   C3B16535   7.111   9.844   6.361 -0.0505  0.1655 -0.1234
 1157PYPI   C4B16536   6.860  10.196   6.477  0.3144  0.3529 -0.0070
 1158PYPI    C116537   8.427  17.775   5.544 -0.1490 -0.0216  0.1314
 1158PYPI    C216538   8.146  17.613   5.309 -0.0646 -0.1281  0.1033
 1158PYPI    C316539   8.379  17.906   5.169  0.1200 -0.3279 -0.0159
 1158PYPI   PO416540   8.275  17.800   5.779  0.1152  0.1701  0.0439
 1158PYPI   GL116541   8.117  17.879   6.219 -0.0957 -0.3804 -0.0010
 1158PYPI   GL216542   8.514  17.782   6.252 -0.0852  0.2475  0.0985
 1158PYPI   C1A16543   8.043  17.654   6.593  0.1129  0.1481  0.1995
 1158PYPI   C2A16544   8.175  17.632   6.980 -0.1554  0.0216  0.2529
 1158PYPI   D3A16545   8.114  17.448   7.281 -0.1043  0.1881  0.0576
 1158PYPI   C4A16546   7.911  17.555   7.694  0.0168  0.2119  0.0365
 1158PYPI   C1B16547   8.549  17.807   6.632  0.0205 -0.2627 -0.2781
 1158PYPI   C2B16548   8.662  18.021   6.982 -0.1950  0.1339 -0.0793
 1158PYPI   C3B16549   8.736  18.160   7.380 -0.0100  0.0872 -0.0459
 1158PYPI   C4B16550   8.823  18.441   7.508 -0.2284  0.0244  0.1399
 1159PYPI    C116551   8.571  13.186   5.818  0.0242 -0.0368 -0.2995
 1159PYPI    C216552   8.817  13.501   5.839  0.1598 -0.1601  0.0222
 1159PYPI    C316553   8.472  13.530   5.640  0.2347  0.1481 -0.0677
 1159PYPI   PO416554   8.635  13.078   6.096  0.1738  0.2575  0.0726
 1159PYPI   GL116555   8.382  13.163   6.476  0.0877 -0.5068 -0.0751
 1159PYPI   GL216556   8.325  12.827   6.489  0.1828  0.1575 -0.2940
 1159PYPI   C1A16557   8.461  13.194   6.916 -0.2174  0.2555 -0.0552
 1159PYPI   C2A16558   8.498  13.099   7.303 -0.2429  0.1486  0.0209
 1159PYPI   D3A16559   8.554  13.151   7.846 -0.0676  0.0856 -0.1075
 1159PYPI   C4A16560   8.682  12.851   8.152 -0.2319  0.2500  0.1807
 1159PYPI   C1B16561   8.318  12.711   6.945 -0.1016  0.0411  0.1348
 1159PYPI   C2B16562   8.080  12.787   7.226  0.0156  0.0954 -0.1725
 1159PYPI   C3B16563   8.129  12.973   7.592 -0.1675  0.2029  0.0921
 1159PYPI   C4B16564   8.183  12.974   8.058 -0.0643 -0.2028  0.1117
 1160PYPI    C116565  13.359   2.815   5.416 -0.0509 -0.0058  0.1887
 1160PYPI    C216566  13.564   2.481   5.334  0.0053  0.1007 -0.1153
 1160PYPI    C316567  13.337   2.651   5.051 -0.1190  0.2536  0.0741
 1160PYPI   PO416568  13.430   2.878   5.615  0.1027  0.1160  0.1603
 1160PYPI   GL116569  13.689   2.825   5.913  0.0228  0.1075  0.0727
 1160PYPI   GL216570  13.698   2.564   6.246  0.3740  0.0552  0.0241
 1160PYPI   C1A16571  13.809   3.040   6.332  0.0564 -0.2079  0.1416
 1160PYPI   C2A16572  13.865   2.738   6.683  0.3039  0.0203  0.0974
 1160PYPI   D3A16573  13.937   2.713   7.080 -0.0207  0.2882  0.1519
 1160PYPI   C4A16574  14.221   3.052   7.131  0.0547  0.2030 -0.0268
 1160PYPI   C1B16575  13.633   2.270   6.554  0.2319  0.0392  0.2062
 1160PYPI   C2B16576  13.854   2.153   7.016  0.3246  0.1607 -0.0285
 1160PYPI   C3B16577  14.031   2.243   7.447 -0.3149  0.1089 -0.4125
 1160PYPI   C4B16578  14.233   2.429   7.823  0.2017 -0.0395  0.1240
 1161PYPI    C116579   5.792   8.548   5.262  0.1004  0.3144  0.2173
 1161PYPI    C216580   6.092   8.730   5.070  0.0143  0.0500 -0.1821
 1161PYPI    C316581   5.741   8.677   4.887 -0.2083  0.1563  0.2018
 1161PYPI   PO416582   5.933   8.748   5.586  0.0815  0.0223 -0.0596
 1161PYPI   GL116583   5.713   8.796   5.946 -0.2611  0.0392 -0.0155
 1161PYPI   GL216584   5.995   8.495   6.076 -0.0744  0.1288  0.2918
 1161PYPI   C1A16585   5.698   8.779   6.425  0.2435  0.0754 -0.2430
 1161PYPI   C2A16586   5.788   8.576   6.878  0.1817 -0.1090  0.3030
 1161PYPI   D3A16587   5.694   8.472   7.209 -0.2809  0.0423 -0.0940
 1161PYPI   C4A16588   5.364   8.240   7.329  0.2308 -0.2315  0.0467
 1161PYPI   C1B16589   5.926   8.296   6.458  0.0117 -0.1295  0.2100
 1161PYPI   C2B16590   6.136   8.173   6.852  0.0277 -0.0996 -0.4389
 1161PYPI   C3B16591   6.172   8.443   7.158 -0.0913 -0.1756 -0.1188
 1161PYPI   C4B16592   6.182   8.424   7.530 -0.0780 -0.0004  0.2283
 1162PYPI    C116593  14.189   9.208   5.807 -0.2002 -0.0673 -0.2468
 1162PYPI    C216594  13.963   8.894   5.705 -0.0505 -0.2552 -0.0121
 1162PYPI    C316595  13.978   9.216   5.468 -0.6938 -0.1677  0.0477
 1162PYPI   PO416596  14.056   9.369   6.042  0.1579 -0.0889 -0.0246
 1162PYPI   GL116597  14.177   9.400   6.499  0.0257  0.2058  0.0426
 1162PYPI   GL216598  14.120   9.622   6.584  0.2615  0.2488 -0.0692
 1162PYPI   C1A16599  14.253   8.975   6.650 -0.0302 -0.0080 -0.0400
 1162PYPI   C2A16600  14.424   8.862   7.040 -0.4857 -0.2044 -0.1086
 1162PYPI   D3A16601  14.536   8.704   7.399 -0.0947  0.0650 -0.1725
 1162PYPI   C4A16602  14.171   8.603   7.631 -0.2595 -0.0673  0.2239
 1162PYPI   C1B16603  13.975   9.635   7.006  0.0854 -0.1019  0.2618
 1162PYPI   C2B16604  13.626   9.524   7.295 -0.3577  0.3550 -0.6041
 1162PYPI   C3B16605  13.559   9.357   7.694  0.4340 -0.1597 -0.1994
 1162PYPI   C4B16606  13.660   9.230   8.208  0.3300 -0.0656  0.1672
 1163PYPI    C116607   7.793  12.773   5.620  0.0944 -0.1801  0.1466
 1163PYPI    C216608   7.885  12.498   5.344 -0.2544 -0.3456  0.1887
 1163PYPI    C316609   7.852  12.883   5.240  0.2575 -0.3092  0.1334
 1163PYPI   PO416610   7.982  12.690   5.801 -0.1596 -0.0227  0.1678
 1163PYPI   GL116611   8.035  12.987   6.127  0.3031  0.3081  0.2285
 1163PYPI   GL216612   7.873  13.228   6.436  0.0772 -0.0364  0.2673
 1163PYPI   C1A16613   7.822  12.719   6.408 -0.1736 -0.2173  0.2595
 1163PYPI   C2A16614   7.860  12.584   6.837  0.0805 -0.1070  0.0781
 1163PYPI   D3A16615   7.656  12.516   7.342  0.0587  0.0189 -0.0699
 1163PYPI   C4A16616   7.765  12.633   7.700 -0.0461  0.1469 -0.2738
 1163PYPI   C1B16617   7.966  13.126   6.772  0.3839  0.3345  0.3555
 1163PYPI   C2B16618   7.927  13.301   7.131 -0.0276  0.1023 -0.1817
 1163PYPI   C3B16619   7.689  13.564   7.394 -0.0340 -0.0067 -0.3678
 1163PYPI   C4B16620   7.580  13.629   7.917  0.3394 -0.0691  0.0760
 1164PYPI    C116621   2.409   4.720   5.862  0.1018  0.2965  0.0462
 1164PYPI    C216622   2.214   4.877   5.549  0.2620  0.0662 -0.1735
 1164PYPI    C316623   2.589   4.744   5.505  0.2217 -0.1371  0.0717
 1164PYPI   PO416624   2.433   4.894   6.057 -0.0326  0.1180 -0.0977
 1164PYPI   GL116625   2.210   4.967   6.298  0.0441  0.0271 -0.1300
 1164PYPI   GL216626   2.008   5.216   6.267 -0.1026 -0.1355 -0.1042
 1164PYPI   C1A16627   1.944   5.104   6.788  0.1681  0.2585 -0.2906
 1164PYPI   C2A16628   1.911   5.111   7.308 -0.0595 -0.1273 -0.0630
 1164PYPI   D3A16629   1.993   4.959   7.814  0.4499 -0.0008  0.0653
 1164PYPI   C4A16630   1.710   4.845   8.033  0.1388 -0.0560 -0.0636
 1164PYPI   C1B16631   2.149   5.464   6.501 -0.0309 -0.0759  0.0048
 1164PYPI   C2B16632   2.284   5.703   6.764 -0.0917 -0.1214  0.1663
 1164PYPI   C3B16633   2.185   5.870   7.119 -0.0120 -0.2199 -0.0170
 1164PYPI   C4B16634   2.382   5.981   7.444 -0.2183  0.1629  0.1277
 1165PYPI    C116635   7.834   7.872   5.078  0.0885  0.0623  0.1467
 1165PYPI    C216636   7.512   8.097   5.152 -0.0646 -0.0330 -0.2098
 1165PYPI    C316637   7.468   7.717   5.035  0.1583  0.0879 -0.7166
 1165PYPI   PO416638   8.017   7.987   5.297  0.1143  0.0373 -0.1340
 1165PYPI   GL116639   8.183   7.986   5.771 -0.2770 -0.0317  0.0958
 1165PYPI   GL216640   7.885   7.768   5.726  0.1605 -0.2369 -0.3381
 1165PYPI   C1A16641   7.937   8.156   6.095  0.0003  0.1994 -0.1127
 1165PYPI   C2A16642   7.692   8.086   6.459 -0.2268  0.0798  0.1349
 1165PYPI   D3A16643   7.605   8.482   6.798  0.0507 -0.1316  0.0985
 1165PYPI   C4A16644   7.726   8.595   7.064 -0.0184  0.2216 -0.2672
 1165PYPI   C1B16645   7.747   7.636   6.139 -0.2446  0.1593  0.0508
 1165PYPI   C2B16646   7.419   7.635   6.535 -0.2176 -0.2352  0.1374
 1165PYPI   C3B16647   7.432   7.908   6.936 -0.0845 -0.0081  0.2272
 1165PYPI   C4B16648   7.446   8.159   7.408 -0.2748 -0.1161 -0.2675
 1166PYPI    C116649   5.475  17.961   5.796  0.0902  0.0147  0.0371
 1166PYPI    C216650   5.333  17.617   5.649 -0.2759  0.1459  0.0743
 1166PYPI    C316651   5.624  17.812   5.456 -0.0708 -0.1780  0.0495
 1166PYPI   PO416652   5.430  17.944   6.105 -0.1377  0.0283  0.2472
 1166PYPI   GL116653   5.392  18.097   6.486 -0.0822  0.2295 -0.2115
 1166PYPI   GL216654   5.603  18.236   6.512  0.1805  0.2468  0.4306
 1166PYPI   C1A16655   5.150  18.153   6.943 -0.0978  0.0496  0.1215
 1166PYPI   C2A16656   4.796  18.095   7.223  0.4020  0.0407 -0.3455
 1166PYPI   D3A16657   4.694  18.233   7.573  0.2550 -0.0079  0.3487
 1166PYPI   C4A16658   4.918  18.533   7.858  0.2328  0.0613 -0.1118
 1166PYPI   C1B16659   5.639  18.398   6.963 -0.0105 -0.0834 -0.0379
 1166PYPI   C2B16660   5.587  18.415   7.357 -0.0048 -0.0627 -0.0912
 1166PYPI   C3B16661   5.752  18.337   7.749 -0.0028 -0.0499  0.0397
 1166PYPI   C4B16662   5.790  18.434   8.281 -0.1725 -0.0167 -0.2698
 1167PYPI    C116663   5.291   5.218   5.586 -0.1917 -0.0762 -0.1401
 1167PYPI    C216664   5.091   4.895   5.462 -0.1294 -0.1986  0.0734
 1167PYPI    C316665   5.491   4.888   5.480 -0.1283 -0.1121  0.0855
 1167PYPI   PO416666   5.116   5.334   5.755  0.1950 -0.2576  0.0739
 1167PYPI   GL116667   5.122   5.121   6.106  0.1645 -0.1403  0.1845
 1167PYPI   GL216668   5.333   5.394   6.253 -0.0409  0.0680  0.3540
 1167PYPI   C1A16669   5.090   5.097   6.544  0.3422  0.1042  0.0263
 1167PYPI   C2A16670   5.135   5.008   6.990  0.0517  0.0620 -0.3270
 1167PYPI   D3A16671   5.170   5.062   7.470 -0.1731  0.3156 -0.2085
 1167PYPI   C4A16672   5.260   4.727   7.854  0.0529 -0.0975  0.5364
 1167PYPI   C1B16673   5.408   5.415   6.711 -0.2181 -0.0800 -0.0533
 1167PYPI   C2B16674   5.482   5.307   7.146 -0.0775 -0.0028  0.1417
 1167PYPI   C3B16675   5.544   5.337   7.577  0.1040  0.0627 -0.2308
 1167PYPI   C4B16676   5.860   5.511   7.788 -0.1393  0.0838 -0.1121
 1168PYPI    C116677   8.754   5.859   5.315  0.1676  0.0557 -0.1603
 1168PYPI    C216678   8.816   6.146   5.044  0.1597  0.0182 -0.2019
 1168PYPI    C316679   8.506   5.897   5.004  0.0731  0.1052 -0.0792
 1168PYPI   PO416680   8.794   5.923   5.535  0.2868 -0.1018 -0.1882
 1168PYPI   GL116681   8.993   5.708   5.842 -0.0568 -0.0422  0.0350
 1168PYPI   GL216682   9.313   5.759   5.853  0.2137  0.2414 -0.0472
 1168PYPI   C1A16683   8.969   5.289   5.808  0.0464 -0.1204  0.2338
 1168PYPI   C2A16684   8.723   5.267   6.210 -0.1052  0.0669 -0.3098
 1168PYPI   D3A16685   8.485   5.296   6.475  0.3542  0.1094  0.0686
 1168PYPI   C4A16686   8.583   5.209   6.860  0.0520 -0.0265 -0.3481
 1168PYPI   C1B16687   9.210   5.558   6.256 -0.0501  0.2263 -0.2318
 1168PYPI   C2B16688   9.496   5.476   6.582 -0.1158  0.2236 -0.4643
 1168PYPI   C3B16689   9.692   5.396   7.041 -0.0664  0.1713 -0.0351
 1168PYPI   C4B16690   9.621   5.441   7.492  0.1701 -0.2160 -0.0740
 1169PYPI    C116691   3.867  11.416   5.690  0.0233  0.0293 -0.1495
 1169PYPI    C216692   4.007  11.642   5.392  0.3101 -0.0097 -0.0475
 1169PYPI    C316693   4.164  11.280   5.459  0.1300 -0.0720  0.0444
 1169PYPI   PO416694   3.813  11.523   5.825 -0.1162  0.1471 -0.3299
 1169PYPI   GL116695   3.534  11.503   6.189 -0.1122  0.0830  0.0222
 1169PYPI   GL216696   3.843  11.239   6.256  0.2601  0.0721 -0.1222
 1169PYPI   C1A16697   3.409  11.436   6.604  0.1667  0.1705  0.0877
 1169PYPI   C2A16698   3.514  11.318   7.002  0.1011  0.0146 -0.0234
 1169PYPI   D3A16699   3.863  11.329   7.230 -0.2054 -0.0541 -0.0736
 1169PYPI   C4A16700   3.900  11.157   7.655  0.1247 -0.0301 -0.0357
 1169PYPI   C1B16701   3.886  11.198   6.646  0.1639  0.1562 -0.1938
 1169PYPI   C2B16702   4.212  11.256   6.930 -0.0421  0.2062 -0.3985
 1169PYPI   C3B16703   4.304  11.272   7.450 -0.0620 -0.0675  0.1981
 1169PYPI   C4B16704   4.538  11.036   7.848  0.0858  0.2619  0.2161
 1170PYPI    C116705   5.618  13.153   5.789 -0.0412 -0.1516 -0.2443
 1170PYPI    C216706   5.706  12.781   5.672  0.1313 -0.1293 -0.1884
 1170PYPI    C316707   5.917  13.090   5.531  0.1281 -0.0724 -0.0694
 1170PYPI   PO416708   5.606  13.059   6.103  0.0745 -0.1681  0.0858
 1170PYPI   GL116709   5.792  12.841   6.400 -0.2127  0.3149 -0.1880
 1170PYPI   GL216710   5.386  12.793   6.565  0.0429 -0.2040 -0.1239
 1170PYPI   C1A16711   5.768  12.892   6.878 -0.2273 -0.2970 -0.0565
 1170PYPI   C2A16712   5.877  12.766   7.351 -0.0920 -0.1236  0.0023
 1170PYPI   D3A16713   5.903  12.539   7.703  0.1560  0.3307  0.0664
 1170PYPI   C4A16714   6.077  12.126   7.739  0.0203 -0.2860  0.0334
 1170PYPI   C1B16715   5.213  12.460   6.863 -0.1223  0.1043 -0.2261
 1170PYPI   C2B16716   4.951  12.257   7.132 -0.1342  0.1410 -0.4120
 1170PYPI   C3B16717   4.755  12.400   7.491 -0.0559  0.3256  0.2315
 1170PYPI   C4B16718   4.587  12.522   7.939  0.1615  0.2994  0.0002
 1171PYPI    C116719  15.193  15.490   5.982 -0.0041 -0.2139 -0.0883
 1171PYPI    C216720  15.191  15.772   5.698  0.0478 -0.1235  0.0005
 1171PYPI    C316721  15.053  15.405   5.616 -0.2249 -0.0115 -0.0532
 1171PYPI   PO416722  15.068  15.614   6.205 -0.0147  0.0528  0.1758
 1171PYPI   GL116723  14.874  15.515   6.574 -0.0697  0.0866 -0.1913
 1171PYPI   GL216724  15.165  15.456   6.672 -0.0053  0.0738 -0.1164
 1171PYPI   C1A16725  14.603  15.540   6.992  0.1604  0.0523 -0.0262
 1171PYPI   C2A16726  14.438  15.440   7.392  0.1001  0.0795  0.2339
 1171PYPI   D3A16727  14.267  15.332   7.734  0.3123 -0.1598  0.0967
 1171PYPI   C4A16728  13.996  15.493   8.017  0.1503  0.3430 -0.0927
 1171PYPI   C1B16729  15.083  15.394   7.054  0.3207  0.4399 -0.1835
 1171PYPI   C2B16730  14.848  15.122   7.419  0.1348 -0.0621  0.0047
 1171PYPI   C3B16731  14.696  15.025   7.827 -0.1608 -0.0234  0.0557
 1171PYPI   C4B16732  14.731  15.206   8.261 -0.0479  0.3180  0.1672
 1172PYPI    C116733  15.447  16.518   5.833 -0.2116  0.2886  0.2478
 1172PYPI    C216734  15.412  16.695   5.476  0.1022 -0.1135  0.0097
 1172PYPI    C316735  15.772  16.653   5.644 -0.0220 -0.1036  0.2843
 1172PYPI   PO416736  15.242  16.627   6.006  0.0796 -0.0140 -0.0331
 1172PYPI   GL116737  15.265  16.925   6.433 -0.2648  0.4004 -0.0886
 1172PYPI   GL216738  15.008  17.007   6.510  0.1029 -0.1841 -0.2407
 1172PYPI   C1A16739  15.570  16.718   6.754 -0.0763 -0.2330 -0.0158
 1172PYPI   C2A16740  15.375  16.710   7.189 -0.0509 -0.1242 -0.1432
 1172PYPI   D3A16741  15.030  16.638   7.427 -0.0494 -0.2095  0.2596
 1172PYPI   C4A16742  14.878  16.954   7.721 -0.0260  0.0350 -0.2879
 1172PYPI   C1B16743  15.211  17.162   6.976  0.0234  0.1593  0.1687
 1172PYPI   C2B16744  15.224  17.166   7.346 -0.0256  0.1004 -0.1440
 1172PYPI   C3B16745  15.171  17.498   7.581 -0.0593  0.2232 -0.1655
 1172PYPI   C4B16746  15.139  17.682   8.070  0.2010 -0.3529 -0.2662
 1173PYPI    C116747  11.980  11.185   6.146 -0.1145 -0.0061 -0.1150
 1173PYPI    C216748  12.113  11.212   5.770  0.0263  0.1035 -0.0581
 1173PYPI    C316749  11.803  10.975   5.855  0.3271 -0.3379 -0.1552
 1173PYPI   PO416750  12.093  11.439   6.201  0.0110 -0.1085 -0.1248
 1173PYPI   GL116751  12.040  11.529   6.605 -0.1315 -0.1535  0.0607
 1173PYPI   GL216752  11.971  11.885   6.494  0.1062 -0.3379 -0.1959
 1173PYPI   C1A16753  12.369  11.459   6.845  0.2538  0.0719  0.1533
 1173PYPI   C2A16754  12.504  11.716   7.157 -0.1833  0.0723  0.2384
 1173PYPI   D3A16755  12.752  11.886   7.410  0.2858  0.0963  0.0733
 1173PYPI   C4A16756  12.825  11.929   7.865 -0.1752 -0.1754 -0.0965
 1173PYPI   C1B16757  12.075  11.922   6.967 -0.1400  0.0229  0.2126
 1173PYPI   C2B16758  12.108  12.196   7.261  0.3591 -0.4826 -0.0077
 1173PYPI   C3B16759  12.067  12.305   7.631 -0.1496  0.0989 -0.2803
 1173PYPI   C4B16760  11.984  12.661   7.902  0.0136 -0.3586  0.1593
 1174PYPI    C116761  10.543   2.168   5.597 -0.0609 -0.2189  0.1126
 1174PYPI    C216762  10.624   2.454   5.865  0.2014 -0.2420  0.0610
 1174PYPI    C316763  10.312   2.494   5.617  0.2787  0.0342  0.0048
 1174PYPI   PO416764  10.756   1.973   5.690 -0.1164  0.1499 -0.1734
 1174PYPI   GL116765  10.842   2.102   6.157  0.0780  0.0336  0.2492
 1174PYPI   GL216766  11.002   2.173   6.311  0.0107  0.1475  0.0173
 1174PYPI   C1A16767  10.568   2.426   6.373 -0.0530  0.0816 -0.0147
 1174PYPI   C2A16768  10.688   2.573   6.813  0.0161 -0.0800 -0.0309
 1174PYPI   D3A16769  10.696   2.574   7.236  0.0906 -0.1092  0.1147
 1174PYPI   C4A16770  10.673   2.430   7.691 -0.1448  0.1080  0.1742
 1174PYPI   C1B16771  10.916   2.145   6.754 -0.2883  0.2105 -0.0784
 1174PYPI   C2B16772  11.082   2.252   7.113 -0.1116 -0.1407  0.1704
 1174PYPI   C3B16773  11.178   2.410   7.597  0.2676  0.3454 -0.2850
 1174PYPI   C4B16774  11.023   2.397   8.047 -0.0680 -0.2107  0.1708
 1175PYPI    C116775  11.841  17.850   5.815 -0.1844 -0.0268  0.2042
 1175PYPI    C216776  11.821  17.550   5.552  0.0582  0.0800  0.0598
 1175PYPI    C316777  11.722  17.921   5.440  0.1688  0.1274  0.1166
 1175PYPI   PO416778  12.064  17.704   5.990  0.3343  0.1746 -0.1370
 1175PYPI   GL116779  12.255  17.904   6.383  0.2260 -0.4190  0.0179
 1175PYPI   GL216780  11.981  18.042   6.415  0.1448 -0.0798 -0.0652
 1175PYPI   C1A16781  12.167  17.852   6.829  0.1596 -0.0291  0.1057
 1175PYPI   C2A16782  12.068  17.894   7.282 -0.2087  0.2299  0.2052
 1175PYPI   D3A16783  11.966  18.111   7.705 -0.1664 -0.1017  0.2296
 1175PYPI   C4A16784  11.822  17.880   7.974 -0.2703  0.1005 -0.1330
 1175PYPI   C1B16785  11.749  18.048   6.818 -0.1885 -0.1440 -0.1425
 1175PYPI   C2B16786  11.593  18.172   7.178 -0.0746 -0.0975  0.3021
 1175PYPI   C3B16787  11.564  18.474   7.490  0.0809 -0.1747  0.1602
 1175PYPI   C4B16788  11.631  18.386   7.939 -0.3057  0.1449  0.2769
 1176PYPI    C116789  13.849   1.553   5.457 -0.1522  0.0667 -0.1601
 1176PYPI    C216790  14.212   1.707   5.391 -0.2267  0.3701  0.1112
 1176PYPI    C316791  13.956   1.661   5.087  0.0611  0.0827 -0.0948
 1176PYPI   PO416792  13.818   1.648   5.768  0.1340 -0.1890 -0.0904
 1176PYPI   GL116793  13.783   1.608   6.219  0.4299  0.1084  0.2524
 1176PYPI   GL216794  14.074   1.437   6.216  0.0138 -0.1333  0.3212
 1176PYPI   C1A16795  13.955   1.819   6.571  0.0508  0.1414 -0.0824
 1176PYPI   C2A16796  14.233   1.883   6.895  0.0278  0.4208  0.0636
 1176PYPI   D3A16797  14.259   1.748   7.299 -0.3059 -0.1654 -0.2281
 1176PYPI   C4A16798  14.449   1.453   7.623  0.0992  0.2660 -0.1133
 1176PYPI   C1B16799  14.168   1.368   6.681  0.2367 -0.1028 -0.0319
 1176PYPI   C2B16800  14.378   1.309   7.058  0.2135 -0.1687  0.1719
 1176PYPI   C3B16801  14.725   1.207   7.287 -0.1184 -0.0590  0.2806
 1176PYPI   C4B16802  14.964   1.207   7.619 -0.0882 -0.0993 -0.2160
 1177PYPI    C116803  17.864  17.367   5.865  0.0956  0.0238  0.0056
 1177PYPI    C216804  17.848  17.442   5.472  0.2202 -0.0400 -0.0123
 1177PYPI    C316805  17.513  17.451   5.691  0.1645  0.0931 -0.1011
 1177PYPI   PO416806  18.066  17.507   5.935  0.0699  0.2716 -0.1490
 1177PYPI   GL116807  17.988  17.688   6.315  0.2128 -0.1198 -0.1118
 1177PYPI   GL216808  18.372  17.604   6.355  0.0537 -0.1268 -0.0006
 1177PYPI   C1A16809  17.742  17.642   6.763 -0.0364 -0.1567 -0.3598
 1177PYPI   C2A16810  17.436  17.593   7.039 -0.1060 -0.2172  0.1518
 1177PYPI   D3A16811  17.070  17.494   7.284 -0.1774 -0.1925  0.0393
 1177PYPI   C4A16812  16.860  17.564   6.931 -0.1195  0.1254  0.0950
 1177PYPI   C1B16813  18.354  17.412   6.677  0.2378  0.0141 -0.2133
 1177PYPI   C2B16814  18.353  17.331   7.114  0.2258  0.1035 -0.2018
 1177PYPI   C3B16815  18.494  17.336   7.509 -0.0922 -0.3818 -0.1275
 1177PYPI   C4B16816  18.766  17.340   7.834 -0.1401  0.1309 -0.1981
 1178PYPI    C116817  15.194   1.137   5.440  0.0621  0.0835 -0.2171
 1178PYPI    C216818  15.589   1.073   5.438  0.0522 -0.0017  0.0754
 1178PYPI    C316819  15.339   0.785   5.318  0.0874  0.1482 -0.3766
 1178PYPI   PO416820  15.110   1.186   5.676 -0.1887 -0.1754 -0.0154
 1178PYPI   GL116821  14.905   1.042   5.971  0.1381 -0.1607  0.0338
 1178PYPI   GL216822  14.624   0.992   5.942 -0.0388  0.0310  0.3463
 1178PYPI   C1A16823  15.121   1.274   6.381  0.1037  0.2318 -0.1075
 1178PYPI   C2A16824  15.528   1.295   6.538 -0.1792 -0.0674  0.0564
 1178PYPI   D3A16825  15.972   1.396   6.746 -0.0714  0.0035 -0.1083
 1178PYPI   C4A16826  16.117   1.627   6.997 -0.1984 -0.1457  0.0261
 1178PYPI   C1B16827  14.537   1.244   6.347  0.0040 -0.1299 -0.0996
 1178PYPI   C2B16828  14.652   1.481   6.657  0.0619 -0.0150 -0.3718
 1178PYPI   C3B16829  14.684   1.676   7.032 -0.2251  0.1041 -0.2023
 1178PYPI   C4B16830  14.836   1.716   7.404 -0.1466 -0.0806  0.2214
 1179PYPI    C116831  11.071   0.784   5.836  0.3115 -0.2114  0.0412
 1179PYPI    C216832  10.828   0.740   5.521 -0.1477 -0.0175  0.3559
 1179PYPI    C316833  11.135   0.996   5.503 -0.1451 -0.0383  0.0565
 1179PYPI   PO416834  11.168   0.544   5.925  0.3067  0.0087 -0.4311
 1179PYPI   GL116835  11.059   0.260   6.219 -0.1666 -0.0388 -0.1020
 1179PYPI   GL216836  10.853   0.300   6.403 -0.1660 -0.0238 -0.2554
 1179PYPI   C1A16837  11.388   0.004   6.433 -0.1714 -0.0198  0.3627
 1179PYPI   C2A16838  11.422  -0.367   6.735  0.1801 -0.1855  0.0000
 1179PYPI   D3A16839  11.354  -0.440   7.195 -0.0393  0.1216 -0.1730
 1179PYPI   C4A16840  11.584  -0.343   7.500 -0.2949 -0.2308 -0.0664
 1179PYPI   C1B16841  10.935   0.393   6.884 -0.0818 -0.0441 -0.2238
 1179PYPI   C2B16842  10.997   0.378   7.248 -0.0735  0.1633  0.0551
 1179PYPI   C3B16843  11.112   0.368   7.749 -0.3256  0.2078 -0.0496
 1179PYPI   C4B16844  10.848   0.258   8.060  0.0310  0.0355 -0.1484
 1180ERGO   ROH16845   8.876   6.869   6.080 -0.0292 -0.3678  0.0825
 1180ERGO    R116846   8.945   6.784   6.341  0.2715 -0.1569  0.0752
 1180ERGO    R216847   9.150   6.898   6.485  0.0558  0.3663 -0.0265
 1180ERGO    R316848   8.956   6.932   6.673  0.0380 -0.0601  0.0449
 1180ERGO    R416849   9.188   6.831   6.822  0.2578  0.2117 -0.0765
 1180ERGO    R516850   8.986   6.748   6.823  0.3787 -0.1192 -0.0763
 1180ERGO    C116851   9.028   6.824   7.195  0.3589 -0.2786 -0.0386
 1180ERGO    C216852   8.985   6.902   7.577 -0.1525 -0.0484  0.0089
 1181ERGO   ROH16853   1.678  13.867   6.433 -0.0287 -0.3139  0.0078
 1181ERGO    R116854   1.765  13.965   6.684 -0.0566 -0.1000 -0.0649
 1181ERGO    R216855   1.612  13.942   6.913  0.0386 -0.1556 -0.0130
 1181ERGO    R316856   1.836  13.824   7.013  0.1973  0.1348 -0.0142
 1181ERGO    R416857   1.659  13.856   7.245 -0.0208 -0.4340 -0.0731
 1181ERGO    R516858   1.866  13.925   7.228 -0.1211 -0.0374  0.1223
 1181ERGO    C116859   1.897  13.696   7.531  0.0936 -0.3235 -0.1093
 1181ERGO    C216860   1.846  13.652   7.930 -0.3923 -0.1076 -0.1037
 1182ERGO   ROH16861   0.838  16.641   6.479  0.2214  0.0418  0.1669
 1182ERGO    R116862   0.715  16.742   6.713  0.1630  0.0229  0.1441
 1182ERGO    R216863   0.636  16.579   6.922  0.1688  0.0146  0.1367
 1182ERGO    R316864   0.789  16.749   7.069  0.1060  0.0549  0.1565
 1182ERGO    R416865   0.573  16.670   7.250  0.1814 -0.1270  0.1791
 1182ERGO    R516866   0.632  16.874   7.200  0.0583 -0.0742  0.2287
 1182ERGO    C116867   0.680  16.883   7.578  0.1297 -0.1715  0.2224
 1182ERGO    C216868   0.692  16.833   7.897 -0.0123  0.0459 -0.2054
 1183ERGO   ROH16869  10.606  15.345   6.294 -0.0435 -0.0827  0.0854
 1183ERGO    R116870  10.475  15.345   6.545 -0.3408  0.1177 -0.0653
 1183ERGO    R216871  10.613  15.344   6.786 -0.6153 -0.2806  0.0949
 1183ERGO    R316872  10.462  15.564   6.836 -0.1881  0.0497 -0.0048
 1183ERGO    R416873  10.573  15.491   7.096 -0.3351 -0.0645  0.0327
 1183ERGO    R516874  10.363  15.522   7.050 -0.2831  0.3323  0.0134
 1183ERGO    C116875  10.409  15.784   7.323  0.2291  0.3714 -0.0971
 1183ERGO    C216876  10.343  15.860   7.674 -0.0762  0.0509  0.2405
 1184ERGO   ROH16877  15.693  16.439  10.036  0.0113 -0.0911  0.0425
 1184ERGO    R116878  15.732  16.402   9.758 -0.0903 -0.0084  0.0174
 1184ERGO    R216879  15.662  16.169   9.627  0.0054 -0.0270  0.0044
 1184ERGO    R316880  15.522  16.339   9.467 -0.1802 -0.0878  0.0982
 1184ERGO    R416881  15.609  16.123   9.289  0.0032  0.0679 -0.0092
 1184ERGO    R516882  15.641  16.337   9.260 -0.2038  0.1157  0.0786
 1184ERGO    C116883  15.447  16.255   8.941 -0.1725  0.0661  0.0711
 1184ERGO    C216884  15.327  16.043   8.730  0.1371  0.0720  0.3530
 1185ERGO   ROH16885  12.152   2.222   6.455  0.1026  0.0307  0.0867
 1185ERGO    R116886  12.082   2.212   6.729 -0.0037 -0.0725  0.0562
 1185ERGO    R216887  12.258   2.127   6.924 -0.0651 -0.1039  0.0972
 1185ERGO    R316888  12.197   2.367   7.037 -0.1539 -0.1521  0.1539
 1185ERGO    R416889  12.231   2.184   7.264  0.0832 -0.1572  0.1188
 1185ERGO    R516890  12.058   2.311   7.224 -0.0195 -0.2593  0.2244
 1185ERGO    C116891  12.158   2.442   7.568  0.0863 -0.2335  0.1847
 1185ERGO    C216892  12.206   2.493   7.885 -0.2566 -0.0302  0.0693
 1186ERGO   ROH16893  12.311  13.009   6.417  0.1236  0.0642  0.0242
 1186ERGO    R116894  12.178  13.197   6.582  0.2768  0.2749 -0.0865
 1186ERGO    R216895  12.091  13.135   6.837 -0.0521  0.4002 -0.1641
 1186ERGO    R316896  12.238  13.353   6.906  0.2461  0.1636 -0.0264
 1186ERGO    R416897  12.162  13.231   7.161 -0.3763  0.3880 -0.0858
 1186ERGO    R516898  12.130  13.438   7.101  0.0904  0.4333 -0.2223
 1186ERGO    C116899  12.341  13.492   7.414 -0.2851  0.1588  0.0890
 1186ERGO    C216900  12.565  13.626   7.730 -0.3139 -0.0071 -0.2099
 1187ERGO   ROH16901  13.365  13.487   6.206 -0.1454  0.0230  0.0565
 1187ERGO    R116902  13.563  13.491   6.408 -0.0155  0.0574 -0.0708
 1187ERGO    R216903  13.604  13.710   6.573  0.0355  0.0520 -0.0825
 1187ERGO    R316904  13.571  13.526   6.770  0.2130  0.0313 -0.0701
 1187ERGO    R416905  13.658  13.768   6.909  0.0853  0.1060 -0.0995
 1187ERGO    R516906  13.748  13.571   6.924  0.2280  0.1626 -0.1184
 1187ERGO    C116907  13.659  13.629   7.290  0.2809  0.1179 -0.0979
 1187ERGO    C216908  13.649  13.534   7.582 -0.1766  0.0430  0.1370
 1188ERGO   ROH16909  12.037   8.586   6.284 -0.0021 -0.0074 -0.1084
 1188ERGO    R116910  12.137   8.536   6.544  0.1002 -0.0006 -0.1450
 1188ERGO    R216911  12.120   8.722   6.747  0.2198  0.0243 -0.1509
 1188ERGO    R316912  12.000   8.517   6.880  0.2374  0.0570 -0.0867
 1188ERGO    R416913  12.080   8.707   7.090  0.0662  0.2024 -0.1607
 1188ERGO    R516914  12.129   8.495   7.082  0.1501  0.2193 -0.0148
 1188ERGO    C116915  11.943   8.507   7.415 -0.0067  0.3366 -0.1061
 1188ERGO    C216916  12.057   8.499   7.753  0.3115 -0.0468 -0.0127
 1189ERGO   ROH16917   5.999  17.870  10.141 -0.1399 -0.2160 -0.1761
 1189ERGO    R116918   5.911  17.845   9.873 -0.1504 -0.1646 -0.1776
 1189ERGO    R216919   5.799  18.056   9.733 -0.1384 -0.1318 -0.1394
 1189ERGO    R316920   5.994  17.997   9.553 -0.1483 -0.1178 -0.1547
 1189ERGO    R416921   5.791  18.142   9.398 -0.0455  0.1064 -0.0828
 1189ERGO    R516922   5.875  17.946   9.351 -0.1512  0.0902 -0.2074
 1189ERGO    C116923   5.969  18.137   9.034 -0.0007  0.2584 -0.0640
 1189ERGO    C216924   5.948  18.278   8.739  0.0082 -0.2230 -0.1456
 1190ERGO   ROH16925   8.495   5.970   5.926  0.3085  0.4115  0.1408
 1190ERGO    R116926   8.479   5.827   6.170 -0.0716  0.3555  0.0887
 1190ERGO    R216927   8.703   5.738   6.305 -0.2940 -0.0820  0.1808
 1190ERGO    R316928   8.592   5.875   6.512 -0.1661  0.0450  0.1678
 1190ERGO    R416929   8.780   5.689   6.638 -0.2970 -0.0935  0.1801
 1190ERGO    R516930   8.569   5.711   6.686 -0.2807  0.0862  0.1969
 1190ERGO    C116931   8.721   5.788   7.027 -0.1787  0.0190  0.1674
 1190ERGO    C216932   8.900   5.769   7.357 -0.1301  0.2173 -0.1779
 1191ERGO   ROH16933   4.711  12.377   6.265 -0.0857  0.1147 -0.0412
 1191ERGO    R116934   4.766  12.444   6.535  0.0874  0.1163 -0.0748
 1191ERGO    R216935   4.826  12.702   6.615 -0.0635  0.1598 -0.0822
 1191ERGO    R316936   4.620  12.661   6.788  0.1142 -0.0495  0.0822
 1191ERGO    R416937   4.803  12.840   6.931 -0.0183  0.2380 -0.1139
 1191ERGO    R516938   4.725  12.650   7.003  0.2827  0.1619  0.0105
 1191ERGO    C116939   4.597  12.882   7.278  0.1749  0.0871  0.0220
 1191ERGO    C216940   4.556  12.894   7.595 -0.2715  0.2756 -0.1615
 1192ERGO   ROH16941   1.147   4.923   6.319  0.1835  0.0098  0.0605
 1192ERGO    R116942   1.006   4.876   6.560  0.1173  0.0639  0.0338
 1192ERGO    R216943   1.100   4.706   6.756 -0.0372 -0.0594  0.0090
 1192ERGO    R316944   1.067   4.924   6.915  0.1173 -0.0660  0.0506
 1192ERGO    R416945   1.054   4.695   7.098 -0.5036 -0.1215 -0.0500
 1192ERGO    R516946   0.906   4.854   7.079 -0.2165  0.1341 -0.1841
 1192ERGO    C116947   0.996   4.892   7.447 -0.6302 -0.1639 -0.0453
 1192ERGO    C216948   1.029   5.120   7.704  0.1641 -0.0698 -0.0026
 1193ERGO   ROH16949  14.447   2.077  10.072 -0.1230  0.0059  0.1166
 1193ERGO    R116950  14.392   2.171   9.810  0.0758  0.0338  0.0841
 1193ERGO    R216951  14.575   2.152   9.604  0.0982 -0.2790  0.1337
 1193ERGO    R316952  14.369   2.027   9.477 -0.0596 -0.0040  0.1075
 1193ERGO    R416953  14.562   2.087   9.265  0.1547 -0.4333  0.1598
 1193ERGO    R516954  14.351   2.140   9.267  0.2323 -0.0737  0.0357
 1193ERGO    C116955  14.362   1.931   8.948  0.0393 -0.2649  0.1505
 1193ERGO    C216956  14.530   1.764   8.725 -0.1830  0.0936 -0.0021
 1194ERGO   ROH16957   2.406  17.376   6.081  0.0919  0.0432 -0.0641
 1194ERGO    R116958   2.311  17.480   6.327  0.2340 -0.0220  0.0200
 1194ERGO    R216959   2.082  17.387   6.450  0.0649  0.2325 -0.0907
 1194ERGO    R316960   2.249  17.352   6.662 -0.0053 -0.2281 -0.1003
 1194ERGO    R416961   1.981  17.361   6.780  0.0028  0.3613 -0.0993
 1194ERGO    R516962   2.151  17.484   6.837  0.2987 -0.0500 -0.0585
 1194ERGO    C116963   2.078  17.314   7.170 -0.0992  0.0042 -0.1134
 1194ERGO    C216964   2.095  17.092   7.395 -0.2815  0.0540  0.0129
 1195ERGO   ROH16965   8.580   7.575   9.883  0.0922  0.1232 -0.1069
 1195ERGO    R116966   8.636   7.499   9.616  0.0392 -0.0315 -0.0762
 1195ERGO    R216967   8.447   7.509   9.415  0.0296 -0.0268 -0.0758
 1195ERGO    R316968   8.635   7.660   9.290  0.1038 -0.1796 -0.1482
 1195ERGO    R416969   8.474   7.545   9.073  0.0552 -0.1920 -0.0910
 1195ERGO    R516970   8.691   7.534   9.094  0.0430 -0.2903 -0.0890
 1195ERGO    C116971   8.667   7.707   8.755  0.1396 -0.4316 -0.1680
 1195ERGO    C216972   8.496   7.680   8.451 -0.0182  0.1374 -0.0513
 1196ERGO   ROH16973   6.676   7.519   6.047  0.1588 -0.2557 -0.4375
 1196ERGO    R116974   6.742   7.360   6.272  0.1012 -0.1755 -0.3629
 1196ERGO    R216975   6.998   7.269   6.320  0.1183 -0.0478 -0.1924
 1196ERGO    R316976   6.961   7.389   6.561 -0.0792 -0.0085 -0.2408
 1196ERGO    R416977   7.142   7.167   6.617 -0.0188  0.0854 -0.0787
 1196ERGO    R516978   6.954   7.208   6.718 -0.0965  0.0273 -0.2028
 1196ERGO    C116979   7.191   7.220   7.016 -0.2839  0.1999 -0.0579
 1196ERGO    C216980   7.344   7.130   7.328  0.2346  0.3489  0.2898
 1197ERGO   ROH16981   7.338  13.251   6.316 -0.0920 -0.0826  0.0516
 1197ERGO    R116982   7.298  13.127   6.568  0.0028 -0.0599  0.0782
 1197ERGO    R216983   7.498  12.986   6.698  0.0883  0.0560  0.0733
 1197ERGO    R316984   7.440  13.156   6.902  0.0375  0.0624  0.0535
 1197ERGO    R416985   7.588  12.936   7.027  0.0395  0.0821  0.0905
 1197ERGO    R516986   7.392  13.012   7.087  0.0210  0.0668  0.0538
 1197ERGO    C116987   7.586  13.066   7.411 -0.0366  0.1031  0.0820
 1197ERGO    C216988   7.595  13.118   7.715 -0.1022  0.0191  0.1753
 1198ERGO   ROH16989   9.460   0.385  10.231  0.1574 -0.1736  0.0029
 1198ERGO    R116990   9.492   0.234   9.993  0.1468 -0.1700 -0.0027
 1198ERGO    R216991   9.282   0.100   9.873  0.1279 -0.1347 -0.0239
 1198ERGO    R316992   9.359   0.243   9.655  0.1648 -0.1324 -0.0073
 1198ERGO    R416993   9.211   0.015   9.545  0.4760 -0.3073 -0.0578
 1198ERGO    R516994   9.412   0.077   9.490  0.4583 -0.1312  0.0867
 1198ERGO    C116995   9.241   0.100   9.150  0.7134 -0.4057 -0.0620
 1198ERGO    C216996   9.144   0.257   8.779  0.1343  0.0785 -0.0808
 1199ERGO   ROH16997  13.316   8.225  10.111 -0.0459 -0.2080 -0.0143
 1199ERGO    R116998  13.415   8.239   9.847 -0.0604 -0.1909 -0.0185
 1199ERGO    R216999  13.304   8.095   9.638 -0.0808 -0.1658 -0.0237
 1199ERGO    R317000  13.287   8.340   9.521 -0.0727 -0.1547 -0.0023
 1199ERGO    R417001  13.254   8.151   9.301 -0.1809 -0.1320 -0.0042
 1199ERGO    R517002  13.397   8.314   9.311 -0.1468 -0.1606 -0.0405
 1199ERGO    C117003  13.209   8.413   8.995 -0.2316 -0.1018  0.0271
 1199ERGO    C217004  13.024   8.319   8.677  0.1606  0.2155 -0.0273
 1200ERGO   ROH17005  10.584  11.143  10.113  0.1804  0.0249  0.0422
 1200ERGO    R117006  10.659  10.942   9.929 -0.0324 -0.0135 -0.0064
 1200ERGO    R217007  10.487  10.843   9.737 -0.1332  0.2312 -0.0469
 1200ERGO    R317008  10.687  10.911   9.567 -0.0414  0.0528 -0.0125
 1200ERGO    R417009  10.471  10.819   9.393 -0.0375  0.1051 -0.0430
 1200ERGO    R517010  10.677  10.747   9.393 -0.0773 -0.0094  0.0488
 1200ERGO    C117011  10.651  10.869   9.032  0.1046 -0.1356 -0.0084
 1200ERGO    C217012  10.428  10.823   8.683 -0.2172 -0.1687 -0.1978
 1201ERGO   ROH17013   4.848  14.206   6.341 -0.1496  0.0982  0.0682
 1201ERGO    R117014   4.749  14.182   6.605 -0.1384 -0.0710  0.0574
 1201ERGO    R217015   4.910  14.112   6.818 -0.0742  0.0582  0.0457
 1201ERGO    R317016   4.811  14.341   6.926 -0.3336 -0.0751  0.1001
 1201ERGO    R417017   4.926  14.194   7.153  0.1847  0.1518  0.0130
 1201ERGO    R517018   4.722  14.273   7.138  0.0224 -0.1856  0.2255
 1201ERGO    C117019   4.842  14.457   7.450  0.0918  0.0811  0.0452
 1201ERGO    C217020   4.741  14.483   7.720  0.1369  0.0100  0.0804
 1202ERGO   ROH17021   8.225   4.200   9.831  0.1979 -0.1814  0.0069
 1202ERGO    R117022   8.166   4.311   9.577  0.2907  0.0731  0.0944
 1202ERGO    R217023   8.356   4.439   9.423  0.4899 -0.2676  0.0530
 1202ERGO    R317024   8.277   4.260   9.234 -0.0162 -0.0104  0.0038
 1202ERGO    R417025   8.420   4.469   9.085  0.3065 -0.2070  0.0219
 1202ERGO    R517026   8.217   4.396   9.046  0.1178  0.2228  0.1234
 1202ERGO    C117027   8.382   4.319   8.710 -0.2754  0.0697 -0.0423
 1202ERGO    C217028   8.496   4.233   8.446 -0.0307  0.0219 -0.0050
 1203ERGO   ROH17029   0.725   8.965   6.660 -0.3113 -0.0198 -0.1955
 1203ERGO    R117030   0.863   8.941   6.905 -0.1785 -0.0220 -0.2708
 1203ERGO    R217031   0.834   9.124   7.110 -0.0301 -0.0004 -0.2753
 1203ERGO    R317032   0.774   8.902   7.256  0.0133  0.0264 -0.2141
 1203ERGO    R417033   0.842   9.107   7.456 -0.2762  0.1814 -0.2569
 1203ERGO    R517034   0.930   8.908   7.439 -0.1211  0.2271 -0.0961
 1203ERGO    C117035   0.791   8.889   7.793 -0.3787  0.3123 -0.1886
 1203ERGO    C217036   1.038   8.968   8.165 -0.1594  0.1536 -0.2752
 1204ERGO   ROH17037  11.745   2.228   9.709 -0.1213 -0.0597  0.0841
 1204ERGO    R117038  11.685   2.314   9.446 -0.2200 -0.2455  0.0444
 1204ERGO    R217039  11.854   2.477   9.301 -0.4406 -0.0510  0.0048
 1204ERGO    R317040  11.834   2.279   9.116 -0.1305 -0.1531  0.0734
 1204ERGO    R417041  11.854   2.526   8.959 -0.5159 -0.1633 -0.0123
 1204ERGO    R517042  11.698   2.374   8.942 -0.2836 -0.4185  0.0384
 1204ERGO    C117043  11.835   2.369   8.586 -0.2685 -0.3245  0.0422
 1204ERGO    C217044  11.864   2.539   8.381 -0.0491 -0.0401 -0.0456
 1205ERGO   ROH17045   5.714  11.016   6.090 -0.1199  0.1376  0.0331
 1205ERGO    R117046   5.596  10.936   6.334 -0.0476  0.0679  0.0451
 1205ERGO    R217047   5.744  10.870   6.557  0.0148  0.1753  0.0338
 1205ERGO    R317048   5.589  11.058   6.677 -0.1016  0.0769  0.0414
 1205ERGO    R417049   5.660  10.870   6.892  0.1773  0.2155  0.0765
 1205ERGO    R517050   5.459  10.934   6.835  0.0879  0.0105  0.1501
 1205ERGO    C117051   5.465  11.047   7.200  0.1627  0.1466  0.1086
 1205ERGO    C217052   5.565  10.825   7.461 -0.2073 -0.1565  0.2859
 1206ERGO   ROH17053   1.832  16.070  10.206 -0.3198  0.0774 -0.0461
 1206ERGO    R117054   1.806  16.130   9.931 -0.0932  0.1846 -0.0465
 1206ERGO    R217055   1.982  16.297   9.798  0.1666  0.0418  0.1032
 1206ERGO    R317056   2.007  16.084   9.630  0.0413  0.0587  0.0619
 1206ERGO    R417057   2.147  16.304   9.494  0.3305 -0.0464  0.1893
 1206ERGO    R517058   1.988  16.179   9.411  0.2489  0.1331  0.0757
 1206ERGO    C117059   2.267  16.108   9.160  0.3082 -0.0820  0.2006
 1206ERGO    C217060   2.434  16.099   8.931 -0.1209  0.0651  0.1241
 1207ERGO   ROH17061   8.711   0.604   6.418 -0.1599 -0.1171 -0.1734
 1207ERGO    R117062   8.678   0.590   6.698 -0.2632  0.1801 -0.1677
 1207ERGO    R217063   8.432   0.620   6.820 -0.3535  0.0317 -0.3158
 1207ERGO    R317064   8.493   0.380   6.932 -0.1116  0.2354  0.0048
 1207ERGO    R417065   8.251   0.469   7.072 -0.4910 -0.0265 -0.4472
 1207ERGO    R517066   8.439   0.408   7.164 -0.5147  0.3760 -0.0952
 1207ERGO    C117067   8.203   0.155   7.325 -0.3439  0.1307 -0.2228
 1207ERGO    C217068   8.051  -0.131   7.319 -0.0780  0.1998  0.0151
 1208ERGO   ROH17069  15.961   6.391   6.492  0.0567 -0.2927 -0.0005
 1208ERGO    R117070  15.847   6.477   6.736  0.0439 -0.2032 -0.0387
 1208ERGO    R217071  15.696   6.311   6.897  0.0166 -0.1350 -0.0004
 1208ERGO    R317072  15.875   6.386   7.087  0.0036 -0.0902 -0.0046
 1208ERGO    R417073  15.646   6.283   7.238 -0.0762  0.0817  0.0061
 1208ERGO    R517074  15.740   6.478   7.263 -0.0068  0.0653 -0.0875
 1208ERGO    C117075  15.785   6.337   7.615 -0.1426  0.2501  0.0060
 1208ERGO    C217076  15.772   6.350   7.957  0.0612  0.0180 -0.1537
 1209ERGO   ROH17077  15.817  13.483  10.552  0.1707 -0.0220 -0.0314
 1209ERGO    R117078  15.679  13.438  10.309  0.1580 -0.0559 -0.0212
 1209ERGO    R217079  15.693  13.614  10.095 -0.0141  0.0265  0.0153
 1209ERGO    R317080  15.769  13.390   9.960  0.1399  0.1177 -0.0466
 1209ERGO    R417081  15.644  13.560   9.757 -0.0247  0.0339  0.0179
 1209ERGO    R517082  15.593  13.353   9.802  0.1554 -0.0034 -0.0190
 1209ERGO    C117083  15.685  13.319   9.434  0.1136  0.1238 -0.0387
 1209ERGO    C217084  15.605  13.305   9.207 -0.1070 -0.1296 -0.1676
 1210ERGO   ROH17085  15.192   7.169   6.302  0.1668 -0.1762  0.0377
 1210ERGO    R117086  15.038   7.199   6.538 -0.0516 -0.1703 -0.1031
 1210ERGO    R217087  14.873   7.000   6.634  0.1664 -0.3213 -0.0385
 1210ERGO    R317088  15.017   7.035   6.862 -0.0490  0.1068  0.0410
 1210ERGO    R417089  14.749   6.959   6.954  0.0174 -0.3393 -0.0976
 1210ERGO    R517090  14.862   7.135   7.015 -0.3517 -0.0757 -0.1329
 1210ERGO    C117091  14.812   6.969   7.354 -0.2715  0.0521 -0.0574
 1210ERGO    C217092  14.852   6.953   7.788 -0.1949  0.2598  0.0487
 1211ERGO   ROH17093  12.958   2.362   9.630  0.1151  0.0315  0.0478
 1211ERGO    R117094  12.986   2.283   9.359  0.0660  0.0520  0.0360
 1211ERGO    R217095  12.780   2.168   9.215  0.1072 -0.1600  0.1351
 1211ERGO    R317096  12.833   2.370   9.041 -0.1753 -0.1072  0.1071
 1211ERGO    R417097  12.729   2.153   8.874  0.0303 -0.2331  0.1501
 1211ERGO    R517098  12.917   2.260   8.846 -0.1022 -0.0175  0.0906
 1211ERGO    C117099  12.748   2.333   8.511 -0.2797 -0.2260  0.1324
 1211ERGO    C217100  12.805   2.432   8.131  0.4623  0.2470  0.2605
 1212ERGO   ROH17101   5.859   8.095   9.652  0.1974 -0.0018  0.0167
 1212ERGO    R117102   5.759   7.940   9.437  0.1112  0.0917 -0.0097
 1212ERGO    R217103   5.561   8.031   9.267  0.1910  0.2443 -0.0097
 1212ERGO    R317104   5.743   7.969   9.074  0.1594  0.1420 -0.0101
 1212ERGO    R417105   5.484   7.953   8.939  0.1321  0.2229  0.0076
 1212ERGO    R517106   5.637   7.799   8.944  0.0773  0.1580  0.0248
 1212ERGO    C117107   5.610   7.851   8.567  0.0680  0.1143  0.0173
 1212ERGO    C217108   5.351   7.929   8.307 -0.4636  0.0060 -0.2061
 1213ERGO   ROH17109   4.303   6.305   6.140  0.0937  0.0425 -0.0540
 1213ERGO    R117110   4.276   6.365   6.415 -0.0253  0.1240 -0.0824
 1213ERGO    R217111   4.168   6.186   6.596 -0.1396  0.1910 -0.0804
 1213ERGO    R317112   4.402   6.230   6.728 -0.1925  0.1901  0.0140
 1213ERGO    R417113   4.204   6.185   6.940 -0.2222 -0.0691 -0.0700
 1213ERGO    R517114   4.338   6.356   6.922 -0.2949  0.0058  0.1014
 1213ERGO    C117115   4.444   6.226   7.264 -0.3200 -0.2214  0.0246
 1213ERGO    C217116   4.503   6.334   7.571 -0.2670  0.0517 -0.1386
 1214ERGO   ROH17117  16.386   1.382   5.936 -0.0021 -0.0739 -0.0050
 1214ERGO    R117118  16.528   1.475   6.163 -0.0785  0.0048  0.0107
 1214ERGO    R217119  16.410   1.634   6.357 -0.2082 -0.1178  0.0327
 1214ERGO    R317120  16.500   1.440   6.524 -0.0545 -0.0717  0.0058
 1214ERGO    R417121  16.481   1.679   6.692  0.1452 -0.0088 -0.0522
 1214ERGO    R517122  16.656   1.551   6.667  0.1092 -0.0367 -0.1922
 1214ERGO    C117123  16.606   1.522   7.045  0.4954  0.0980 -0.1268
 1214ERGO    C217124  16.660   1.448   7.334  0.0165 -0.0546 -0.0500
 1215ERGO   ROH17125   1.640   5.726   6.264 -0.2885 -0.0381  0.0044
 1215ERGO    R117126   1.584   5.700   6.540 -0.1125 -0.0356  0.0416
 1215ERGO    R217127   1.752   5.567   6.714  0.0133 -0.0074 -0.0583
 1215ERGO    R317128   1.741   5.800   6.853  0.0705 -0.0049 -0.0583
 1215ERGO    R417129   1.712   5.590   7.056  0.0047 -0.0029 -0.0599
 1215ERGO    R517130   1.578   5.759   7.024  0.0506  0.0354 -0.0655
 1215ERGO    C117131   1.678   5.822   7.386  0.0534  0.0021 -0.0608
 1215ERGO    C217132   1.867   5.930   7.730 -0.0478  0.0973 -0.1723
 1216ERGO   ROH17133  16.437   6.211   6.140  0.1010 -0.1474 -0.0729
 1216ERGO    R117134  16.478   6.091   6.393  0.0651 -0.1230 -0.0554
 1216ERGO    R217135  16.729   6.064   6.506  0.0366 -0.0024  0.0374
 1216ERGO    R317136  16.612   6.192   6.715 -0.1011 -0.0529 -0.0072
 1216ERGO    R417137  16.838   6.047   6.833 -0.0799  0.0470  0.0793
 1216ERGO    R517138  16.630   6.037   6.897 -0.1013 -0.0453 -0.0001
 1216ERGO    C117139  16.792   6.158   7.221 -0.2770  0.0285  0.0619
 1216ERGO    C217140  16.950   6.159   7.478  0.3258  0.1782  0.0384
 1217ERGO   ROH17141  14.075   9.361  10.040  0.0277  0.0945  0.0889
 1217ERGO    R117142  14.025   9.258   9.781 -0.0289  0.0308  0.1247
 1217ERGO    R217143  13.771   9.236   9.676 -0.0362  0.2145  0.1003
 1217ERGO    R317144  13.877   9.380   9.471  0.1217  0.0359  0.0540
 1217ERGO    R417145  13.735   9.158   9.341  0.1288 -0.0155  0.1337
 1217ERGO    R517146  13.944   9.214   9.311  0.1628 -0.1002  0.2092
 1217ERGO    C117147  13.815   9.248   8.954  0.3731 -0.3170  0.1097
 1217ERGO    C217148  13.626   9.101   8.693  0.1822  0.2284  0.1844
 1218ERGO   ROH17149   8.830  12.254   6.231 -0.0332 -0.1684 -0.0386
 1218ERGO    R117150   8.776  12.216   6.507  0.0267  0.0001 -0.0032
 1218ERGO    R217151   8.934  12.325   6.705 -0.0180  0.2487 -0.1044
 1218ERGO    R317152   8.697  12.428   6.792 -0.0730  0.1614 -0.1473
 1218ERGO    R417153   8.857  12.394   7.035 -0.1172  0.1744 -0.1108
 1218ERGO    R517154   8.657  12.316   7.000 -0.0869  0.1147 -0.1723
 1218ERGO    C117155   8.591  12.530   7.309 -0.2264  0.0492 -0.1548
 1218ERGO    C217156   8.534  12.695   7.588  0.1348 -0.0981 -0.2076
 1219ERGO   ROH17157   1.452  11.205   6.351 -0.1617  0.0739  0.0633
 1219ERGO    R117158   1.379  11.364   6.573 -0.0297  0.0710  0.1087
 1219ERGO    R217159   1.131  11.347   6.694 -0.0317  0.2205  0.1198
 1219ERGO    R317160   1.280  11.307   6.918 -0.0470  0.0578  0.1029
 1219ERGO    R417161   1.031  11.428   7.015 -0.0776 -0.0427  0.1754
 1219ERGO    R517162   1.234  11.498   7.055 -0.0844 -0.0502  0.2497
 1219ERGO    C117163   1.112  11.438   7.412 -0.1186 -0.3485  0.1918
 1219ERGO    C217164   0.962  11.402   7.699 -0.1129  0.1301 -0.0413
 1220ERGO   ROH17165  15.613   8.938  10.304  0.1513 -0.1100 -0.0871
 1220ERGO    R117166  15.707   8.919  10.038  0.0076 -0.0580 -0.1431
 1220ERGO    R217167  15.632   8.714   9.869  0.0426 -0.1160 -0.0891
 1220ERGO    R317168  15.561   8.919   9.705 -0.1914 -0.1692 -0.0576
 1220ERGO    R417169  15.616   8.695   9.524  0.0081 -0.0963 -0.0887
 1220ERGO    R517170  15.703   8.895   9.514 -0.1951 -0.0051 -0.0823
 1220ERGO    C117171  15.541   8.877   9.170 -0.2318 -0.1346 -0.0589
 1220ERGO    C217172  15.398   8.966   8.909  0.2707  0.2803  0.3934
 1221ERGO   ROH17173   7.635   2.878   6.753  0.0225  0.0121  0.0754
 1221ERGO    R117174   7.611   2.663   6.935 -0.0416  0.0002  0.0542
 1221ERGO    R217175   7.830   2.551   7.062 -0.0709 -0.0870  0.0362
 1221ERGO    R317176   7.687   2.606   7.287 -0.0462 -0.0585  0.0443
 1221ERGO    R417177   7.904   2.431   7.377  0.0575  0.1004  0.0784
 1221ERGO    R517178   7.691   2.401   7.411  0.0855  0.0056  0.1406
 1221ERGO    C117179   7.813   2.413   7.772  0.1555  0.2363  0.1106
 1221ERGO    C217180   7.781   2.279   8.055  0.2550 -0.3239 -0.0892
 1222ERGO   ROH17181  15.685  11.017   6.377 -0.1107 -0.1646 -0.0059
 1222ERGO    R117182  15.677  10.908   6.638 -0.1448 -0.0914  0.0239
 1222ERGO    R217183  15.867  10.968   6.830 -0.0793 -0.1619 -0.0175
 1222ERGO    R317184  15.649  11.037   6.977 -0.0160  0.0166 -0.0056
 1222ERGO    R417185  15.865  11.010   7.173 -0.0146 -0.1124 -0.0232
 1222ERGO    R517186  15.671  10.911   7.179 -0.0868  0.0280  0.0096
 1222ERGO    C117187  15.659  11.099   7.511  0.0826  0.0839 -0.0153
 1222ERGO    C217188  15.716  11.089   7.860  0.3488  0.1292 -0.0908
 1223ERGO   ROH17189  11.013  15.981  10.291  0.0471 -0.1144 -0.0233
 1223ERGO    R117190  10.992  15.888  10.024  0.0588 -0.0875 -0.0338
 1223ERGO    R217191  10.790  15.971   9.854 -0.0596 -0.2332  0.0322
 1223ERGO    R317192  10.998  16.036   9.692 -0.1566 -0.0220 -0.0096
 1223ERGO    R417193  10.771  15.996   9.510 -0.0907 -0.5207  0.0103
 1223ERGO    R517194  10.966  15.900   9.497  0.0657 -0.2209  0.0905
 1223ERGO    C117195  10.954  16.072   9.157 -0.1999 -0.4901 -0.0417
 1223ERGO    C217196  10.800  16.203   8.786 -0.0628  0.0206  0.0516
 1224ERGO   ROH17197  14.147  11.850   6.348  0.1805  0.1216  0.0540
 1224ERGO    R117198  13.983  11.836   6.578  0.0751 -0.1621 -0.0353
 1224ERGO    R217199  13.970  11.610   6.737  0.4863 -0.1451  0.0288
 1224ERGO    R317200  14.033  11.786   6.935 -0.0138  0.0706  0.0124
 1224ERGO    R417201  13.936  11.547   7.075  0.4614 -0.1309  0.0294
 1224ERGO    R517202  13.864  11.751   7.101 -0.0290 -0.2753 -0.0638
 1224ERGO    C117203  13.975  11.675   7.458 -0.0223  0.0798  0.0143
 1224ERGO    C217204  14.043  11.526   7.786 -0.3034 -0.0082 -0.1477
 1225ERGO   ROH17205  10.050  18.049   8.073 -0.0065  0.0656 -0.0374
 1225ERGO    R117206   9.867  17.837   8.030 -0.0509  0.1024 -0.0284
 1225ERGO    R217207   9.831  17.633   8.213 -0.0226  0.0677 -0.0649
 1225ERGO    R317208   9.570  17.707   8.196 -0.0190  0.1073  0.0346
 1225ERGO    R417209   9.571  17.479   8.381 -0.0087 -0.0519 -0.1511
 1225ERGO    R517210   9.449  17.500   8.201 -0.0353  0.1094 -0.1197
 1225ERGO    C117211   9.175  17.459   8.463  0.0028 -0.0843 -0.1078
 1225ERGO    C217212   9.091  17.241   8.780 -0.1582 -0.2268 -0.1800
 1226ERGO   ROH17213   4.664   0.596  10.271  0.0917 -0.0339  0.0081
 1226ERGO    R117214   4.631   0.707  10.013  0.1997  0.0317  0.0212
 1226ERGO    R217215   4.845   0.758   9.845  0.2505 -0.2053  0.0039
 1226ERGO    R317216   4.702   0.605   9.671  0.0491 -0.0231  0.0066
 1226ERGO    R417217   4.863   0.780   9.500  0.3579 -0.3084  0.0031
 1226ERGO    R517218   4.647   0.754   9.492  0.3171  0.0243 -0.0369
 1226ERGO    C117219   4.740   0.650   9.137  0.2314 -0.1974  0.0051
 1226ERGO    C217220   4.598   0.548   8.802  0.0829  0.1771 -0.0144
 1227ERGO   ROH17221  10.674  16.399   6.508 -0.3358  0.0025 -0.0110
 1227ERGO    R117222  10.531  16.612   6.628 -0.1428  0.2205 -0.1588
 1227ERGO    R217223  10.472  16.618   6.898 -0.4398  0.2889 -0.2198
 1227ERGO    R317224  10.595  16.860   6.886 -0.0410  0.1022 -0.0705
 1227ERGO    R417225  10.492  16.843   7.159 -0.1409  0.1433 -0.1119
 1227ERGO    R517226  10.456  17.004   7.017  0.1581  0.2707 -0.0442
 1227ERGO    C117227  10.619  17.202   7.300  0.4075 -0.1165  0.0910
 1227ERGO    C217228  10.656  17.217   7.680 -0.0575 -0.1328 -0.0246
 1228ERGO   ROH17229   3.122   8.226  10.119 -0.2027 -0.3194 -0.1041
 1228ERGO    R117230   3.041   8.202   9.849 -0.2309 -0.0150 -0.1257
 1228ERGO    R217231   3.110   8.387   9.656  0.1188 -0.0201 -0.0101
 1228ERGO    R317232   3.205   8.169   9.525 -0.2655 -0.1227 -0.1336
 1228ERGO    R417233   3.141   8.360   9.313  0.3664  0.2564 -0.0134
 1228ERGO    R517234   3.071   8.154   9.327 -0.1308  0.3881 -0.2792
 1228ERGO    C117235   3.250   8.139   8.991  0.1499  0.3211 -0.1312
 1228ERGO    C217236   3.242   8.293   8.634 -0.2027 -0.0215  0.1636
 1229ERGO   ROH17237   6.047   6.506   9.966 -0.0008 -0.1113  0.2104
 1229ERGO    R117238   5.912   6.494   9.718  0.0351 -0.0662  0.1894
 1229ERGO    R217239   6.031   6.568   9.480  0.0897 -0.0855  0.2152
 1229ERGO    R317240   5.955   6.319   9.402  0.0386 -0.0622  0.1866
 1229ERGO    R417241   5.961   6.476   9.154  0.2214 -0.0675  0.1801
 1229ERGO    R517242   5.794   6.357   9.229  0.1374 -0.0063  0.1019
 1229ERGO    C117243   5.849   6.188   8.892  0.2501 -0.0352  0.1328
 1229ERGO    C217244   5.879   5.886   8.694  0.0716  0.0452  0.1555
 1230ERGO   ROH17245   0.653   8.094  10.633 -0.0208 -0.1814 -0.1171
 1230ERGO    R117246   0.797   8.247  10.444  0.0852 -0.2477 -0.0899
 1230ERGO    R217247   0.880   8.144  10.201 -0.2082 -0.1932 -0.2116
 1230ERGO    R317248   0.747   8.359  10.101  0.0381  0.0760  0.0171
 1230ERGO    R417249   0.951   8.298   9.900 -0.2840 -0.2269 -0.2472
 1230ERGO    R517250   0.917   8.491   9.996  0.1583 -0.1845 -0.1359
 1230ERGO    C117251   0.867   8.589   9.631 -0.0970  0.0063 -0.0532
 1230ERGO    C217252   0.823   8.778   9.277 -0.1353  0.0213  0.2560
 1231ERGO   ROH17253   4.474   9.819   6.266  0.0362 -0.0396  0.0772
 1231ERGO    R117254   4.604   9.884   6.509 -0.1428  0.0909  0.1401
 1231ERGO    R217255   4.466   9.925   6.744 -0.2834 -0.3042  0.1338
 1231ERGO    R317256   4.636   9.735   6.839  0.0760 -0.0266  0.0685
 1231ERGO    R417257   4.525   9.863   7.079 -0.3573 -0.4608  0.1186
 1231ERGO    R517258   4.737   9.836   7.032 -0.2584  0.0361  0.2186
 1231ERGO    C117259   4.719   9.649   7.363 -0.0629 -0.2913  0.0483
 1231ERGO    C217260   4.555   9.679   7.629 -0.0513  0.0859  0.1700
 1232ERGO   ROH17261   5.596  15.264  10.274 -0.1749  0.0968 -0.0223
 1232ERGO    R117262   5.624  15.271   9.992 -0.1092  0.0477 -0.0175
 1232ERGO    R217263   5.821  15.132   9.859 -0.0772  0.0246  0.0524
 1232ERGO    R317264   5.611  15.031   9.719 -0.0444 -0.0002  0.0214
 1232ERGO    R417265   5.837  15.020   9.532 -0.0706  0.2563 -0.0284
 1232ERGO    R517266   5.643  15.113   9.496 -0.1306  0.1709  0.0706
 1232ERGO    C117267   5.650  14.860   9.211 -0.0360  0.3679 -0.1045
 1232ERGO    C217268   5.662  14.787   8.862 -0.1924 -0.1122  0.1933
 1233ERGO   ROH17269   7.139   7.270   9.538  0.0396 -0.0383  0.0279
 1233ERGO    R117270   7.156   7.389   9.282 -0.0174  0.0410  0.0589
 1233ERGO    R217271   7.237   7.249   9.057  0.0987  0.1515  0.0240
 1233ERGO    R317272   7.001   7.339   8.956  0.0444  0.0183  0.0343
 1233ERGO    R417273   7.139   7.221   8.727  0.0709  0.0499  0.0416
 1233ERGO    R517274   7.057   7.422   8.739 -0.0249  0.0078  0.0163
 1233ERGO    C117275   6.861   7.290   8.440  0.0039 -0.1344  0.0618
 1233ERGO    C217276   6.619   7.371   8.123  0.0124  0.1034  0.0057
 1234ERGO   ROH17277   0.415  17.624  10.227 -0.0320  0.0387  0.0861
 1234ERGO    R117278   0.470  17.750   9.980 -0.0024 -0.0149  0.0648
 1234ERGO    R217279   0.612  17.626   9.778  0.0166 -0.0624  0.1035
 1234ERGO    R317280   0.394  17.689   9.629  0.0322 -0.0883  0.0705
 1234ERGO    R417281   0.591  17.594   9.434  0.0928  0.0017  0.0929
 1234ERGO    R517282   0.484  17.783   9.428  0.0474 -0.0263  0.1083
 1234ERGO    C117283   0.373  17.635   9.095  0.1518  0.0147  0.0556
 1234ERGO    C217284   0.291  17.590   8.791 -0.3502 -0.1606  0.2400
 1235ERGO   ROH17285  17.108   4.716   6.109  0.1379 -0.1132  0.1408
 1235ERGO    R117286  17.113   4.627   6.377  0.2421  0.0626  0.1992
 1235ERGO    R217287  17.269   4.747   6.571  0.0089  0.4569  0.1576
 1235ERGO    R317288  17.033   4.767   6.703 -0.0565  0.1393  0.0955
 1235ERGO    R417289  17.233   4.734   6.915 -0.0475  0.5438  0.1546
 1235ERGO    R517290  17.053   4.614   6.886  0.1451  0.2462  0.1637
 1235ERGO    C117291  16.989   4.745   7.239 -0.1418  0.2962  0.0946
 1235ERGO    C217292  16.962   4.684   7.512 -0.1161 -0.4546 -0.2016
 1236ERGO   ROH17293  16.941  11.528  10.208  0.2733  0.1863 -0.1118
 1236ERGO    R117294  17.012  11.566   9.937  0.2055  0.0866 -0.1429
 1236ERGO    R217295  17.207  11.416   9.812  0.1033 -0.0254 -0.1630
 1236ERGO    R317296  17.009  11.365   9.633  0.0291  0.0099 -0.0933
 1236ERGO    R417297  17.257  11.280   9.498 -0.0019  0.1808 -0.2715
 1236ERGO    R517298  17.107  11.419   9.420 -0.0957  0.1754 -0.1129
 1236ERGO    C117299  17.100  11.154   9.147 -0.1324  0.3340 -0.2691
 1236ERGO    C217300  17.292  11.056   8.894  0.0527 -0.0089  0.0113
 1237ERGO   ROH17301  13.285   4.453   8.505  0.1134  0.1132  0.1787
 1237ERGO    R117302  13.307   4.580   8.254  0.0890  0.0929  0.1659
 1237ERGO    R217303  13.177   4.486   8.028  0.1552  0.0100  0.1590
 1237ERGO    R317304  13.079   4.740   8.018  0.0473 -0.0330  0.1212
 1237ERGO    R417305  13.043   4.637   7.747 -0.0445 -0.1333  0.1759
 1237ERGO    R517306  13.144   4.821   7.803 -0.0932 -0.0755  0.0641
 1237ERGO    C117307  12.873   4.962   7.574 -0.2620 -0.2571  0.1503
 1237ERGO    C217308  12.487   4.874   7.503  0.3951 -0.3025 -0.0808
 1238ERGO   ROH17309  11.742  10.517  10.260  0.1463 -0.2441  0.1066
 1238ERGO    R117310  11.796  10.617  10.001 -0.0596  0.0309  0.1658
 1238ERGO    R217311  11.914  10.463   9.803  0.2754  0.3937  0.0727
 1238ERGO    R317312  11.694  10.537   9.661  0.1119  0.0172  0.1171
 1238ERGO    R417313  11.894  10.467   9.458  0.1860  0.3327  0.0763
 1238ERGO    R517314  11.782  10.653   9.471 -0.1260  0.1528  0.0858
 1238ERGO    C117315  11.676  10.539   9.124 -0.0196 -0.0562  0.1200
 1238ERGO    C217316  11.614  10.447   8.803  0.0315 -0.0127 -0.1912
 1239ERGO   ROH17317  17.039  14.241   6.340  0.1400 -0.0185  0.0643
 1239ERGO    R117318  16.923  14.207   6.596 -0.0996  0.1584 -0.0159
 1239ERGO    R217319  17.075  14.160   6.823 -0.3347 -0.2704  0.0657
 1239ERGO    R317320  16.940  14.376   6.918  0.0985  0.0202  0.0477
 1239ERGO    R417321  17.056  14.249   7.156 -0.0708 -0.1341  0.0467
 1239ERGO    R517322  16.846  14.300   7.125  0.0116  0.2567  0.0966
 1239ERGO    C117323  16.918  14.503   7.440  0.4896  0.2179  0.0186
 1239ERGO    C217324  16.948  14.697   7.600 -0.0715  0.1252  0.4512
 1240ERGO   ROH17325  16.085   0.449   9.663 -0.0177 -0.1790 -0.0305
 1240ERGO    R117326  16.051   0.368   9.394  0.0146 -0.0928 -0.0603
 1240ERGO    R217327  15.901   0.513   9.212  0.0591 -0.0223 -0.0370
 1240ERGO    R317328  16.129   0.503   9.065  0.0789 -0.0015 -0.0090
 1240ERGO    R417329  15.918   0.570   8.872  0.0259 -0.4134 -0.1089
 1240ERGO    R517330  16.061   0.405   8.857  0.1725 -0.3132  0.0988
 1240ERGO    C117331  16.142   0.593   8.535  0.0252 -0.6216 -0.1243
 1240ERGO    C217332  16.067   0.665   8.236  0.1459  0.2576 -0.1034
 1241ERGO   ROH17333   3.901  12.914   6.270  0.0421 -0.1662  0.0639
 1241ERGO    R117334   3.804  13.136   6.417  0.0757  0.0163 -0.1827
 1241ERGO    R217335   3.858  13.171   6.686 -0.2310  0.1040 -0.1309
 1241ERGO    R317336   3.947  13.414   6.602  0.1245 -0.0272 -0.1539
 1241ERGO    R417337   3.977  13.420   6.894  0.0049  0.0041 -0.1410
 1241ERGO    R517338   3.872  13.566   6.771  0.2466  0.1153 -0.2240
 1241ERGO    C117339   4.130  13.793   6.937  0.4760 -0.1770 -0.1684
 1241ERGO    C217340   4.344  13.944   7.131  0.0842  0.1489 -0.0333
 1242ERGO   ROH17341  14.412   3.836  10.014  0.1278  0.1077 -0.0264
 1242ERGO    R117342  14.351   3.867   9.739  0.0478  0.0183 -0.0198
 1242ERGO    R217343  14.373   4.110   9.609 -0.1661  0.0168 -0.0629
 1242ERGO    R317344  14.531   3.968   9.439 -0.0892  0.1113 -0.0714
 1242ERGO    R417345  14.359   4.130   9.265 -0.1244  0.0851 -0.0607
 1242ERGO    R517346  14.386   3.914   9.256 -0.0432  0.0967 -0.1035
 1242ERGO    C117347  14.499   4.009   8.904 -0.0280  0.2136 -0.0673
 1242ERGO    C217348  14.425   4.145   8.563  0.1360  0.1172  0.0651
 1243ERGO   ROH17349  10.731  18.015  10.212  0.1119 -0.2759 -0.0165
 1243ERGO    R117350  10.780  17.959   9.939 -0.0321 -0.0905 -0.0835
 1243ERGO    R217351  10.769  18.153   9.743  0.2375  0.1258  0.1005
 1243ERGO    R317352  11.019  18.064   9.686  0.0884 -0.2220 -0.0221
 1243ERGO    R417353  10.902  18.128   9.425  0.1251  0.1278  0.0536
 1243ERGO    R517354  10.993  17.939   9.483 -0.1505 -0.0490 -0.0965
 1243ERGO    C117355  11.214  18.031   9.186 -0.0803 -0.1976 -0.0888
 1243ERGO    C217356  11.162  18.176   8.998  0.1045 -0.0633  0.0661
 1244ERGO   ROH17357   3.328   4.509   6.604 -0.0354  0.1493 -0.0811
 1244ERGO    R117358   3.334   4.419   6.872 -0.2551 -0.0100 -0.1282
 1244ERGO    R217359   3.481   4.546   7.069 -0.1473 -0.3216 -0.0089
 1244ERGO    R317360   3.242   4.551   7.198 -0.1873 -0.0635 -0.0850
 1244ERGO    R417361   3.426   4.691   7.378 -0.0781 -0.2670 -0.0208
 1244ERGO    R517362   3.298   4.522   7.429 -0.2848 -0.1350 -0.0650
 1244ERGO    C117363   3.170   4.780   7.679 -0.0754  0.0070 -0.0992
 1244ERGO    C217364   2.960   5.052   7.924 -0.1339  0.1466  0.2239
 1245ERGO   ROH17365  15.758  15.303   9.978  0.1638  0.2624 -0.2533
 1245ERGO    R117366  15.785  15.226   9.707 -0.2452  0.2387 -0.2916
 1245ERGO    R217367  15.909  14.991   9.630  0.0679  0.4624 -0.4630
 1245ERGO    R317368  15.675  14.949   9.498 -0.1361 -0.0487  0.0187
 1245ERGO    R417369  15.879  14.816   9.334 -0.0934  0.6168 -0.5414
 1245ERGO    R517370  15.734  14.965   9.267 -0.6642  0.3096 -0.1173
 1245ERGO    C117371  15.642  14.674   9.038 -0.3788  0.2271 -0.1348
 1245ERGO    C217372  15.631  14.398   8.816  0.1474 -0.1527 -0.0700
 1246ERGO   ROH17373   6.176   9.139   6.102 -0.3292 -0.0639  0.0540
 1246ERGO    R117374   6.196   8.981   6.336 -0.1513 -0.1529 -0.0199
 1246ERGO    R217375   6.408   8.809   6.383  0.1092  0.1581 -0.0466
 1246ERGO    R317376   6.429   8.950   6.614 -0.1826  0.0750  0.0352
 1246ERGO    R417377   6.505   8.677   6.687  0.0388  0.1056 -0.0460
 1246ERGO    R517378   6.353   8.799   6.783 -0.1500 -0.0849 -0.0860
 1246ERGO    C117379   6.581   8.733   7.082 -0.2761 -0.0030  0.0310
 1246ERGO    C217380   6.653   8.727   7.314  0.0282  0.1080 -0.0656
 1247ERGO   ROH17381   6.118   1.294  10.128 -0.0258  0.1257 -0.0461
 1247ERGO    R117382   6.147   1.101   9.924 -0.0432  0.0177  0.0531
 1247ERGO    R217383   5.937   1.019   9.765 -0.0265  0.0367  0.0233
 1247ERGO    R317384   6.104   1.089   9.563  0.0701 -0.1316  0.0433
 1247ERGO    R417385   5.845   1.044   9.433  0.0800 -0.0433 -0.0129
 1247ERGO    R517386   6.035   0.952   9.378  0.0481 -0.1677  0.0766
 1247ERGO    C117387   5.949   1.125   9.049  0.2326 -0.2479 -0.0153
 1247ERGO    C217388   5.955   1.071   8.686 -0.1744 -0.3274 -0.2030
 1248ERGO   ROH17389  17.090   3.000   6.090  0.0088  0.1298 -0.0475
 1248ERGO    R117390  17.197   2.863   6.314 -0.0088 -0.0703 -0.1590
 1248ERGO    R217391  17.342   2.991   6.512  0.2924 -0.3077 -0.2169
 1248ERGO    R317392  17.158   2.877   6.675  0.2551 -0.1205 -0.1277
 1248ERGO    R417393  17.339   3.018   6.856  0.1895  0.1051 -0.2449
 1248ERGO    R517394  17.282   2.808   6.868  0.2003  0.1174 -0.0071
 1248ERGO    C117395  17.164   2.927   7.210  0.0947  0.5212 -0.1776
 1248ERGO    C217396  17.180   2.892   7.394 -0.0687  0.0011 -0.0295
 1249ERGO   ROH17397   5.816  17.582   6.438 -0.0374  0.0652 -0.1825
 1249ERGO    R117398   5.737  17.605   6.708  0.0444 -0.0926 -0.1436
 1249ERGO    R217399   5.749  17.844   6.847  0.0734 -0.1679 -0.0099
 1249ERGO    R317400   5.487  17.792   6.896  0.0913 -0.2111  0.0381
 1249ERGO    R417401   5.590  17.895   7.150  0.0391  0.1141 -0.0731
 1249ERGO    R517402   5.483  17.708   7.120  0.1113  0.0404  0.1341
 1249ERGO    C117403   5.251  17.876   7.371  0.0359  0.2379 -0.0649
 1249ERGO    C217404   5.085  17.953   7.635 -0.0557 -0.2840 -0.0146
 1250ERGO   ROH17405   3.984  16.574   6.411 -0.2456 -0.1586  0.0076
 1250ERGO    R117406   4.106  16.583   6.666 -0.2864 -0.2788  0.0307
 1250ERGO    R217407   4.149  16.819   6.802  0.0995 -0.3007 -0.0518
 1250ERGO    R317408   4.012  16.693   7.000 -0.1706  0.0127 -0.0289
 1250ERGO    R417409   4.210  16.860   7.140  0.1787 -0.3515 -0.0588
 1250ERGO    R517410   4.179  16.645   7.166 -0.2621 -0.2957 -0.0163
 1250ERGO    C117411   4.116  16.765   7.523 -0.0287 -0.0866 -0.0414
 1250ERGO    C217412   4.198  16.851   7.851  0.1100 -0.2110  0.4677
 1251ERGO   ROH17413   6.730  11.236   6.262 -0.0488  0.0452 -0.0339
 1251ERGO    R117414   6.690  11.284   6.539  0.1096  0.1985 -0.0359
 1251ERGO    R217415   6.588  11.093   6.710 -0.3144  0.4616  0.0215
 1251ERGO    R317416   6.814  11.145   6.851 -0.1526 -0.0338 -0.0315
 1251ERGO    R417417   6.609  11.096   7.055 -0.2160  0.3983  0.0166
 1251ERGO    R517418   6.738  11.271   7.041  0.1658  0.1270 -0.0042
 1251ERGO    C117419   6.833  11.148   7.389 -0.0069 -0.1037 -0.0360
 1251ERGO    C217420   6.847  10.987   7.636 -0.0244 -0.1617 -0.1500
 1252ERGO   ROH17421   1.758   1.041   6.168  0.1701 -0.1665  0.0555
 1252ERGO    R117422   1.848   0.922   6.408  0.1877 -0.0561  0.1036
 1252ERGO    R217423   2.017   1.052   6.585 -0.0115  0.1266  0.1605
 1252ERGO    R317424   1.821   0.993   6.764 -0.0284 -0.0476  0.0874
 1252ERGO    R417425   2.066   1.007   6.924 -0.1102  0.2907  0.1983
 1252ERGO    R517426   1.925   0.842   6.918  0.0834  0.1186  0.1818
 1252ERGO    C117427   1.911   0.925   7.290 -0.1836  0.2228  0.1517
 1252ERGO    C217428   1.886   1.058   7.558  0.2772 -0.0669  0.1218
 1253ERGO   ROH17429   5.389   4.706   6.011  0.1337 -0.0292  0.0921
 1253ERGO    R117430   5.536   4.721   6.253  0.0809 -0.0857  0.1291
 1253ERGO    R217431   5.568   4.957   6.394  0.2435 -0.0667  0.0733
 1253ERGO    R317432   5.467   4.809   6.599  0.0568  0.0731  0.0835
 1253ERGO    R417433   5.671   4.977   6.723  0.3563 -0.2635  0.0504
 1253ERGO    R517434   5.657   4.761   6.737  0.0144 -0.2424  0.0338
 1253ERGO    C117435   5.637   4.851   7.107  0.2468 -0.2468  0.0466
 1253ERGO    C217436   5.612   4.892   7.374 -0.2335 -0.0055  0.3179
 1254ERGO   ROH17437   9.696   6.711  10.009 -0.0257  0.0614 -0.0010
 1254ERGO    R117438   9.739   6.619   9.745 -0.1777  0.0953 -0.0385
 1254ERGO    R217439   9.729   6.787   9.525 -0.0309  0.1791  0.0173
 1254ERGO    R317440   9.977   6.686   9.477 -0.1493 -0.0855 -0.0601
 1254ERGO    R417441   9.874   6.758   9.213 -0.1184  0.1206 -0.0186
 1254ERGO    R517442   9.954   6.564   9.273 -0.3240  0.0078 -0.0983
 1254ERGO    C117443  10.191   6.647   8.986 -0.2804 -0.1619 -0.1120
 1254ERGO    C217444  10.229   6.614   8.711 -0.1364 -0.2149  0.0609
 1255ERGO   ROH17445  11.999  10.248   6.414  0.0500 -0.0485 -0.0287
 1255ERGO    R117446  12.059  10.149   6.673  0.0454  0.0409  0.0071
 1255ERGO    R217447  12.207  10.293   6.856 -0.1012  0.1767  0.0217
 1255ERGO    R317448  11.991  10.249   7.016 -0.1172  0.0624 -0.0304
 1255ERGO    R417449  12.187  10.382   7.190 -0.1976  0.0891  0.0398
 1255ERGO    R517450  12.086  10.193   7.229 -0.1392  0.0440 -0.0258
 1255ERGO    C117451  11.973  10.392   7.534 -0.2687 -0.0691  0.0013
 1255ERGO    C217452  11.782  10.582   7.793  0.0610  0.2429  0.1118
 1256ERGO   ROH17453   7.337   0.519  10.008 -0.1120  0.0423  0.1109
 1256ERGO    R117454   7.366   0.339   9.791  0.1525  0.1508  0.0546
 1256ERGO    R217455   7.150   0.237   9.652  0.2961 -0.1978  0.0889
 1256ERGO    R317456   7.283   0.337   9.437  0.0617  0.0969  0.0741
 1256ERGO    R417457   7.077   0.161   9.323  0.4495 -0.4155  0.1022
 1256ERGO    R517458   7.291   0.154   9.282  0.4831  0.0827  0.0953
 1256ERGO    C117459   7.158   0.211   8.929  0.3188 -0.2656  0.0960
 1256ERGO    C217460   6.964   0.140   8.739  0.1257  0.0136 -0.1017
 1257ERGO   ROH17461   2.033   8.188   6.597 -0.1126  0.0892  0.0200
 1257ERGO    R117462   2.028   8.256   6.872  0.0278 -0.0052  0.0479
 1257ERGO    R217463   1.818   8.395   6.987  0.2087  0.1963  0.1480
 1257ERGO    R317464   1.814   8.183   7.157  0.0060  0.1323  0.0665
 1257ERGO    R417465   1.725   8.409   7.319  0.3843  0.1924  0.1977
 1257ERGO    R517466   1.888   8.273   7.366  0.2262 -0.0458  0.0682
 1257ERGO    C117467   1.667   8.219   7.673  0.2963  0.1300  0.1499
 1257ERGO    C217468   1.791   8.193   8.063 -0.1893  0.1592 -0.0956
 1258ERGO   ROH17469  17.550   9.027  10.503  0.1515  0.1745 -0.0591
 1258ERGO    R117470  17.751   8.964  10.315  0.1937  0.0823  0.0168
 1258ERGO    R217471  17.861   8.712  10.294 -0.0229 -0.0074 -0.0414
 1258ERGO    R317472  17.788   8.736  10.033  0.1356  0.1797 -0.0714
 1258ERGO    R417473  17.986   8.519  10.036 -0.2352 -0.1741 -0.0226
 1258ERGO    R517474  17.991   8.698   9.911  0.1344 -0.1476  0.0156
 1258ERGO    C117475  17.990   8.429   9.641 -0.2104 -0.0957 -0.0398
 1258ERGO    C217476  18.067   8.259   9.379 -0.2063  0.1795  0.2465
 1259ERGO   ROH17477  14.657  17.410   6.246 -0.0298  0.1963 -0.1362
 1259ERGO    R117478  14.761  17.474   6.501  0.0625  0.0313 -0.1309
 1259ERGO    R217479  14.602  17.565   6.708  0.1898  0.2615 -0.1323
 1259ERGO    R317480  14.716  17.357   6.842 -0.1209  0.0833 -0.1355
 1259ERGO    R417481  14.605  17.530   7.052  0.3460  0.3897 -0.1199
 1259ERGO    R517482  14.811  17.458   7.038  0.2076 -0.0184 -0.2332
 1259ERGO    C117483  14.714  17.315   7.378  0.1452  0.2972 -0.1156
 1259ERGO    C217484  14.675  17.395   7.695 -0.1092 -0.0486  0.0808
 1260ERGO   ROH17485  17.247   5.886  10.145  0.1297  0.2625  0.0251
 1260ERGO    R117486  17.140   5.727   9.937  0.0670  0.1248  0.1600
 1260ERGO    R217487  16.912   5.798   9.796  0.0782  0.0828  0.1136
 1260ERGO    R317488  17.075   5.766   9.581  0.0591 -0.1423  0.1313
 1260ERGO    R417489  16.804   5.741   9.473  0.0575 -0.2332  0.1743
 1260ERGO    R517490  16.967   5.598   9.449  0.0435 -0.2661  0.3036
 1260ERGO    C117491  16.893   5.677   9.083  0.0275 -0.6286  0.2262
 1260ERGO    C217492  16.909   5.695   8.747 -0.1467  0.3033  0.0258
 1261ERGO   ROH17493   3.856   2.212   6.144  0.0436  0.0456 -0.1569
 1261ERGO    R117494   3.741   2.209   6.402  0.1631  0.1150 -0.1016
 1261ERGO    R217495   3.506   2.076   6.459  0.0381  0.3605 -0.0191
 1261ERGO    R317496   3.657   1.957   6.651  0.0038  0.1491 -0.1209
 1261ERGO    R417497   3.450   2.102   6.799  0.0560  0.0879  0.0070
 1261ERGO    R517498   3.665   2.118   6.828  0.0593 -0.0054  0.0168
 1261ERGO    C117499   3.559   2.006   7.177  0.0341 -0.2694 -0.0734
 1261ERGO    C217500   3.599   2.055   7.532  0.1496 -0.0982 -0.0153
 1262ERGO   ROH17501   6.070   6.590   5.882 -0.1489  0.0616 -0.0401
 1262ERGO    R117502   6.156   6.609   6.151 -0.0544  0.0871 -0.0717
 1262ERGO    R217503   6.108   6.832   6.306 -0.0303  0.0876 -0.0657
 1262ERGO    R317504   5.998   6.651   6.476  0.0571  0.0804 -0.0162
 1262ERGO    R417505   6.125   6.850   6.651  0.1305  0.0854 -0.0726
 1262ERGO    R517506   6.156   6.634   6.655  0.1427  0.0861 -0.0899
 1262ERGO    C117507   6.031   6.690   7.011  0.3063  0.0773 -0.0301
 1262ERGO    C217508   5.790   6.758   7.208  0.2054  0.1178 -0.0154
 1263ERGO   ROH17509  16.933  15.548  10.265  0.0846 -0.0351  0.0192
 1263ERGO    R117510  16.989  15.431  10.014  0.0054 -0.0865  0.0247
 1263ERGO    R217511  16.818  15.253   9.891 -0.0915 -0.0177  0.0575
 1263ERGO    R317512  16.836  15.428   9.684 -0.0280 -0.0456  0.0397
 1263ERGO    R417513  16.745  15.177   9.562 -0.1721 -0.0100  0.0736
 1263ERGO    R517514  16.917  15.295   9.501 -0.1188 -0.1039  0.0412
 1263ERGO    C117515  16.719  15.298   9.175 -0.1592 -0.0317  0.0664
 1263ERGO    C217516  16.644  15.168   8.792 -0.1962 -0.2338  0.4529
 1264ERGO   ROH17517   7.764   0.185   6.386  0.1041  0.0530 -0.2115
 1264ERGO    R117518   7.561   0.317   6.533 -0.0384 -0.0927 -0.2744
 1264ERGO    R217519   7.303   0.222   6.550  0.0768 -0.3931 -0.1869
 1264ERGO    R317520   7.348   0.239   6.817  0.0855 -0.1675 -0.2001
 1264ERGO    R417521   7.058   0.270   6.789  0.0575 -0.3975 -0.2046
 1264ERGO    R517522   7.193   0.405   6.893 -0.0306 -0.2217 -0.3099
 1264ERGO    C117523   6.958   0.314   7.179  0.0545 -0.1881 -0.2273
 1264ERGO    C217524   6.860   0.321   7.539  0.1154  0.0295  0.0458
 1265ERGO   ROH17525   6.480  12.709   9.717  0.2383  0.1079  0.0660
 1265ERGO    R117526   6.553  12.614   9.460  0.1331 -0.1005  0.1095
 1265ERGO    R217527   6.420  12.407   9.335 -0.1092 -0.0135  0.2087
 1265ERGO    R317528   6.394  12.588   9.134  0.1001 -0.0729  0.1234
 1265ERGO    R417529   6.460  12.336   8.999 -0.0489 -0.1809  0.2504
 1265ERGO    R517530   6.564  12.527   8.976  0.1078 -0.2692  0.2056
 1265ERGO    C117531   6.459  12.465   8.615  0.1828 -0.3340  0.1946
 1265ERGO    C217532   6.185  12.450   8.318  0.3653  0.0686 -0.1204
 1266ERGO   ROH17533  10.326   9.560  10.304  0.2785 -0.0515  0.1010
 1266ERGO    R117534  10.451   9.458  10.072  0.0055 -0.4664  0.1275
 1266ERGO    R217535  10.348   9.245   9.928 -0.7259 -0.0895  0.0532
 1266ERGO    R317536  10.364   9.419   9.720 -0.0229 -0.0854  0.0874
 1266ERGO    R417537  10.335   9.155   9.595 -0.8612  0.0040  0.0319
 1266ERGO    R517538  10.491   9.301   9.555 -0.3213 -0.5043  0.1360
 1266ERGO    C117539  10.342   9.267   9.205 -0.2799  0.0621  0.0517
 1266ERGO    C217540  10.430   9.149   8.939 -0.0375  0.1811  0.1205
 1267ERGO   ROH17541  13.069   7.126   6.166 -0.0721  0.0508 -0.1180
 1267ERGO    R117542  13.058   7.125   6.449 -0.1195  0.1322 -0.1189
 1267ERGO    R217543  13.282   7.081   6.606 -0.1679  0.0488 -0.0700
 1267ERGO    R317544  13.207   7.317   6.719 -0.0556  0.1220 -0.1471
 1267ERGO    R417545  13.381   7.190   6.919 -0.2041  0.0557 -0.0611
 1267ERGO    R517546  13.179   7.265   6.951 -0.1671  0.1923 -0.1453
 1267ERGO    C117547  13.369   7.475   7.207 -0.1198  0.1285 -0.1284
 1267ERGO    C217548  13.428   7.575   7.567 -0.1178  0.0459 -0.2220
 1268ERGO   ROH17549  14.338  15.204   6.534  0.1695 -0.1235  0.0948
 1268ERGO    R117550  14.199  15.371   6.716  0.1695 -0.0445  0.0260
 1268ERGO    R217551  13.945  15.310   6.810  0.0742  0.0998 -0.1031
 1268ERGO    R317552  14.064  15.340   7.053 -0.0241  0.0200 -0.0467
 1268ERGO    R417553  13.791  15.435   7.093  0.0334  0.1973 -0.1701
 1268ERGO    R517554  13.974  15.544   7.139  0.0751  0.0721 -0.0834
 1268ERGO    C117555  13.812  15.536   7.485 -0.0825  0.1789 -0.1563
 1268ERGO    C217556  13.590  15.432   7.633  0.0138  0.1571 -0.0763
 1269ERGO   ROH17557  14.816   8.210  10.248  0.1633 -0.1204  0.2027
 1269ERGO    R117558  14.907   8.064  10.023 -0.1495 -0.2391  0.1476
 1269ERGO    R217559  14.745   8.009   9.806 -0.2953  0.1373  0.1499
 1269ERGO    R317560  14.947   8.126   9.666 -0.0786 -0.2104  0.1612
 1269ERGO    R417561  14.747   8.057   9.464 -0.2191  0.1938  0.1584
 1269ERGO    R517562  14.958   8.002   9.462 -0.3166 -0.1982  0.1409
 1269ERGO    C117563  14.937   8.194   9.133  0.0287 -0.0997  0.1739
 1269ERGO    C217564  14.864   8.132   8.777 -0.1124  0.1526 -0.0439
 1270ERGO   ROH17565   7.054  12.884   6.252 -0.0881  0.0401  0.1668
 1270ERGO    R117566   6.982  12.772   6.502 -0.1190  0.0217  0.1495
 1270ERGO    R217567   6.730  12.673   6.553 -0.0926 -0.0795  0.0760
 1270ERGO    R317568   6.868  12.449   6.624 -0.0236 -0.0203  0.1300
 1270ERGO    R417569   6.624  12.443   6.788 -0.0328 -0.0603  0.1220
 1270ERGO    R517570   6.830  12.429   6.860 -0.0289  0.0211  0.1345
 1270ERGO    C117571   6.692  12.099   6.992  0.0669  0.0065  0.1994
 1270ERGO    C217572   6.451  11.919   7.227  0.1656 -0.1391  0.0997
 1271ERGO   ROH17573   7.028   5.180   6.139 -0.0015  0.3405 -0.2436
 1271ERGO    R117574   7.130   5.325   6.360 -0.1482  0.2039 -0.0840
 1271ERGO    R217575   6.971   5.404   6.572 -0.2559 -0.0724 -0.0595
 1271ERGO    R317576   7.159   5.273   6.719 -0.2265 -0.0974 -0.1176
 1271ERGO    R417577   6.999   5.421   6.916 -0.0953 -0.0092 -0.0738
 1271ERGO    R517578   7.215   5.428   6.894 -0.1018 -0.0770 -0.1739
 1271ERGO    C117579   7.190   5.308   7.255  0.0258  0.0042 -0.1367
 1271ERGO    C217580   7.226   5.089   7.591 -0.4497  0.1623 -0.0912
 1272ERGO   ROH17581  16.586   3.723   6.541 -0.0590 -0.2619 -0.0635
 1272ERGO    R117582  16.617   3.596   6.792 -0.0033 -0.1179  0.0056
 1272ERGO    R217583  16.683   3.734   7.022 -0.0531  0.0341 -0.0609
 1272ERGO    R317584  16.459   3.615   7.119 -0.0074 -0.0031 -0.0050
 1272ERGO    R417585  16.629   3.656   7.354  0.1521 -0.2441 -0.0899
 1272ERGO    R517586  16.540   3.468   7.291  0.0740 -0.1656 -0.1865
 1272ERGO    C117587  16.387   3.499   7.639  0.3145 -0.4410 -0.0544
 1272ERGO    C217588  16.207   3.429   7.919 -0.3092  0.0123  0.2345
 1273ERGO   ROH17589   5.493   1.312   6.201 -0.0428 -0.0619 -0.0038
 1273ERGO    R117590   5.337   1.341   6.436  0.0742  0.1395  0.0526
 1273ERGO    R217591   5.349   1.161   6.646 -0.1471  0.0680  0.0130
 1273ERGO    R317592   5.401   1.385   6.791  0.2635 -0.0383  0.0414
 1273ERGO    R417593   5.324   1.185   6.990 -0.4840  0.1723 -0.0162
 1273ERGO    R517594   5.237   1.383   6.965  0.0476  0.4020 -0.1445
 1273ERGO    C117595   5.357   1.408   7.326 -0.2947  0.1332 -0.0066
 1273ERGO    C217596   5.316   1.494   7.632 -0.3271  0.0620 -0.2639
 1274ERGO   ROH17597  11.228   1.682   6.406  0.2171  0.2875  0.1775
 1274ERGO    R117598  11.089   1.699   6.652  0.1681  0.2624  0.1507
 1274ERGO    R217599  11.117   1.510   6.853  0.0461  0.1870  0.0922
 1274ERGO    R317600  11.177   1.728   7.004  0.0973  0.1115  0.1831
 1274ERGO    R417601  11.138   1.512   7.198 -0.0419  0.0498  0.0993
 1274ERGO    R517602  11.038   1.705   7.198  0.0344  0.0951  0.1412
 1274ERGO    C117603  11.205   1.717   7.541 -0.0451 -0.1010  0.1888
 1274ERGO    C217604  11.226   1.931   7.848  0.2788  0.0857 -0.0310
 1275ERGO   ROH17605  14.915  13.106   6.087  0.0109  0.0117  0.0574
 1275ERGO    R117606  14.910  13.089   6.370 -0.1852 -0.0617  0.0513
 1275ERGO    R217607  15.033  13.276   6.532 -0.0488 -0.2579  0.1779
 1275ERGO    R317608  14.786  13.292   6.645 -0.1022  0.0198  0.0291
 1275ERGO    R417609  14.972  13.271   6.872 -0.2682 -0.3470  0.1395
 1275ERGO    R517610  14.798  13.145   6.834 -0.4209 -0.0945 -0.0336
 1275ERGO    C117611  14.706  13.284   7.177 -0.4463 -0.1383 -0.0225
 1275ERGO    C217612  14.676  13.342   7.526 -0.3106 -0.2400 -0.2374
 1276ERGO   ROH17613  11.730  11.088   6.546 -0.0592 -0.2653  0.0411
 1276ERGO    R117614  11.736  11.159   6.820  0.1512 -0.2974  0.0471
 1276ERGO    R217615  11.970  11.166   6.967  0.3109 -0.0387 -0.2003
 1276ERGO    R317616  11.889  11.420   7.023  0.0619 -0.1398 -0.0885
 1276ERGO    R417617  12.069  11.349   7.243  0.3873  0.0607 -0.2934
 1276ERGO    R517618  11.865  11.424   7.261  0.3161 -0.1897 -0.0634
 1276ERGO    C117619  12.051  11.693   7.456  0.1982  0.0236 -0.2426
 1276ERGO    C217620  12.346  11.805   7.685  0.0998  0.2970 -0.0921
 1277ERGO   ROH17621   0.325   3.732   5.896  0.2564 -0.1021  0.0145
 1277ERGO    R117622   0.385   3.586   6.131  0.1373 -0.1119  0.0411
 1277ERGO    R217623   0.596   3.651   6.297  0.1862 -0.2437  0.0417
 1277ERGO    R317624   0.402   3.653   6.488  0.1753 -0.0636  0.0289
 1277ERGO    R417625   0.641   3.551   6.625  0.0992 -0.1515  0.0813
 1277ERGO    R517626   0.445   3.456   6.618  0.0485 -0.0384  0.1036
 1277ERGO    C117627   0.485   3.494   6.995  0.0384  0.0713  0.0922
 1277ERGO    C217628   0.853   3.541   7.147 -0.0645 -0.1322  0.1260
 1278ERGO   ROH17629   5.226   7.378   6.143  0.0997  0.3629  0.2222
 1278ERGO    R117630   5.381   7.430   6.375  0.1021  0.3310  0.2302
 1278ERGO    R217631   5.277   7.556   6.598  0.0738  0.2161  0.2948
 1278ERGO    R317632   5.371   7.335   6.726  0.1579  0.1941  0.1928
 1278ERGO    R417633   5.378   7.548   6.928  0.0284  0.0731  0.3041
 1278ERGO    R517634   5.544   7.419   6.870  0.0915  0.1884  0.2643
 1278ERGO    C117635   5.524   7.336   7.241  0.0808 -0.0307  0.2139
 1278ERGO    C217636   5.595   7.121   7.548 -0.1701 -0.3415  0.0398
 1279ERGO   ROH17637  12.423   3.861   5.935 -0.2105  0.0540  0.2385
 1279ERGO    R117638  12.445   3.902   6.214 -0.1460 -0.1966  0.2734
 1279ERGO    R217639  12.569   3.721   6.382  0.2372 -0.1748  0.0313
 1279ERGO    R317640  12.715   3.938   6.456 -0.0829 -0.0024  0.1746
 1279ERGO    R417641  12.791   3.729   6.647  0.2389 -0.0207  0.0249
 1279ERGO    R517642  12.719   3.929   6.695 -0.0593 -0.1607  0.1668
 1279ERGO    C117643  13.057   3.938   6.870 -0.0608  0.2309  0.1558
 1279ERGO    C217644  13.114   3.938   7.159  0.0923 -0.0673 -0.3018
 1280ERGO   ROH17645   4.179   7.858   6.259  0.0696 -0.2089  0.0018
 1280ERGO    R117646   4.320   7.946   6.488  0.1024 -0.1441 -0.0431
 1280ERGO    R217647   4.192   8.027   6.720  0.1308  0.0600 -0.0971
 1280ERGO    R317648   4.352   7.841   6.835  0.0292  0.0452  0.0225
 1280ERGO    R417649   4.255   8.004   7.059  0.1312  0.2518 -0.0828
 1280ERGO    R517650   4.463   7.959   7.012  0.1038  0.1012 -0.0615
 1280ERGO    C117651   4.443   7.816   7.364  0.0361  0.3496  0.0377
 1280ERGO    C217652   4.428   7.903   7.693  0.1729  0.2586  0.4224
 1281ERGO   ROH17653   2.887   1.302   6.398  0.1110  0.3867  0.0229
 1281ERGO    R117654   2.945   1.134   6.618 -0.0387  0.2942 -0.0055
 1281ERGO    R217655   3.203   1.088   6.706 -0.0734  0.0296 -0.0243
 1281ERGO    R317656   3.102   1.171   6.945  0.0170  0.0937 -0.0089
 1281ERGO    R417657   3.340   1.016   7.015 -0.1253 -0.1379 -0.0404
 1281ERGO    R517658   3.139   0.986   7.092 -0.1482  0.0411 -0.0344
 1281ERGO    C117659   3.326   1.051   7.418 -0.0707 -0.1752 -0.0353
 1281ERGO    C217660   3.526   0.961   7.674  0.1413  0.3883 -0.1256
 1282ERGO   ROH17661   4.868   9.007   9.825  0.0804 -0.0637 -0.1484
 1282ERGO    R117662   4.738   8.903   9.596  0.0058 -0.0776 -0.1008
 1282ERGO    R217663   4.506   9.013   9.493 -0.0552 -0.1077 -0.0101
 1282ERGO    R317664   4.651   9.022   9.264 -0.1409 -0.0795 -0.0624
 1282ERGO    R417665   4.377   8.966   9.176 -0.1572 -0.1073  0.0317
 1282ERGO    R517666   4.556   8.851   9.126 -0.1655 -0.0805 -0.0376
 1282ERGO    C117667   4.439   8.946   8.776 -0.2971 -0.0807  0.0068
 1282ERGO    C217668   4.368   9.147   8.388  0.0155 -0.0920  0.3029
 1283ERGO   ROH17669   6.278   3.243   6.183 -0.0478  0.1072 -0.1382
 1283ERGO    R117670   6.074   3.190   6.372 -0.0004  0.1299 -0.0810
 1283ERGO    R217671   6.096   3.259   6.639  0.0400  0.2197 -0.1096
 1283ERGO    R317672   5.860   3.386   6.592  0.0055  0.1604 -0.1014
 1283ERGO    R417673   5.838   3.289   6.867  0.1988  0.4952  0.0403
 1283ERGO    R517674   5.697   3.252   6.706  0.0843  0.2933  0.1790
 1283ERGO    C117675   5.467   3.424   6.956  0.2589  0.5999  0.1353
 1283ERGO    C217676   5.330   3.533   7.178 -0.2422  0.1013 -0.1243
 1284ERGO   ROH17677   0.436   7.879   6.643 -0.1092  0.3927  0.0341
 1284ERGO    R117678   0.612   7.906   6.863 -0.0617 -0.0105  0.0517
 1284ERGO    R217679   0.575   8.092   7.062  0.3376  0.0778  0.0543
 1284ERGO    R317680   0.591   7.875   7.225 -0.1663  0.0242  0.0486
 1284ERGO    R417681   0.625   8.105   7.404  0.6093 -0.0463  0.0210
 1284ERGO    R517682   0.759   7.934   7.385  0.1216 -0.4387 -0.0660
 1284ERGO    C117683   0.670   7.909   7.756  0.2944 -0.1688 -0.0038
 1284ERGO    C217684   0.668   7.816   8.121  0.0576 -0.1723 -0.0991
 1285ERGO   ROH17685   2.263  14.683   6.301 -0.2884  0.0175 -0.0278
 1285ERGO    R117686   2.418  14.750   6.529 -0.1345 -0.0044 -0.1240
 1285ERGO    R217687   2.324  14.918   6.728  0.0020 -0.0149 -0.0479
 1285ERGO    R317688   2.389  14.709   6.889  0.1020 -0.0302 -0.1070
 1285ERGO    R417689   2.370  14.940   7.069 -0.0609 -0.1027 -0.0335
 1285ERGO    R517690   2.539  14.803   7.051  0.0223  0.0043 -0.0541
 1285ERGO    C117691   2.458  14.757   7.420 -0.0036 -0.1681 -0.0806
 1285ERGO    C217692   2.410  14.624   7.750  0.1336 -0.2226  0.2284
 1286ERGO   ROH17693   8.795   3.133   9.887 -0.0446  0.2304  0.0665
 1286ERGO    R117694   8.784   3.317   9.672 -0.0654  0.1482 -0.0035
 1286ERGO    R217695   8.996   3.359   9.500 -0.0112  0.2252  0.0801
 1286ERGO    R317696   8.811   3.302   9.309  0.1120  0.0370  0.0131
 1286ERGO    R417697   9.035   3.421   9.162  0.0650  0.2216  0.0882
 1286ERGO    R517698   8.827   3.485   9.155  0.0087  0.0349 -0.0006
 1286ERGO    C117699   8.884   3.404   8.787  0.2250  0.0428  0.0299
 1286ERGO    C217700   8.844   3.313   8.490  0.0269 -0.0006 -0.1524
 1287ERGO   ROH17701   3.310   9.263   6.345  0.1689  0.0426  0.1533
 1287ERGO    R117702   3.210   9.189   6.599  0.0541  0.2190  0.1616
 1287ERGO    R217703   3.272   8.947   6.719 -0.3167  0.1260  0.1847
 1287ERGO    R317704   3.351   9.106   6.925 -0.0651  0.0300  0.1654
 1287ERGO    R417705   3.302   8.846   7.048 -0.2813  0.0798  0.1673
 1287ERGO    R517706   3.217   9.036   7.110 -0.0568  0.1607  0.2170
 1287ERGO    C117707   3.393   8.936   7.433 -0.0244 -0.0373  0.1389
 1287ERGO    C217708   3.512   8.916   7.771 -0.1188  0.2295 -0.0943
 1288ERGO   ROH17709  12.754  10.144  10.457 -0.1710 -0.3744  0.0368
 1288ERGO    R117710  12.702  10.226  10.191 -0.1042 -0.1426  0.0933
 1288ERGO    R217711  12.899  10.330  10.026 -0.0091 -0.2177  0.1570
 1288ERGO    R317712  12.817  10.133   9.858 -0.2075 -0.0283  0.0251
 1288ERGO    R417713  13.024  10.275   9.708  0.1879 -0.3478  0.2543
 1288ERGO    R517714  12.821  10.233   9.641  0.1688  0.0294  0.0544
 1288ERGO    C117715  13.019  10.058   9.366  0.1163 -0.2456  0.1873
 1288ERGO    C217716  13.169   9.876   9.187  0.1525 -0.0054 -0.1838
 1289ERGO   ROH17717   2.469   4.579   6.421 -0.1674  0.1442 -0.0370
 1289ERGO    R117718   2.447   4.681   6.684 -0.1982  0.0079  0.0137
 1289ERGO    R217719   2.209   4.678   6.825 -0.1847 -0.1755  0.0296
 1289ERGO    R317720   2.359   4.550   7.013 -0.1098 -0.1907 -0.0396
 1289ERGO    R417721   2.152   4.691   7.166  0.0531 -0.0522  0.0667
 1289ERGO    R517722   2.368   4.704   7.196  0.0847 -0.1390 -0.0868
 1289ERGO    C117723   2.260   4.579   7.540  0.2619  0.0054  0.0235
 1289ERGO    C217724   2.161   4.491   7.906  0.0824 -0.0264 -0.3932
 1290ERGO   ROH17725   3.378  14.315   9.922 -0.2793 -0.2988  0.0457
 1290ERGO    R117726   3.497  14.380   9.673 -0.1594 -0.2642  0.1118
 1290ERGO    R217727   3.599  14.187   9.502 -0.2444 -0.2536  0.0558
 1290ERGO    R317728   3.432  14.306   9.323 -0.1052 -0.0530  0.0542
 1290ERGO    R417729   3.635  14.172   9.159 -0.1570 -0.1571  0.0597
 1290ERGO    R517730   3.577  14.382   9.148  0.0096 -0.1008  0.1225
 1290ERGO    C117731   3.501  14.274   8.790  0.0247  0.0875  0.0606
 1290ERGO    C217732   3.575  14.319   8.489 -0.0404 -0.1512  0.0008
 1291ERGO   ROH17733   9.985   4.497   5.999 -0.0753 -0.0079  0.0872
 1291ERGO    R117734  10.102   4.464   6.255 -0.0848 -0.1703  0.0716
 1291ERGO    R217735  10.244   4.665   6.381  0.1573 -0.3422  0.0818
 1291ERGO    R317736  10.068   4.618   6.583  0.1224 -0.1684  0.0934
 1291ERGO    R417737  10.231   4.843   6.676 -0.0294  0.0489 -0.1540
 1291ERGO    R517738  10.196   4.656   6.782  0.0422  0.1674  0.0865
 1291ERGO    C117739  10.060   4.903   7.038 -0.1709  0.4399 -0.2804
 1291ERGO    C217740   9.836   5.020   7.307 -0.1345  0.0493 -0.0823
 1292ERGO   ROH17741   8.455  13.481  10.165 -0.0563 -0.0610 -0.0230
 1292ERGO    R117742   8.401  13.720  10.024  0.0624 -0.0061  0.0213
 1292ERGO    R217743   8.563  13.814   9.820  0.0835 -0.0748  0.0015
 1292ERGO    R317744   8.331  13.814   9.679  0.0545  0.0823  0.0477
 1292ERGO    R417745   8.528  13.934   9.498  0.1299 -0.1945 -0.0483
 1292ERGO    R517746   8.336  14.019   9.556  0.2255  0.0178 -0.0508
 1292ERGO    C117747   8.290  14.003   9.178  0.1298 -0.1166 -0.0338
 1292ERGO    C217748   8.068  14.216   8.903 -0.0943  0.1777 -0.1295
 1293ERGO   ROH17749   8.810   2.199   9.925 -0.2559 -0.0795 -0.1973
 1293ERGO    R117750   9.008   2.322   9.765 -0.2632  0.0767 -0.0893
 1293ERGO    R217751   9.168   2.180   9.591 -0.0045  0.1886  0.0466
 1293ERGO    R317752   9.075   2.360   9.409 -0.0600  0.0608 -0.0530
 1293ERGO    R417753   9.286   2.213   9.267  0.3010  0.3522  0.1707
 1293ERGO    R517754   9.271   2.429   9.289 -0.0235  0.3329  0.1583
 1293ERGO    C117755   9.267   2.402   8.909  0.4268  0.3275  0.1495
 1293ERGO    C217756   9.398   2.588   8.638  0.1723  0.0045 -0.1951
 1294ERGO   ROH17757  15.288   5.215  10.332 -0.0867 -0.3331  0.0165
 1294ERGO    R117758  15.445   5.211  10.096 -0.0271  0.1320  0.0394
 1294ERGO    R217759  15.412   5.020   9.898  0.5117  0.0711 -0.0074
 1294ERGO    R317760  15.384   5.238   9.738 -0.0446  0.0450  0.0362
 1294ERGO    R417761  15.383   5.009   9.554  0.5266  0.0675 -0.0084
 1294ERGO    R517762  15.512   5.185   9.542  0.0905  0.4055  0.0203
 1294ERGO    C117763  15.340   5.207   9.203  0.0130  0.0409  0.0319
 1294ERGO    C217764  15.206   5.131   8.893  0.2111 -0.0764 -0.2474
 1295ERGO   ROH17765   3.852  10.572   6.086  0.2345  0.0295 -0.0348
 1295ERGO    R117766   3.806  10.687   6.341  0.0842 -0.1245  0.0107
 1295ERGO    R217767   3.724  10.538   6.559  0.2994 -0.3244 -0.0337
 1295ERGO    R317768   3.943  10.650   6.676  0.1562 -0.0596 -0.0134
 1295ERGO    R417769   3.773  10.569   6.900  0.1627 -0.0873 -0.0341
 1295ERGO    R517770   3.856  10.767   6.865 -0.0094 -0.0346 -0.1093
 1295ERGO    C117771   4.007  10.692   7.207 -0.0514  0.2995 -0.0153
 1295ERGO    C217772   4.077  10.575   7.540 -0.0155 -0.2426  0.3103
 1296ERGO   ROH17773  17.519  10.958   6.326  0.1540 -0.2334  0.0037
 1296ERGO    R117774  17.432  11.053   6.577  0.1958  0.0383 -0.0814
 1296ERGO    R217775  17.290  10.896   6.756 -0.1145  0.3435 -0.0454
 1296ERGO    R317776  17.488  10.969   6.926 -0.0673  0.1407 -0.0118
 1296ERGO    R417777  17.264  10.897   7.100 -0.1029  0.1861 -0.0435
 1296ERGO    R517778  17.376  11.083   7.103  0.0068  0.1180  0.0487
 1296ERGO    C117779  17.436  10.965   7.461 -0.0518 -0.0963 -0.0109
 1296ERGO    C217780  17.322  11.093   7.685 -0.0373 -0.3533 -0.3073
 1297ERGO   ROH17781  16.944   0.121   9.954 -0.0592 -0.2806  0.1244
 1297ERGO    R117782  17.046   0.006   9.716 -0.1645 -0.2703  0.0742
 1297ERGO    R217783  16.886  -0.050   9.497 -0.2004  0.0632  0.0132
 1297ERGO    R317784  17.070   0.101   9.366  0.0173 -0.0912  0.1330
 1297ERGO    R417785  16.922  -0.036   9.154 -0.1703  0.2603  0.0229
 1297ERGO    R517786  17.138  -0.034   9.181 -0.1632 -0.0576  0.0371
 1297ERGO    C117787  17.116   0.114   8.831  0.0513  0.2300  0.1410
 1297ERGO    C217788  16.915   0.154   8.645 -0.1130  0.0202  0.0290
 1298ERGO   ROH17789   1.911  16.449   6.285  0.1945  0.0373 -0.0836
 1298ERGO    R117790   1.910  16.348   6.550  0.0932  0.0432 -0.0820
 1298ERGO    R217791   1.806  16.491   6.764  0.0529  0.0660 -0.1201
 1298ERGO    R317792   1.659  16.265   6.800  0.0000  0.0932 -0.1573
 1298ERGO    R417793   1.655  16.398   7.060  0.2295 -0.0624 -0.0679
 1298ERGO    R517794   1.714  16.193   7.021  0.1328 -0.0618 -0.2373
 1298ERGO    C117795   1.429  16.132   7.267  0.2827 -0.1115 -0.0724
 1298ERGO    C217796   1.146  15.974   7.545  0.2394  0.0083  0.0336
 1299ERGO   ROH17797  15.862   1.503   9.959  0.2984 -0.0587  0.1234
 1299ERGO    R117798  15.937   1.435   9.695  0.1008 -0.1376  0.0856
 1299ERGO    R217799  15.756   1.426   9.487  0.0067  0.1756  0.1473
 1299ERGO    R317800  15.931   1.597   9.369  0.2357 -0.0755  0.1139
 1299ERGO    R417801  15.791   1.470   9.146  0.0315  0.1036  0.1404
 1299ERGO    R517802  16.007   1.480   9.174  0.0524 -0.1958  0.1139
 1299ERGO    C117803  15.976   1.656   8.837  0.2608 -0.1740  0.1050
 1299ERGO    C217804  16.022   1.712   8.528 -0.0646  0.0777 -0.0191
 1300ERGO   ROH17805  10.004   2.482   9.803 -0.0850 -0.1527  0.0233
 1300ERGO    R117806  10.137   2.523   9.556 -0.2126 -0.0282 -0.0269
 1300ERGO    R217807  10.294   2.328   9.438  0.1393  0.2004  0.0456
 1300ERGO    R317808  10.131   2.373   9.225  0.0002 -0.2238  0.0546
 1300ERGO    R417809  10.366   2.238   9.112  0.2611  0.1905  0.0755
 1300ERGO    R517810  10.280   2.428   9.046 -0.1379 -0.0025  0.0020
 1300ERGO    C117811  10.254   2.228   8.722  0.2013 -0.2135  0.1012
 1300ERGO    C217812  10.197   2.200   8.427 -0.0897 -0.0068  0.2174
 1301ERGO   ROH17813   7.325   9.520   9.614 -0.0542  0.1144 -0.0051
 1301ERGO    R117814   7.409   9.647   9.375  0.0517 -0.1413 -0.1078
 1301ERGO    R217815   7.477   9.506   9.147 -0.3407 -0.3703 -0.0894
 1301ERGO    R317816   7.292   9.668   9.031 -0.1082 -0.0682 -0.0513
 1301ERGO    R417817   7.485   9.611   8.818 -0.1672 -0.2897 -0.0601
 1301ERGO    R517818   7.419   9.808   8.884  0.1089 -0.2058 -0.0045
 1301ERGO    C117819   7.316   9.824   8.518  0.1521  0.0410 -0.0071
 1301ERGO    C217820   7.289   9.754   8.211 -0.3149 -0.1271  0.1379
 1302ERGO   ROH17821   4.307   4.124  10.139  0.1915 -0.2701  0.0297
 1302ERGO    R117822   4.396   4.087   9.873  0.2288 -0.0614  0.0117
 1302ERGO    R217823   4.224   4.033   9.664  0.2799 -0.1216 -0.0137
 1302ERGO    R317824   4.344   4.250   9.551  0.0823  0.0446  0.0873
 1302ERGO    R417825   4.126   4.181   9.368  0.1952 -0.1276  0.0110
 1302ERGO    R517826   4.336   4.206   9.316  0.1862  0.1114  0.0696
 1302ERGO    C117827   4.181   4.470   9.089 -0.0396  0.0249  0.1202
 1302ERGO    C217828   4.090   4.535   8.792 -0.2642 -0.3912  0.1529
 1303ERGO   ROH17829   3.202  15.991   6.389 -0.2096 -0.0299  0.0693
 1303ERGO    R117830   3.298  16.042   6.650 -0.0453 -0.1348  0.0312
 1303ERGO    R217831   3.130  16.076   6.867  0.0755  0.0805  0.0956
 1303ERGO    R317832   3.283  15.878   6.974 -0.1217 -0.1041  0.0428
 1303ERGO    R417833   3.264  16.080   7.185  0.0147 -0.1796  0.1265
 1303ERGO    R517834   3.447  15.994   7.105 -0.0449 -0.3074  0.1287
 1303ERGO    C117835   3.485  15.897   7.472 -0.2058 -0.5042  0.0949
 1303ERGO    C217836   3.552  15.705   7.806 -0.1376 -0.1617  0.1443
 1304ERGO   ROH17837  15.865  14.935   6.132  0.1616  0.1239 -0.0028
 1304ERGO    R117838  15.845  14.731   6.328  0.1547  0.0631 -0.0655
 1304ERGO    R217839  15.712  14.768   6.568  0.2572  0.0336  0.0011
 1304ERGO    R317840  15.578  14.545   6.490  0.1399  0.1160 -0.0320
 1304ERGO    R417841  15.530  14.563   6.778  0.2028  0.0537 -0.0267
 1304ERGO    R517842  15.608  14.390   6.670  0.1008  0.0512 -0.0859
 1304ERGO    C117843  15.297  14.234   6.827  0.0610  0.1428 -0.0740
 1304ERGO    C217844  15.140  14.237   7.126  0.1678  0.2199 -0.0843
 1305ERGO   ROH17845   5.048  15.998  10.494 -0.0374 -0.0441  0.0432
 1305ERGO    R117846   4.961  15.950  10.229 -0.1172 -0.0432  0.0695
 1305ERGO    R217847   4.914  16.153  10.047 -0.0493 -0.0502  0.0472
 1305ERGO    R317848   5.087  16.011   9.894 -0.1548 -0.1649  0.0317
 1305ERGO    R417849   4.912  16.146   9.702  0.0256  0.0994  0.0425
 1305ERGO    R517850   4.954  15.933   9.711 -0.1945  0.0475 -0.0351
 1305ERGO    C117851   5.073  16.009   9.356 -0.0298  0.0787  0.0253
 1305ERGO    C217852   5.067  15.962   9.053 -0.2273  0.3476  0.0601
 1306ERGO   ROH17853   3.510  17.352   6.184 -0.0542 -0.3255  0.0739
 1306ERGO    R117854   3.466  17.525   6.403  0.1667 -0.1706 -0.0012
 1306ERGO    R217855   3.264  17.484   6.587  0.0798  0.1954 -0.0101
 1306ERGO    R317856   3.468  17.498   6.766  0.0786 -0.0278  0.0113
 1306ERGO    R417857   3.226  17.509   6.930  0.0665  0.2565 -0.0156
 1306ERGO    R517858   3.391  17.650   6.933  0.2308  0.0716 -0.0054
 1306ERGO    C117859   3.395  17.535   7.297  0.0575  0.0827  0.0012
 1306ERGO    C217860   3.351  17.268   7.509 -0.1839  0.2711 -0.0045
 1307ERGO   ROH17861   1.434   9.622   6.652  0.0617  0.3147  0.0970
 1307ERGO    R117862   1.555   9.683   6.901  0.0898  0.2031  0.1104
 1307ERGO    R217863   1.447   9.866   7.079  0.0511  0.0382  0.2520
 1307ERGO    R317864   1.464   9.657   7.252  0.1796 -0.0656  0.1177
 1307ERGO    R417865   1.459   9.892   7.423  0.0670 -0.1644  0.2685
 1307ERGO    R517866   1.607   9.734   7.427  0.1576 -0.0922  0.1534
 1307ERGO    C117867   1.481   9.711   7.786  0.1970 -0.3799  0.1521
 1307ERGO    C217868   1.562   9.762   8.115  0.0086  0.2418  0.1843
 1308ERGO   ROH17869   5.782   9.492   9.757 -0.1121  0.0110 -0.0660
 1308ERGO    R117870   5.810   9.527   9.477 -0.1326 -0.1401 -0.0872
 1308ERGO    R217871   6.020   9.418   9.334 -0.0874 -0.1260 -0.0249
 1308ERGO    R317872   5.819   9.313   9.184 -0.0373 -0.3064  0.0350
 1308ERGO    R417873   6.052   9.314   9.006 -0.0874 -0.0879 -0.0375
 1308ERGO    R517874   5.857   9.400   8.964 -0.1822 -0.2647  0.0244
 1308ERGO    C117875   5.883   9.154   8.674 -0.0404 -0.2351  0.0114
 1308ERGO    C217876   5.783   9.099   8.349 -0.0483  0.2522 -0.0259
 1309ERGO   ROH17877   9.660  13.150  10.370 -0.0430 -0.1636 -0.0421
 1309ERGO    R117878   9.605  13.113  10.095 -0.1501 -0.1398 -0.0257
 1309ERGO    R217879   9.347  13.095   9.996 -0.2001  0.0733  0.0416
 1309ERGO    R317880   9.430  13.296   9.833 -0.0648 -0.0085  0.0111
 1309ERGO    R417881   9.199  13.179   9.696 -0.0128  0.0073 -0.0693
 1309ERGO    R517882   9.398  13.210   9.612  0.0337 -0.0739  0.0268
 1309ERGO    C117883   9.191  13.417   9.367  0.2234 -0.1079 -0.1627
 1309ERGO    C217884   9.258  13.693   9.126  0.2324 -0.1454  0.0358
 1310ERGO   ROH17885  12.762   6.402   9.293  0.0690  0.4280  0.1574
 1310ERGO    R117886  12.849   6.277   9.055  0.1482  0.1539  0.3261
 1310ERGO    R217887  12.846   6.404   8.810 -0.0572 -0.2229  0.1240
 1310ERGO    R317888  13.108   6.334   8.806  0.0239  0.0620  0.1741
 1310ERGO    R417889  13.014   6.289   8.531  0.0603 -0.2570  0.2084
 1310ERGO    R517890  13.116   6.145   8.659  0.2263 -0.0479  0.3209
 1310ERGO    C117891  13.359   6.156   8.365  0.2049 -0.0094  0.3045
 1310ERGO    C217892  13.662   6.146   8.108  0.1333  0.1209 -0.3572
 1311ERGO   ROH17893  11.434   1.265  10.096 -0.0879  0.1162  0.0732
 1311ERGO    R117894  11.429   1.336   9.822 -0.4389 -0.1515  0.0041
 1311ERGO    R217895  11.658   1.353   9.668 -0.5367  0.4630 -0.0894
 1311ERGO    R317896  11.522   1.181   9.506 -0.0486 -0.1554  0.1141
 1311ERGO    R417897  11.751   1.269   9.346 -0.3158  0.3943 -0.0105
 1311ERGO    R517898  11.541   1.277   9.288 -0.3798 -0.3186  0.0016
 1311ERGO    C117899  11.678   1.058   9.007  0.2711 -0.2262  0.2265
 1311ERGO    C217900  11.545   0.840   8.653 -0.2387 -0.5665  0.0547
 1312ERGO   ROH17901   1.257   4.364   9.902 -0.1106  0.0999  0.1498
 1312ERGO    R117902   1.268   4.460   9.636  0.1260  0.1353  0.1707
 1312ERGO    R217903   1.380   4.313   9.430 -0.0717 -0.0226  0.1712
 1312ERGO    R317904   1.138   4.357   9.312  0.0267  0.4219  0.1175
 1312ERGO    R417905   1.326   4.329   9.089  0.0020 -0.1031  0.1554
 1312ERGO    R517906   1.189   4.495   9.123  0.3428  0.2128  0.0437
 1312ERGO    C117907   1.069   4.379   8.780  0.1372  0.2673  0.0960
 1312ERGO    C217908   0.970   4.367   8.448  0.1179  0.0751 -0.1412
 1313ERGO   ROH17909  12.387  15.389  10.020  0.4521  0.0234 -0.0693
 1313ERGO    R117910  12.335  15.222   9.798  0.2841  0.0704 -0.0669
 1313ERGO    R217911  12.079  15.166   9.710  0.2152  0.0805  0.1209
 1313ERGO    R317912  12.176  15.257   9.472  0.0270  0.1370  0.0639
 1313ERGO    R417913  11.912  15.147   9.408  0.0485 -0.0003  0.2170
 1313ERGO    R517914  12.101  15.095   9.312  0.0186  0.1020  0.1045
 1313ERGO    C117915  11.905  15.220   9.009 -0.2253  0.0056  0.2192
 1313ERGO    C217916  11.937  15.261   8.688 -0.0124 -0.1009  0.1524
 1314ERGO   ROH17917   8.902  10.934   9.760  0.0569  0.0466  0.2083
 1314ERGO    R117918   8.927  10.798   9.513  0.0088  0.0521  0.2005
 1314ERGO    R217919   9.172  10.736   9.400 -0.0130  0.1007  0.1262
 1314ERGO    R317920   9.070  10.484   9.397  0.0357  0.0805  0.1562
 1314ERGO    R417921   9.305  10.473   9.221  0.0742  0.0898  0.2064
 1314ERGO    R517922   9.102  10.411   9.171  0.0959  0.0410  0.1772
 1314ERGO    C117923   9.288  10.082   9.113  0.1708  0.0644  0.2814
 1314ERGO    C217924   9.597   9.848   9.011 -0.2016 -0.3685 -0.0842
 1315ERGO   ROH17925   5.005  10.590   9.744  0.1051  0.0215 -0.0089
 1315ERGO    R117926   4.875  10.671   9.506  0.1798  0.0371 -0.0442
 1315ERGO    R217927   4.968  10.602   9.255  0.1296 -0.1406 -0.0128
 1315ERGO    R317928   4.715  10.507   9.224  0.0484  0.0596  0.0158
 1315ERGO    R417929   4.766  10.664   8.982  0.1301  0.0627  0.0313
 1315ERGO    R517930   4.597  10.686   9.117  0.1685  0.1719  0.0660
 1315ERGO    C117931   4.412  10.612   8.792  0.0541  0.3689  0.0839
 1315ERGO    C217932   4.461  10.476   8.493 -0.0606 -0.1600  0.3598
 1316ERGO   ROH17933  13.084  10.416   6.388  0.0099 -0.2549  0.0968
 1316ERGO    R117934  13.096  10.399   6.670  0.0995 -0.2807  0.0922
 1316ERGO    R217935  13.329  10.336   6.806  0.2074 -0.0462  0.0271
 1316ERGO    R317936  13.276  10.567   6.938 -0.0150 -0.1180  0.0675
 1316ERGO    R417937  13.477  10.431   7.103  0.2007  0.0989 -0.0161
 1316ERGO    R517938  13.284  10.506   7.169  0.1363 -0.1315  0.0582
 1316ERGO    C117939  13.515  10.704   7.400 -0.0120  0.1159 -0.0034
 1316ERGO    C217940  13.559  10.840   7.670 -0.1744  0.2510  0.2862
 1317ERGO   ROH17941   6.109  17.190   6.509 -0.1347  0.0084  0.0521
 1317ERGO    R117942   6.111  17.090   6.774 -0.3260 -0.0560  0.0314
 1317ERGO    R217943   6.323  17.131   6.946 -0.1222 -0.7057 -0.0357
 1317ERGO    R317944   6.129  17.232   7.109  0.2144 -0.1596  0.0539
 1317ERGO    R417945   6.276  17.041   7.277 -0.3099 -0.6847 -0.0556
 1317ERGO    R517946   6.061  17.044   7.242 -0.3276 -0.0118  0.0044
 1317ERGO    C117947   6.067  17.082   7.622 -0.1033 -0.1597  0.0168
 1317ERGO    C217948   6.278  17.220   7.864  0.0822  0.3212 -0.1366
 1318ERGO   ROH17949  14.861  10.464   6.574  0.0155 -0.0729 -0.0733
 1318ERGO    R117950  14.942  10.372   6.829  0.2455  0.2503 -0.0248
 1318ERGO    R217951  15.020  10.544   7.031 -0.2227  0.5580 -0.0933
 1318ERGO    R317952  14.829  10.411   7.172  0.1060  0.1033 -0.0520
 1318ERGO    R417953  15.008  10.523   7.376 -0.2004  0.6979 -0.0831
 1318ERGO    R517954  14.948  10.315   7.356  0.3596  0.5080  0.0119
 1318ERGO    C117955  14.822  10.387   7.709  0.1212  0.3524 -0.0383
 1318ERGO    C217956  14.634  10.210   7.968  0.2959  0.0538 -0.2101
 1319ERGO   ROH17957   2.484   9.008  10.320 -0.0622 -0.2160 -0.0602
 1319ERGO    R117958   2.504   8.922  10.052 -0.2354 -0.3426 -0.0333
 1319ERGO    R217959   2.285   8.844   9.904 -0.4030  0.0725 -0.0115
 1319ERGO    R317960   2.376   9.030   9.729 -0.0026 -0.1666 -0.0704
 1319ERGO    R417961   2.228   8.838   9.563 -0.6387  0.2082  0.0227
 1319ERGO    R517962   2.434   8.904   9.533 -0.4608 -0.3425 -0.1071
 1319ERGO    C117963   2.281   9.009   9.200 -0.4002  0.0629 -0.0126
 1319ERGO    C217964   2.067   8.909   8.961  0.4073 -0.2047  0.1890
 1320ERGO   ROH17965  13.835   5.093  10.150  0.1073 -0.1297 -0.1668
 1320ERGO    R117966  13.781   5.226   9.906  0.0479 -0.2803 -0.2373
 1320ERGO    R217967  13.912   5.457   9.830 -0.2377 -0.1096 -0.2352
 1320ERGO    R317968  13.967   5.314   9.606  0.0905 -0.1073 -0.1606
 1320ERGO    R417969  13.993   5.593   9.522 -0.4298 -0.0873 -0.2773
 1320ERGO    R517970  13.870   5.441   9.428 -0.1184 -0.3712 -0.2389
 1320ERGO    C117971  14.092   5.536   9.133 -0.2336 -0.0721 -0.2317
 1320ERGO    C217972  14.155   5.523   8.841 -0.0933 -0.0331  0.2119
 1321ERGO   ROH17973  10.007   7.407   6.141  0.0509  0.2023 -0.0883
 1321ERGO    R117974   9.978   7.286   6.396  0.2965  0.1817 -0.0666
 1321ERGO    R217975  10.103   7.385   6.622  0.1414  0.4531 -0.0860
 1321ERGO    R317976   9.850   7.385   6.722  0.1381  0.0004 -0.0746
 1321ERGO    R417977  10.024   7.396   6.958  0.1232  0.5425 -0.0937
 1321ERGO    R517978   9.865   7.252   6.920  0.4215  0.1800  0.0239
 1321ERGO    C117979   9.740   7.403   7.248  0.1094  0.1696 -0.0874
 1321ERGO    C217980   9.668   7.383   7.578  0.2629 -0.0990  0.1075
 1322ERGO   ROH17981   3.374   9.810   9.826 -0.4007  0.1538  0.0932
 1322ERGO    R117982   3.380   9.933   9.572 -0.5154  0.0672  0.0495
 1322ERGO    R217983   3.571   9.873   9.382 -0.4359  0.2089  0.0933
 1322ERGO    R317984   3.355   9.825   9.225 -0.3681 -0.0853  0.0831
 1322ERGO    R417985   3.565   9.910   9.038 -0.4684  0.2394  0.0962
 1322ERGO    R517986   3.364   9.995   9.056 -0.6001 -0.0438  0.1013
 1322ERGO    C117987   3.357   9.885   8.691 -0.4238 -0.0190  0.0882
 1322ERGO    C217988   3.621   9.782   8.451  0.4482 -0.1179  0.2172
 1323ERGO   ROH17989   1.851   9.623  10.330  0.0077 -0.0409 -0.0645
 1323ERGO    R117990   1.837   9.661  10.050  0.0957 -0.0855 -0.0749
 1323ERGO    R217991   1.734   9.890   9.935  0.0518 -0.1407 -0.1445
 1323ERGO    R317992   1.974   9.896   9.808  0.0962 -0.0687 -0.0588
 1323ERGO    R417993   1.806  10.083   9.658  0.0546 -0.2057 -0.1891
 1323ERGO    R517994   1.918   9.915   9.576  0.1690 -0.1818 -0.0875
 1323ERGO    C117995   2.073  10.201   9.376  0.0979 -0.1759 -0.1347
 1323ERGO    C217996   2.158  10.437   9.195  0.1644 -0.1987 -0.1403
 1324ERGO   ROH17997  11.565   6.419  10.194  0.1410 -0.1198  0.0373
 1324ERGO    R117998  11.616   6.418   9.915  0.0390 -0.1009  0.0180
 1324ERGO    R217999  11.797   6.590   9.797 -0.0443 -0.0555 -0.0460
 1324ERGO    R318000  11.903   6.360   9.699 -0.0266 -0.0279 -0.0892
 1324ERGO    R418001  11.988   6.566   9.510  0.0697  0.0317  0.0220
 1324ERGO    R518002  11.884   6.381   9.462  0.0727  0.0608 -0.0885
 1324ERGO    C118003  12.199   6.336   9.251  0.1526  0.1085  0.0210
 1324ERGO    C218004  12.385   6.377   8.953  0.1661  0.1526  0.4273
 1325ERGO   ROH18005   1.937  13.013   6.480 -0.0972 -0.0029 -0.0546
 1325ERGO    R118006   1.925  12.976   6.760 -0.0925  0.0607 -0.0462
 1325ERGO    R218007   1.691  13.007   6.904 -0.1100  0.0009 -0.0634
 1325ERGO    R318008   1.749  12.756   6.991 -0.0111  0.0450  0.0016
 1325ERGO    R418009   1.565  12.863   7.192  0.0024  0.0509  0.0118
 1325ERGO    R518010   1.762  12.776   7.229  0.0390  0.1234 -0.0069
 1325ERGO    C118011   1.547  12.543   7.441  0.1607  0.1215  0.1166
 1325ERGO    C218012   1.253  12.310   7.602 -0.1188 -0.1139 -0.1157
 1326ERGO   ROH18013   8.272  16.248   8.134  0.0559 -0.0914  0.2202
 1326ERGO    R118014   8.148  16.359   8.363 -0.0268 -0.1846  0.2212
 1326ERGO    R218015   7.944  16.546   8.347  0.1095 -0.0334  0.2227
 1326ERGO    R318016   7.812  16.367   8.504 -0.1203 -0.0685 -0.0040
 1326ERGO    R418017   7.649  16.609   8.516  0.1943  0.1349  0.3102
 1326ERGO    R518018   7.727  16.497   8.685  0.0559 -0.1883  0.1671
 1326ERGO    C118019   7.354  16.478   8.762  0.0281  0.2000  0.1483
 1326ERGO    C218020   7.103  16.260   8.981 -0.1155 -0.0958  0.1310
 1327ERGO   ROH18021  17.742   8.382   6.218 -0.1515  0.0660  0.1456
 1327ERGO    R118022  17.676   8.361   6.492 -0.2562  0.0081  0.1164
 1327ERGO    R218023  17.557   8.136   6.600 -0.0994 -0.1004  0.0635
 1327ERGO    R318024  17.768   8.146   6.771 -0.1839  0.0940  0.1599
 1327ERGO    R418025  17.580   7.958   6.895 -0.0066 -0.2069 -0.0070
 1327ERGO    R518026  17.668   8.134   6.989 -0.2703 -0.1302  0.1123
 1327ERGO    C118027  17.791   7.864   7.228 -0.0318 -0.0865  0.0423
 1327ERGO    C218028  17.819   7.713   7.422  0.2227  0.0999 -0.0044
 1328ERGO   ROH18029   9.636  16.618   6.139  0.0275  0.1127 -0.0489
 1328ERGO    R118030   9.528  16.515   6.380  0.1469  0.0130 -0.0369
 1328ERGO    R218031   9.650  16.554   6.625 -0.0025  0.3688 -0.0135
 1328ERGO    R318032   9.406  16.652   6.694 -0.2274 -0.0719 -0.1409
 1328ERGO    R418033   9.523  16.561   6.946 -0.0178  0.4766 -0.0213
 1328ERGO    R518034   9.328  16.505   6.865  0.0923 -0.0458  0.0352
 1328ERGO    C118035   9.220  16.657   7.198 -0.2378  0.1256 -0.1455
 1328ERGO    C218036   9.183  16.730   7.565  0.0313  0.4271  0.1316
 1329ERGO   ROH18037   0.949   6.823  10.037 -0.0610 -0.2284 -0.0630
 1329ERGO    R118038   1.038   6.923   9.787 -0.0298 -0.1526 -0.0214
 1329ERGO    R218039   1.303   6.914   9.709 -0.0325 -0.1873 -0.0162
 1329ERGO    R318040   1.201   6.788   9.492 -0.0549 -0.0757 -0.0720
 1329ERGO    R418041   1.452   6.905   9.398 -0.1660  0.1657 -0.0954
 1329ERGO    R518042   1.255   6.931   9.308 -0.2298  0.1155  0.0175
 1329ERGO    C118043   1.443   6.781   9.012 -0.2648  0.4762 -0.1939
 1329ERGO    C218044   1.665   6.647   8.887  0.0411 -0.2037 -0.1892
 1330ERGO   ROH18045  17.777   6.671  10.158 -0.0969 -0.0966  0.0983
 1330ERGO    R118046  17.803   6.472   9.959 -0.0329 -0.0202  0.0300
 1330ERGO    R218047  17.746   6.520   9.692  0.0983  0.0949  0.0221
 1330ERGO    R318048  17.998   6.427   9.655  0.1020  0.0732  0.1017
 1330ERGO    R418049  17.842   6.301   9.443  0.1702  0.1343  0.0145
 1330ERGO    R518050  17.969   6.200   9.587  0.1019  0.0903  0.0439
 1330ERGO    C118051  18.135   6.086   9.263  0.2155  0.1369  0.0848
 1330ERGO    C218052  18.276   5.938   8.854 -0.0566  0.0922 -0.5128
 1331ERGO   ROH18053   2.546   4.472   9.934  0.1324  0.1326 -0.1013
 1331ERGO    R118054   2.646   4.324   9.715  0.1257  0.0633 -0.0607
 1331ERGO    R218055   2.484   4.240   9.505  0.0871 -0.1191  0.0249
 1331ERGO    R318056   2.670   4.370   9.355 -0.0195 -0.1028 -0.0897
 1331ERGO    R418057   2.586   4.144   9.189 -0.0051 -0.1564  0.0082
 1331ERGO    R518058   2.790   4.196   9.244 -0.0089 -0.0792 -0.0961
 1331ERGO    C118059   2.819   4.210   8.864 -0.1588 -0.1629 -0.1090
 1331ERGO    C218060   3.046   4.334   8.556 -0.2360 -0.0135 -0.0936
 1332ERGO   ROH18061   8.565   7.105   9.855 -0.0334  0.0312  0.0255
 1332ERGO    R118062   8.726   7.064   9.625 -0.0466 -0.1775  0.0531
 1332ERGO    R218063   8.631   6.936   9.398 -0.2374  0.1112 -0.0269
 1332ERGO    R318064   8.716   7.163   9.276  0.2474  0.0068  0.0924
 1332ERGO    R418065   8.655   6.980   9.056 -0.1609  0.2317 -0.0076
 1332ERGO    R518066   8.842   7.087   9.087  0.0830 -0.1759  0.0465
 1332ERGO    C118067   8.749   7.219   8.742  0.3388  0.2038  0.1156
 1332ERGO    C218068   8.540   7.084   8.442  0.2474  0.2043 -0.0444
 1333ERGO   ROH18069  16.704  13.444   6.715  0.0492 -0.1610 -0.0951
 1333ERGO    R118070  16.497  13.391   6.901  0.1045 -0.1661 -0.0339
 1333ERGO    R218071  16.533  13.232   7.124  0.2072 -0.0682  0.0216
 1333ERGO    R318072  16.438  13.450   7.255  0.1540 -0.0514 -0.0446
 1333ERGO    R418073  16.500  13.257   7.467 -0.0196 -0.0558  0.0002
 1333ERGO    R518074  16.310  13.359   7.436  0.0181 -0.0263 -0.1282
 1333ERGO    C118075  16.391  13.476   7.790 -0.2014 -0.0327 -0.0746
 1333ERGO    C218076  16.490  13.445   8.070  0.0133 -0.0802 -0.3074
 1334ERGO   ROH18077   0.748   0.336   8.054  0.1902  0.0288 -0.1490
 1334ERGO    R118078   0.955   0.157   8.124  0.1109  0.0637  0.1972
 1334ERGO    R218079   1.205   0.165   8.006  0.0902 -0.3335  0.1026
 1334ERGO    R318080   1.291   0.182   8.263  0.1601  0.1995  0.0548
 1334ERGO    R418081   1.536   0.186   8.103  0.1547 -0.7278 -0.0180
 1334ERGO    R518082   1.491   0.051   8.268 -0.0963 -0.1999  0.3692
 1334ERGO    C118083   1.809   0.214   8.401  0.2578 -0.4569 -0.1331
 1334ERGO    C218084   1.990   0.075   8.713  0.0902 -0.3763  0.4423
 1335ERGO   ROH18085   3.810   0.017  10.148 -0.0516 -0.1512 -0.0418
 1335ERGO    R118086   3.779  -0.081   9.884 -0.0332  0.0136 -0.1062
 1335ERGO    R218087   3.899   0.037   9.666  0.1576  0.0236  0.0057
 1335ERGO    R318088   3.995  -0.213   9.624 -0.0445 -0.0410 -0.0890
 1335ERGO    R418089   3.936  -0.111   9.356  0.2889  0.2191 -0.0747
 1335ERGO    R518090   3.865  -0.298   9.442  0.0305  0.2179 -0.2717
 1335ERGO    C118091   4.048  -0.433   9.136  0.1757  0.2722 -0.2102
 1335ERGO    C218092   4.046  -0.505   8.809  0.0365 -0.0503 -0.2144
 1336ERGO   ROH18093   2.103  10.636   6.272 -0.2096  0.0339 -0.0177
 1336ERGO    R118094   2.190  10.571   6.534 -0.0371  0.2652 -0.0139
 1336ERGO    R218095   2.207  10.759   6.736 -0.4240  0.3493 -0.0474
 1336ERGO    R318096   2.049  10.583   6.869 -0.0357  0.0200 -0.0035
 1336ERGO    R418097   2.080  10.809   7.053 -0.2951 -0.0024  0.0641
 1336ERGO    R518098   2.120  10.600   7.097  0.0936  0.0449 -0.0473
 1336ERGO    C118099   1.857  10.673   7.363  0.1445 -0.5164  0.1700
 1336ERGO    C218100   1.804  10.723   7.628 -0.0806 -0.2148  0.0715
 1337ERGO   ROH18101  17.472   3.001  10.091  0.0865  0.5597  0.1900
 1337ERGO    R118102  17.386   2.904   9.840  0.0903  0.3901  0.2540
 1337ERGO    R218103  17.215   3.046   9.675  0.1979  0.3370  0.1010
 1337ERGO    R318104  17.413   3.009   9.492  0.2147  0.0820  0.1660
 1337ERGO    R418105  17.172   3.062   9.333  0.2794  0.1497  0.0801
 1337ERGO    R518106  17.306   2.891   9.313  0.1678  0.0394  0.2179
 1337ERGO    C118107  17.333   3.036   8.961  0.3426 -0.1987  0.1288
 1337ERGO    C218108  17.291   2.964   8.600  0.1454  0.0109 -0.2007
 1338ERGO   ROH18109  10.256   3.342   9.957  0.0190  0.0496  0.0820
 1338ERGO    R118110  10.353   3.423   9.703 -0.0603  0.1652  0.0863
 1338ERGO    R218111  10.466   3.246   9.524  0.1654  0.2951  0.0903
 1338ERGO    R318112  10.278   3.346   9.355  0.0497  0.0712  0.0838
 1338ERGO    R418113  10.509   3.286   9.184  0.2186  0.5591  0.1270
 1338ERGO    R518114  10.404   3.477   9.198 -0.1143  0.3761  0.1999
 1338ERGO    C118115  10.357   3.404   8.827  0.1410  0.5027  0.1424
 1338ERGO    C218116  10.258   3.352   8.450  0.0099  0.2028  0.0909
 1339ERGO   ROH18117  16.679  17.061   8.896  0.1816  0.0181  0.1899
 1339ERGO    R118118  16.770  17.239   8.695  0.0341  0.0131  0.1179
 1339ERGO    R218119  17.030  17.235   8.601  0.0086  0.1270  0.0531
 1339ERGO    R318120  16.908  17.209   8.360 -0.0373 -0.0011  0.0885
 1339ERGO    R418121  17.186  17.274   8.295 -0.0891  0.1775  0.0088
 1339ERGO    R518122  17.008  17.378   8.223 -0.1824  0.0465  0.0331
 1339ERGO    C118123  17.161  17.273   7.890 -0.1889  0.0866  0.0163
 1339ERGO    C218124  17.218  17.149   7.608  0.1663  0.0388 -0.0643
 1340ERGO   ROH18125  16.557  15.790  10.020  0.0619  0.1053 -0.0686
 1340ERGO    R118126  16.489  15.793   9.745  0.0551  0.2275 -0.0664
 1340ERGO    R218127  16.613  15.960   9.562  0.2221  0.1365 -0.0389
 1340ERGO    R318128  16.659  15.727   9.430 -0.0216  0.1121 -0.0836
 1340ERGO    R418129  16.618  15.925   9.218  0.0260  0.1617 -0.0451
 1340ERGO    R518130  16.513  15.736   9.241 -0.1084  0.2404 -0.0111
 1340ERGO    C118131  16.663  15.686   8.894 -0.3169  0.1536 -0.0906
 1340ERGO    C218132  16.783  15.615   8.602 -0.2213 -0.3532  0.0338
 1341ERGO   ROH18133  16.639   6.646  10.142 -0.2241 -0.0064 -0.1515
 1341ERGO    R118134  16.594   6.576   9.872 -0.1929 -0.0017 -0.1589
 1341ERGO    R218135  16.530   6.763   9.678 -0.0919  0.0148 -0.1822
 1341ERGO    R318136  16.744   6.655   9.550 -0.1001 -0.0623 -0.1298
 1341ERGO    R418137  16.584   6.777   9.337  0.0422  0.0642 -0.1585
 1341ERGO    R518138  16.654   6.571   9.344 -0.0644  0.0302 -0.1805
 1341ERGO    C118139  16.816   6.684   9.018  0.1127  0.0206 -0.0956
 1341ERGO    C218140  16.891   6.618   8.714 -0.3746  0.0450  0.0375
 1342ERGO   ROH18141   5.541   2.399  10.015 -0.1066 -0.0144 -0.0090
 1342ERGO    R118142   5.458   2.529   9.778 -0.0523 -0.0408 -0.0420
 1342ERGO    R218143   5.521   2.792   9.723 -0.0000 -0.0632 -0.0778
 1342ERGO    R318144   5.620   2.687   9.493  0.0118 -0.1170 -0.0488
 1342ERGO    R418145   5.590   2.973   9.436 -0.0157 -0.1313 -0.1254
 1342ERGO    R518146   5.508   2.808   9.319 -0.0003 -0.1727 -0.0824
 1342ERGO    C118147   5.722   2.979   9.053 -0.0137 -0.2215 -0.1258
 1342ERGO    C218148   5.979   3.074   8.910  0.3128  0.0060  0.1076
 1343ERGO   ROH18149   0.053  15.885   6.705  0.0803 -0.1970 -0.0375
 1343ERGO    R118150   0.155  15.717   6.908 -0.0013 -0.2291 -0.0222
 1343ERGO    R218151   0.210  15.808   7.164  0.1328 -0.2092 -0.0560
 1343ERGO    R318152   0.047  15.604   7.237 -0.0120 -0.0648  0.0314
 1343ERGO    R418153   0.196  15.670   7.480  0.1788 -0.1978 -0.0491
 1343ERGO    R518154   0.179  15.474   7.388 -0.0466 -0.1835 -0.0405
 1343ERGO    C118155   0.035  15.398   7.733  0.0696 -0.0557  0.0368
 1343ERGO    C218156   0.002  15.302   7.952  0.2958 -0.1082  0.1425
 1344ERGO   ROH18157  11.482   3.148   9.685 -0.0043 -0.0105 -0.1162
 1344ERGO    R118158  11.404   3.310   9.466 -0.0313 -0.0603 -0.1448
 1344ERGO    R218159  11.393   3.586   9.482 -0.1362 -0.0581 -0.1737
 1344ERGO    R318160  11.554   3.572   9.264 -0.0955 -0.0247 -0.1446
 1344ERGO    R418161  11.324   3.730   9.176 -0.1711 -0.1899 -0.2279
 1344ERGO    R518162  11.403   3.552   9.079 -0.0510 -0.1677 -0.1626
 1344ERGO    C118163  11.435   3.802   8.793 -0.1533 -0.2352 -0.2321
 1344ERGO    C218164  11.283   3.981   8.554 -0.0933  0.0666  0.1546
 1345ERGO   ROH18165   7.210   4.267   5.794  0.0486  0.1082 -0.0963
 1345ERGO    R118166   6.969   4.272   5.942  0.0547 -0.1341 -0.0723
 1345ERGO    R218167   6.863   4.047   6.063  0.3620 -0.2180  0.0549
 1345ERGO    R318168   6.868   4.203   6.285  0.1856 -0.0966 -0.0258
 1345ERGO    R418169   6.764   3.945   6.378  0.2744 -0.1004  0.0652
 1345ERGO    R518170   6.671   4.140   6.406  0.1638 -0.1309 -0.0797
 1345ERGO    C118171   6.711   4.032   6.770  0.0579  0.0820 -0.0045
 1345ERGO    C218172   6.677   3.846   7.156  0.1167 -0.0009  0.0422
 1346ERGO   ROH18173  12.753   5.051  10.266  0.2907 -0.1643 -0.0513
 1346ERGO    R118174  12.663   5.056   9.997  0.0958 -0.0298  0.0142
 1346ERGO    R218175  12.817   5.156   9.791 -0.0124 -0.0224 -0.0622
 1346ERGO    R318176  12.769   4.912   9.680 -0.1971  0.0373 -0.1185
 1346ERGO    R418177  12.894   5.068   9.466 -0.0189 -0.0225 -0.0636
 1346ERGO    R518178  12.705   4.961   9.455 -0.1107  0.1385 -0.1235
 1346ERGO    C118179  12.895   4.788   9.173 -0.1960  0.0334 -0.1173
 1346ERGO    C218180  12.966   4.638   8.957 -0.3863  0.0543  0.0245
 1347ERGO   ROH18181   4.029   1.301  10.242  0.0371 -0.2217 -0.1113
 1347ERGO    R118182   3.904   1.369   9.998 -0.1669 -0.4694 -0.0811
 1347ERGO    R218183   4.025   1.532   9.810 -0.5632 -0.1652 -0.0827
 1347ERGO    R318184   3.975   1.323   9.643 -0.1214 -0.2681 -0.1001
 1347ERGO    R418185   4.006   1.553   9.465 -0.3220 -0.2347 -0.1022
 1347ERGO    R518186   3.837   1.416   9.471 -0.1283 -0.4904 -0.2205
 1347ERGO    C118187   3.948   1.369   9.109  0.2332 -0.3718 -0.1300
 1347ERGO    C218188   4.030   1.158   8.739 -0.1792 -0.1003 -0.3511
 1348ERGO   ROH18189  15.567   5.054   6.080  0.0813  0.0851  0.0982
 1348ERGO    R118190  15.619   5.098   6.354  0.1693 -0.1029  0.1127
 1348ERGO    R218191  15.419   5.164   6.534  0.2717  0.0674  0.1610
 1348ERGO    R318192  15.515   4.949   6.670  0.0176 -0.1172  0.0581
 1348ERGO    R418193  15.441   5.141   6.879  0.3414 -0.0785  0.1482
 1348ERGO    R518194  15.635   5.043   6.855  0.2061 -0.3404  0.0578
 1348ERGO    C118195  15.545   4.925   7.206  0.1433 -0.3367  0.0443
 1348ERGO    C218196  15.477   5.009   7.516 -0.1062 -0.0398  0.2526
 1349W        W18197  16.914  11.096  14.260 -0.1612  0.0717  0.1563
 1350W        W18198   5.626  13.268   2.993  0.0826  0.1825  0.0808
 1351W        W18199   1.560   3.893   5.491  0.1956  0.1900 -0.0389
 1352W        W18200   9.568   1.080   2.534  0.0654  0.1768  0.0162
 1353W        W18201   3.411   0.025   0.440 -0.0705 -0.1737 -0.2723
 1354W        W18202  10.079  14.503   0.212 -0.0338  0.1157  0.2023
 1355W        W18203  16.771   9.626   1.123 -0.1014 -0.0273  0.1566
 1356W        W18204   4.077   8.783  10.984  0.1658  0.1949  0.2546
 1357W        W18205   6.534  18.080   0.091 -0.1874 -0.2539 -0.3879
 1358W        W18206  17.631  11.828   4.540 -0.0294 -0.1010 -0.4011
 1359W        W18207   7.460  16.613  15.966 -0.0077  0.0450  0.2341
 1360W        W18208  17.683   9.723  14.421  0.0770  0.1643 -0.0736
 1361W        W18209   2.705  13.262   3.308 -0.0517 -0.0693 -0.0606
 1362W        W18210  14.246  15.594  13.635  0.1571  0.0455  0.1592
 1363W        W18211  13.728  11.716   1.044  0.2877  0.0734  0.1741
 1364W        W18212   5.686  16.019   0.803 -0.1594  0.0625 -0.1793
 1365W        W18213   0.982   9.536   3.771 -0.1922 -0.3051 -0.0883
 1366W        W18214   2.071  12.653   3.350 -0.1354  0.0878  0.2706
 1367W        W18215  11.149  14.605  11.336 -0.0074  0.0322 -0.1166
 1368W        W18216  17.549   8.430  14.501 -0.0246  0.4024  0.1141
 1369W        W18217   2.756   3.714   3.609 -0.0790  0.5109  0.4317
 1370W        W18218   8.468   8.736   4.432  0.1584  0.0279  0.1637
 1371W        W18219  11.174   1.558  13.931  0.1542  0.5978 -0.2009
 1372W        W18220  17.402   0.581  14.226 -0.2843 -0.1322 -0.1347
 1373W        W18221  17.597   3.844  11.507 -0.2260 -0.1134 -0.0563
 1374W        W18222   6.919   9.986  13.810 -0.1000  0.1921  0.1570
 1375W        W18223  12.527  14.403  15.484 -0.0751  0.1507  0.1770
 1376W        W18224  15.397   7.702  13.275 -0.2347  0.0435 -0.1330
 1377W        W18225  13.610   8.620  12.513 -0.0891  0.1685 -0.2440
 1378W        W18226   4.458  16.762  11.624 -0.0412 -0.4553 -0.2913
 1379W        W18227   4.368  13.081   0.199 -0.3604  0.1139  0.3119
 1380W        W18228   1.153  16.546   2.174  0.1215 -0.0442  0.0422
 1381W        W18229   4.673  14.996   0.120 -0.0500  0.4114  0.0632
 1382W        W18230  17.612  15.181  13.116  0.1437  0.1955  0.0052
 1383W        W18231  12.047  16.177   3.245  0.0815  0.4753  0.1029
 1384W        W18232   1.256   7.371  15.032 -0.3456  0.0433 -0.1091
 1385W        W18233   2.536  16.764   2.993 -0.1585 -0.2693 -0.1624
 1386W        W18234   3.203  16.912   4.032  0.0177  0.0934  0.1453
 1387W        W18235  11.539   8.618   1.993  0.3220 -0.1250 -0.0007
 1388W        W18236  10.296  16.553   5.034  0.0139 -0.3275  0.0530
 1389W        W18237  17.020  10.588  14.412  0.0699 -0.2569 -0.0342
 1390W        W18238   8.895   2.262   4.068 -0.1475 -0.2891  0.3643
 1391W        W18239  16.488   3.429  15.385 -0.0548  0.1694  0.1142
 1392W        W18240   3.616  17.680  15.235 -0.0054  0.1714  0.2833
 1393W        W18241   7.040  17.089   4.761  0.1463 -0.1366  0.1333
 1394W        W18242   3.833   1.148  11.100  0.1585  0.1943 -0.2636
 1395W        W18243  14.879  10.555   4.264 -0.0946  0.1205  0.1839
 1396W        W18244  10.739  14.396  13.260 -0.0468 -0.1395 -0.3746
 1397W        W18245   3.609  16.717  12.929 -0.2015 -0.1543  0.1596
 1398W        W18246  11.594   5.735   5.693 -0.0530  0.3600 -0.1831
 1399W        W18247   5.149   5.301   2.892 -0.1891 -0.0761  0.3398
 1400W        W18248  15.411  15.068  15.448 -0.1086  0.1479  0.0709
 1401W        W18249   8.938   4.387  13.073  0.4515  0.0209  0.3189
 1402W        W18250   1.790  15.454  11.947  0.0688 -0.0132  0.1014
 1403W        W18251   2.074   6.242  14.397  0.1178  0.0614 -0.0566
 1404W        W18252   5.866   2.428   4.911 -0.1993 -0.2578  0.0727
 1405W        W18253  13.587  13.753  14.156  0.1111  0.1136  0.0972
 1406W        W18254  14.275   8.615   4.420  0.0666 -0.0537  0.6085
 1407W        W18255   0.884   8.696   1.033 -0.2292 -0.2866  0.0220
 1408W        W18256  13.966  11.358   5.176 -0.0133  0.3633  0.1193
 1409W        W18257  16.675   8.735  11.673 -0.1092  0.1455  0.1018
 1410W        W18258   7.847   5.265  15.735 -0.1886 -0.0091 -0.0483
 1411W        W18259   5.816   3.215   5.942  0.1832 -0.1098  0.0288
 1412W        W18260  17.363   7.490  11.727  0.0857 -0.0132 -0.0958
 1413W        W18261   5.651   0.716   4.540 -0.1051 -0.1113 -0.2136
 1414W        W18262   6.951  14.695   4.886  0.2626 -0.0330  0.0272
 1415W        W18263  15.579  14.282  12.544  0.1530 -0.2663  0.2639
 1416W        W18264  13.150   8.634   3.881  0.0676  0.0420 -0.0574
 1417W        W18265   6.315   9.512  11.183  0.3797 -0.0955  0.0374
 1418W        W18266   6.678   7.890   0.823  0.2184 -0.0008  0.2221
 1419W        W18267   9.854   7.598   4.732  0.2210  0.0487  0.3303
 1420W        W18268  13.633   0.943  16.075 -0.2249 -0.0095 -0.2931
 1421W        W18269  16.228   4.046  11.994  0.3096 -0.0325  0.1322
 1422W        W18270   9.487  13.521   2.425 -0.1163 -0.1739  0.3367
 1423W        W18271  11.577  14.343   2.130 -0.0620  0.1265 -0.1774
 1424W        W18272   2.448  16.197   3.776 -0.0062  0.2822  0.2167
 1425W        W18273  13.872   6.681   1.254 -0.2714 -0.2257 -0.1506
 1426W        W18274   1.620   2.755   1.269 -0.0638 -0.2263  0.2593
 1427W        W18275   3.774   8.804   4.856  0.0729  0.0023 -0.0642
 1428W        W18276  16.652  11.499  14.402 -0.0906 -0.1391  0.3314
 1429W        W18277   6.211   5.483  13.097 -0.2081  0.2128 -0.2809
 1430W        W18278  14.294   8.693  16.229  0.2202 -0.0486 -0.0044
 1431W        W18279  16.203  11.449   2.789  0.0280 -0.2903 -0.0666
 1432W        W18280  17.943  10.797   1.524 -0.0841  0.0073 -0.1823
 1433W        W18281  16.361   0.825  14.346  0.0155  0.1768  0.2002
 1434W        W18282  14.130  17.025  14.296 -0.0069 -0.1283 -0.1084
 1435W        W18283  10.229   8.080   4.638 -0.2540  0.0362  0.5187
 1436W        W18284   8.544  11.077  15.931  0.1629  0.0463 -0.0282
 1437W        W18285   3.315  12.821  13.395  0.0208  0.0158 -0.1359
 1438W        W18286  12.634  12.306  15.325  0.3031  0.1003  0.0770
 1439W        W18287  17.055   6.657   0.716  0.1324  0.3606  0.1880
 1440W        W18288   1.502   3.628   3.356  0.2542 -0.1547  0.2561
 1441W        W18289   4.745   5.315   5.421 -0.0204  0.1699  0.0041
 1442W        W18290  13.093   3.709  11.932 -0.0265 -0.0703 -0.0606
 1443W        W18291   4.323   8.508   0.705 -0.0227 -0.1085 -0.1432
 1444W        W18292  15.713   1.159  15.001  0.2064 -0.1421 -0.0750
 1445W        W18293   4.821  17.561  13.354 -0.1357 -0.1515  0.1436
 1446W        W18294  10.016  10.442  11.666 -0.0855  0.0434  0.1315
 1447W        W18295  10.223  13.911   5.087  0.1076 -0.2746  0.3085
 1448W        W18296   9.724   1.690  12.637  0.0591  0.1732 -0.0544
 1449W        W18297   7.926  17.794   4.861  0.1607  0.2310 -0.0394
 1450W        W18298   6.412  12.175   1.457 -0.0132  0.0250  0.0512
 1451W        W18299   6.305   9.995  11.026 -0.1566 -0.1986 -0.0805
 1452W        W18300  15.954  13.550  13.006 -0.2194  0.1804 -0.0299
 1453W        W18301   1.571   7.086  15.279 -0.3881  0.2788 -0.2030
 1454W        W18302   9.257  17.192  13.109  0.0941  0.1098 -0.1973
 1455W        W18303   4.349   8.249   4.835 -0.1013 -0.1384  0.0441
 1456W        W18304   4.537  13.370  14.899 -0.4451 -0.0746  0.0961
 1457W        W18305  13.929  11.001  14.165  0.0699 -0.3362  0.0369
 1458W        W18306   8.058  13.360  12.182  0.0552  0.0287 -0.1293
 1459W        W18307  10.995   9.784   1.594 -0.4091 -0.0293 -0.1281
 1460W        W18308  12.383  17.381  14.022  0.0393  0.5408 -0.0080
 1461W        W18309  16.338   6.362   4.007 -0.1059  0.2994  0.3396
 1462W        W18310  15.776   3.422   4.941  0.0734 -0.2598  0.1733
 1463W        W18311  17.594   4.540   0.464  0.1220  0.1894  0.0402
 1464W        W18312  10.055  17.304   4.642 -0.2856  0.0296 -0.1098
 1465W        W18313  15.888   2.611   1.685  0.3413  0.1851 -0.1080
 1466W        W18314   9.122   5.655   3.751 -0.0713 -0.2395  0.0195
 1467W        W18315   4.702  11.817  11.529  0.0118  0.1354 -0.3106
 1468W        W18316   9.548   6.883  16.092  0.1580  0.1237 -0.0342
 1469W        W18317  17.152   0.360  16.275 -0.1577 -0.1037 -0.3935
 1470W        W18318  12.243   2.691   2.611  0.0388 -0.0371  0.2000
 1471W        W18319   1.720   0.563  13.417  0.2182  0.0061  0.4610
 1472W        W18320   1.576  18.060   2.396  0.0312  0.1046  0.1451
 1473W        W18321  11.790  12.727  15.009  0.1009  0.2292  0.2379
 1474W        W18322   1.173  16.548  13.030 -0.0123 -0.3801  0.1665
 1475W        W18323   1.944   1.125  13.273  0.0051  0.1316 -0.2335
 1476W        W18324   2.506   8.716   4.280 -0.0128  0.0918 -0.1284
 1477W        W18325   3.988   8.062  13.840 -0.1239 -0.3590  0.1124
 1478W        W18326   7.423  14.076  15.993 -0.3142 -0.2744  0.0209
 1479W        W18327  10.176  17.307  13.099 -0.0857  0.0542 -0.0244
 1480W        W18328  17.860  16.643  11.946  0.0254 -0.0771  0.2036
 1481W        W18329   4.682   5.961   1.579 -0.4265  0.5628 -0.2548
 1482W        W18330   9.953   9.065   4.553 -0.2207 -0.0453 -0.0721
 1483W        W18331  16.091  10.979   0.098 -0.2740 -0.1494  0.0841
 1484W        W18332  14.454   5.098  16.194 -0.1154  0.1944 -0.1162
 1485W        W18333  17.655  10.903  10.676  0.3134 -0.0841 -0.0090
 1486W        W18334   9.619  12.545  14.387  0.1213  0.1196 -0.1373
 1487W        W18335  17.610   8.132   3.040  0.1119  0.0529  0.2307
 1488W        W18336  16.487  10.151   1.350  0.0136 -0.1456 -0.3285
 1489W        W18337   2.826   1.897   1.741 -0.4483 -0.3938  0.0320
 1490W        W18338  13.970  17.723   1.438  0.0339 -0.2615  0.5721
 1491W        W18339  10.760  17.112  13.917  0.3571  0.1592  0.1520
 1492W        W18340  11.539   2.212   0.348 -0.0529  0.0685  0.0340
 1493W        W18341   5.008   7.986   2.998  0.0556  0.0698  0.0248
 1494W        W18342   8.164   1.469  13.256  0.1315 -0.1244  0.1928
 1495W        W18343  15.465  11.986   3.757 -0.2321  0.0417  0.1029
 1496W        W18344  17.337  14.142  15.555  0.0311 -0.0769  0.0289
 1497W        W18345  14.574   5.212   3.714  0.0216 -0.1569  0.1907
 1498W        W18346   4.149   4.101   4.952  0.1733  0.0568  0.0097
 1499W        W18347   8.779   1.795   4.961  0.1158  0.0030  0.0615
 1500W        W18348  10.685  15.560   1.271  0.0692 -0.2204  0.4116
 1501W        W18349  13.861   0.565  15.138  0.3224  0.2042  0.0165
 1502W        W18350  12.019  10.588  12.365  0.0337 -0.1945  0.1118
 1503W        W18351  10.639   0.925  15.626 -0.0583 -0.0504  0.3543
 1504W        W18352   5.432   8.912  13.106  0.1625 -0.0604  0.0206
 1505W        W18353  13.060  13.098  13.884  0.0847 -0.0083  0.0694
 1506W        W18354  17.097   0.892   4.556 -0.2410 -0.0062  0.3482
 1507W        W18355  14.140  12.174  14.562  0.2888 -0.2084 -0.1564
 1508W        W18356  14.100  11.365   2.854 -0.0760 -0.0509 -0.0117
 1509W        W18357   3.511  10.624   4.943 -0.0356  0.1814 -0.3441
 1510W        W18358   6.394   9.553  13.190 -0.2439  0.0477 -0.0729
 1511W        W18359   5.241  12.920   1.782 -0.1405  0.2482 -0.0878
 1512W        W18360   2.365  15.129  14.697  0.1709  0.3214 -0.2953
 1513W        W18361  10.578  17.491   1.548 -0.0968  0.1240 -0.1177
 1514W        W18362   9.978   5.776   4.935 -0.1038 -0.0529 -0.0658
 1515W        W18363   5.228   4.508  14.781 -0.2180 -0.1861 -0.1365
 1516W        W18364   4.790   9.827  11.445 -0.0544  0.1505 -0.1883
 1517W        W18365   1.301   6.994  14.233 -0.2410 -0.1428  0.1444
 1518W        W18366  16.245   6.059   2.309  0.1878  0.0048 -0.0321
 1519W        W18367  15.127  17.966   3.463 -0.1039  0.0563 -0.2827
 1520W        W18368   5.943   4.308  12.328 -0.0425  0.2567 -0.0083
 1521W        W18369  17.210   2.309   4.706  0.1922 -0.1311  0.2368
 1522W        W18370   0.045   2.536   0.195 -0.0749  0.1712  0.2469
 1523W        W18371   2.376  15.860   2.834 -0.3759  0.0155 -0.1475
 1524W        W18372   8.477   7.792   3.393  0.1530 -0.0502 -0.3324
 1525W        W18373  10.183   7.503  15.141  0.1872 -0.0358  0.0607
 1526W        W18374  12.770   5.541   2.189 -0.2702 -0.1500  0.3466
 1527W        W18375   3.474   3.187  14.405 -0.0325 -0.1574  0.0491
 1528W        W18376   2.957   8.844  14.259  0.0700 -0.2149 -0.2831
 1529W        W18377  13.697  15.929  12.791  0.2413  0.0736 -0.3485
 1530W        W18378   1.433   3.998   4.186 -0.0334  0.1113  0.2276
 1531W        W18379   1.729  10.030   1.244 -0.0055  0.3451 -0.2828
 1532W        W18380  14.976  11.023   2.134  0.2612  0.3716  0.0444
 1533W        W18381   2.952   0.736   4.174  0.1468 -0.0502  0.2318
 1534W        W18382   8.149   7.675  15.419  0.1773  0.4299  0.0642
 1535W        W18383   2.701   0.484   2.766 -0.1798 -0.0894  0.0059
 1536W        W18384  12.524  13.897   0.408 -0.0373 -0.1029  0.1229
 1537W        W18385   5.895   3.115  12.836  0.2784  0.0190  0.2139
 1538W        W18386  17.865  16.344   1.795 -0.2145 -0.1575  0.2612
 1539W        W18387   7.207  13.719   4.862 -0.1948  0.1215 -0.0088
 1540W        W18388   8.261  12.100   4.697  0.0149 -0.0962  0.0358
 1541W        W18389  16.322   5.542  14.235  0.0971  0.1050 -0.0212
 1542W        W18390   1.769   8.023   2.732 -0.0470  0.0533 -0.0249
 1543W        W18391   2.884  17.330  13.860  0.0217  0.0936 -0.0654
 1544W        W18392   6.282  15.624   0.790 -0.0571 -0.0155  0.0496
 1545W        W18393   9.727   0.523   4.456  0.3326 -0.1143  0.0389
 1546W        W18394   8.133  11.557  12.781 -0.5080 -0.1808  0.1451
 1547W        W18395  11.656   2.523   3.966 -0.0635  0.2433  0.1904
 1548W        W18396  16.939   7.549   2.947 -0.0349  0.1055 -0.2714
 1549W        W18397  10.582   1.432   4.786  0.0177 -0.1787 -0.3382
 1550W        W18398   1.008   6.567  14.751 -0.3624 -0.0086 -0.0568
 1551W        W18399   5.944   6.860  12.813 -0.0654  0.1783 -0.2047
 1552W        W18400  16.692   0.789  13.086 -0.1042  0.0490 -0.1708
 1553W        W18401  16.615  15.071   0.207  0.2213 -0.2484  0.0584
 1554W        W18402   6.756  11.060   0.122 -0.0659 -0.2838 -0.2375
 1555W        W18403   8.413  14.639  16.110 -0.1079 -0.0495 -0.2266
 1556W        W18404  17.402   7.936  12.502  0.1201  0.2632  0.2862
 1557W        W18405  11.284   2.507   1.722 -0.0234 -0.0050  0.2723
 1558W        W18406   2.492  10.651  10.969 -0.1129  0.4620 -0.2181
 1559W        W18407   0.798  10.181   0.905  0.0173 -0.1791  0.0908
 1560W        W18408   8.370  14.286   0.754  0.0449  0.1113  0.3637
 1561W        W18409   9.795  12.832   4.427 -0.2335 -0.0888 -0.1245
 1562W        W18410   0.634  10.177   2.033  0.1061  0.3071 -0.2668
 1563W        W18411  11.278  10.682   2.513  0.1469 -0.1317  0.2391
 1564W        W18412  13.205   0.181   4.909  0.0831 -0.4046 -0.3453
 1565W        W18413  12.103  17.892  14.138 -0.0132 -0.1075 -0.1448
 1566W        W18414  12.984  17.903  11.584 -0.3576 -0.1559  0.1845
 1567W        W18415   7.666   4.078   1.755 -0.0212 -0.1288 -0.1533
 1568W        W18416   1.861  15.600  13.218 -0.1312  0.0403 -0.1050
 1569W        W18417  15.709  18.091   4.014 -0.0307  0.0454  0.1128
 1570W        W18418  10.844   8.786   2.446  0.2036  0.1575 -0.2045
 1571W        W18419  11.591   3.293  10.647  0.4527  0.1334 -0.3513
 1572W        W18420  15.775  13.369   3.292  0.0936  0.1900  0.0709
 1573W        W18421   3.932   1.262  15.808  0.1271  0.2343 -0.0355
 1574W        W18422   6.207  12.923   5.093  0.0225  0.2447 -0.1169
 1575W        W18423  10.176   0.351   0.297  0.0481 -0.1304 -0.0144
 1576W        W18424  12.028   8.405   3.520  0.0108  0.0534 -0.1237
 1577W        W18425   9.030   7.444   4.641  0.2088 -0.1380 -0.0867
 1578W        W18426   1.944   3.102  11.992  0.0132 -0.1428  0.0700
 1579W        W18427  13.568   7.434   1.486  0.2741 -0.0993 -0.2927
 1580W        W18428  13.827   3.795  13.457 -0.2732  0.1532 -0.0473
 1581W        W18429   0.329   2.750  16.148 -0.0818  0.0383 -0.1415
 1582W        W18430   4.893   2.092   2.448 -0.0863  0.0121  0.1020
 1583W        W18431  12.082  14.451  11.986  0.2285 -0.0239 -0.0910
 1584W        W18432   8.661   7.331   2.648 -0.1496 -0.1809  0.0857
 1585W        W18433   6.499   5.309  12.475 -0.1169 -0.0190  0.0824
 1586W        W18434   4.995  14.961   4.860  0.2096 -0.1624 -0.0683
 1587W        W18435   4.105   4.112   0.376  0.1104 -0.1487 -0.0901
 1588W        W18436  12.682   1.923  13.813  0.0527  0.2414 -0.1644
 1589W        W18437  11.095  11.367  13.432  0.0862 -0.0870 -0.0493
 1590W        W18438   0.942   5.186   3.340 -0.0886 -0.2299  0.2396
 1591W        W18439   8.960  15.315  15.618 -0.3229 -0.0642  0.0588
 1592W        W18440  11.258   8.183  11.375  0.1881  0.0410 -0.0106
 1593W        W18441  10.910  14.132   1.189  0.1635 -0.5375 -0.3038
 1594W        W18442  15.612   4.443  12.611  0.2860 -0.2329 -0.2368
 1595W        W18443   8.221  11.005  11.662 -0.0238  0.3576 -0.0664
 1596W        W18444  12.241   5.062   3.406  0.1434 -0.1106  0.1053
 1597W        W18445   5.959  13.347  16.117  0.1398 -0.3988  0.0588
 1598W        W18446   0.642  14.713   4.320  0.1341 -0.0052 -0.3171
 1599W        W18447  11.397  14.059  16.118 -0.0476 -0.0344 -0.3774
 1600W        W18448   7.658   9.971   0.588  0.1810  0.3364  0.3679
 1601W        W18449   7.027   2.959  13.938 -0.2253  0.1630 -0.1386
 1602W        W18450  15.360  13.490   2.948 -0.0972  0.2233  0.1295
 1603W        W18451   4.665   2.855  13.241  0.2225  0.1350  0.1458
 1604W        W18452  15.675  10.877  14.702  0.0524 -0.1397  0.0440
 1605W        W18453  16.756  17.136   1.987  0.1704  0.0641 -0.0912
 1606W        W18454  10.398   0.954   1.510 -0.1316 -0.1857  0.0600
 1607W        W18455  10.066   2.745  15.851  0.1327  0.2805 -0.1920
 1608W        W18456  13.537   0.573   4.261 -0.1383 -0.0447 -0.1608
 1609W        W18457  12.268   5.132   4.807  0.3276 -0.0342  0.0912
 1610W        W18458   3.726  10.123  10.105 -0.2948 -0.1128  0.2138
 1611W        W18459   6.673  17.780  12.464 -0.1190  0.3602  0.2540
 1612W        W18460   6.623  17.167   0.040  0.2801  0.0088  0.1881
 1613W        W18461  17.817   9.997  15.986 -0.1184  0.3264  0.0801
 1614W        W18462   6.941  11.779  11.071 -0.2868 -0.0739 -0.0684
 1615W        W18463   5.623   0.615  15.968 -0.0479 -0.2114  0.0141
 1616W        W18464   1.058   5.616  15.413 -0.0262  0.0947  0.0671
 1617W        W18465   1.140  12.373  12.694  0.1219  0.0193 -0.1762
 1618W        W18466  13.066  11.452   3.764  0.0381 -0.2711 -0.1305
 1619W        W18467  12.328  17.030   2.747 -0.0643 -0.1851 -0.0459
 1620W        W18468   2.632  13.599  15.519  0.1228  0.0292 -0.1482
 1621W        W18469  10.959   7.145   0.894 -0.0690 -0.0319 -0.0530
 1622W        W18470  11.332   2.835  11.430 -0.2314 -0.0550 -0.1032
 1623W        W18471   6.427   8.890   3.918 -0.0275 -0.0043  0.1555
 1624W        W18472   9.263   1.836  10.821  0.0679  0.0924  0.0338
 1625W        W18473  15.452  12.490   4.852 -0.0093 -0.0028 -0.0929
 1626W        W18474  16.040   6.311   0.066 -0.0867 -0.0885 -0.0025
 1627W        W18475   1.139   2.905   2.547 -0.2618  0.0167  0.1123
 1628W        W18476   0.860   7.464   2.074  0.1553 -0.0713 -0.3194
 1629W        W18477  16.858   3.383   3.744 -0.0881  0.0073  0.0016
 1630W        W18478   6.207   9.392   1.945 -0.0713  0.3152  0.0090
 1631W        W18479   9.491  14.588  15.250  0.3324 -0.1323 -0.3644
 1632W        W18480  15.705  11.137   0.428  0.0183 -0.2902  0.1807
 1633W        W18481   4.781   1.009  13.930 -0.5022  0.0966  0.3623
 1634W        W18482   9.848  12.743   3.704 -0.0126 -0.1867 -0.0920
 1635W        W18483   8.063  13.199  11.715 -0.2545 -0.1005  0.2621
 1636W        W18484   3.562   6.666  15.256  0.2656  0.1827 -0.0776
 1637W        W18485   9.627   9.095   3.633 -0.1297 -0.0615 -0.1790
 1638W        W18486   3.012  14.278  14.115  0.1332  0.3485  0.0808
 1639W        W18487   8.843   8.303  14.145  0.1787 -0.2959  0.2728
 1640W        W18488   5.532   6.252  11.912 -0.1961 -0.1679  0.1105
 1641W        W18489  12.165  17.555   2.377  0.1224 -0.3232 -0.0992
 1642W        W18490   7.377  12.674  11.898 -0.1195 -0.2665  0.2125
 1643W        W18491   7.567   8.805  13.389 -0.0652  0.2327  0.2764
 1644W        W18492  13.231  12.077   6.050 -0.3178  0.2569  0.0641
 1645W        W18493  13.536   1.464  10.895 -0.1890  0.0200  0.1243
 1646W        W18494  11.725   1.648  15.184 -0.0109 -0.3014  0.1529
 1647W        W18495  15.057   1.348   0.075 -0.1039 -0.0356 -0.3056
 1648W        W18496   8.876  12.943  11.792 -0.0053 -0.1549 -0.1218
 1649W        W18497   7.316  11.328   1.874 -0.3559 -0.0088 -0.0768
 1650W        W18498   8.566   4.473  13.392 -0.0976  0.0497  0.2789
 1651W        W18499   9.555   1.412   4.573 -0.2728  0.0216 -0.4402
 1652W        W18500  15.611   7.571   0.079 -0.1337 -0.1137 -0.0319
 1653W        W18501   0.055   8.395   1.105  0.4647  0.2894 -0.1393
 1654W        W18502   3.358   8.454   3.359 -0.0704 -0.0038 -0.1024
 1655W        W18503  12.485   6.082  12.125 -0.0749 -0.1478  0.0158
 1656W        W18504  11.113   7.526   2.900  0.2467 -0.0251  0.1769
 1657W        W18505  12.994  15.451   3.320  0.1840 -0.1134  0.1157
 1658W        W18506  13.858   0.263  13.699  0.1828  0.2257 -0.1191
 1659W        W18507  14.244   4.110  13.566 -0.1190 -0.0939 -0.3723
 1660W        W18508  15.178   8.659  16.004  0.0949  0.0096 -0.0722
 1661W        W18509   0.783   6.952   4.444 -0.0629  0.0120  0.1917
 1662W        W18510  10.568   8.446   2.726 -0.1066  0.2888 -0.1411
 1663W        W18511  15.851   9.320   0.749 -0.2197  0.1306 -0.0537
 1664W        W18512   7.401   0.736   0.585  0.2182 -0.0794  0.2043
 1665W        W18513  17.844  10.141   1.867  0.2320 -0.1060 -0.0123
 1666W        W18514   8.157   9.290  11.780  0.1079  0.3927  0.0009
 1667W        W18515   4.341   9.883   3.985 -0.1843  0.0807 -0.0932
 1668W        W18516  12.595  16.780   4.367  0.1296 -0.0889  0.0137
 1669W        W18517  11.778   1.167   2.631 -0.2065 -0.1903 -0.1010
 1670W        W18518   6.635  12.282   5.752  0.1888  0.0204  0.0098
 1671W        W18519   9.004  12.228   2.981 -0.0244 -0.4222 -0.0894
 1672W        W18520  11.624  15.751   5.039  0.0550 -0.3085 -0.0057
 1673W        W18521  10.805   0.896   4.951  0.3273 -0.4621 -0.0285
 1674W        W18522  14.735   8.675   2.133  0.1893  0.0327 -0.0647
 1675W        W18523   1.996  14.051   4.539  0.3063  0.3117  0.1113
 1676W        W18524  15.934  11.829  15.695  0.0691  0.0081 -0.1026
 1677W        W18525   7.237   0.054   1.198 -0.1250  0.2001 -0.1279
 1678W        W18526  11.475  11.069  13.257  0.2397 -0.1639 -0.1118
 1679W        W18527   5.334   3.222   0.250 -0.2715 -0.0313 -0.0974
 1680W        W18528   3.934   9.875   1.078  0.1664 -0.2356  0.3637
 1681W        W18529   0.938  16.156  13.174 -0.0639 -0.0883 -0.4290
 1682W        W18530  13.355  14.923   2.790  0.0276  0.2702 -0.0528
 1683W        W18531   7.325   6.190  14.951  0.1381 -0.1594  0.2083
 1684W        W18532   8.359  17.090  11.702  0.3018  0.0293 -0.3311
 1685W        W18533   2.639  17.543  16.069  0.2301 -0.0669  0.1020
 1686W        W18534  16.600   8.768   2.531  0.1900  0.1581  0.0121
 1687W        W18535   8.642   6.822  13.704  0.2080  0.4213  0.3664
 1688W        W18536  15.411  14.602  15.602  0.2905  0.1615  0.0532
 1689W        W18537   9.141  10.315   4.386 -0.0511 -0.2080 -0.0042
 1690W        W18538   3.306   9.604  16.001  0.0087  0.0504 -0.1754
 1691W        W18539   3.559   5.149   3.241 -0.1355 -0.3472 -0.0877
 1692W        W18540   0.640  15.875   0.571 -0.0070 -0.0690 -0.0621
 1693W        W18541  16.683  14.880  13.455 -0.3024 -0.0244 -0.2732
 1694W        W18542   4.210  12.031   2.684  0.0251 -0.2298 -0.1118
 1695W        W18543  16.104  17.550  13.833  0.0140 -0.0813 -0.1485
 1696W        W18544   6.368   7.420  15.128 -0.1428  0.0404 -0.0131
 1697W        W18545   2.956  13.013   1.066  0.2602 -0.3951  0.0586
 1698W        W18546  12.638  17.431   1.439  0.0124  0.2969 -0.2068
 1699W        W18547   4.758  12.070   4.426  0.5035  0.1706  0.3478
 1700W        W18548  10.626   5.975  15.883  0.2291 -0.0384  0.3791
 1701W        W18549   4.589   6.657   0.783  0.1436  0.2021 -0.1372
 1702W        W18550   6.640   8.049   2.224  0.0120 -0.0101 -0.0205
 1703W        W18551   9.050   1.369  11.853 -0.2455  0.0638 -0.0795
 1704W        W18552   8.503   5.308   4.388  0.0698 -0.4341  0.3927
 1705W        W18553   3.337   4.997  14.496 -0.2677  0.2665 -0.2271
 1706W        W18554  11.071  16.978  13.116 -0.0120 -0.0925  0.1222
 1707W        W18555  12.804   8.595  14.563  0.0567 -0.0894  0.0371
 1708W        W18556   2.499  11.729   4.954  0.1963  0.1520 -0.4821
 1709W        W18557  14.098  15.518  13.110  0.0858 -0.0078 -0.1083
 1710W        W18558   1.954  12.031  15.919 -0.0440 -0.2484  0.1500
 1711W        W18559   8.939  14.793   3.511  0.0285  0.1755 -0.2781
 1712W        W18560   0.811  14.940  12.362 -0.0170 -0.1578  0.2737
 1713W        W18561   0.781  13.036   2.211 -0.2439  0.0507 -0.0700
 1714W        W18562   9.469   5.667  14.513 -0.0754  0.3384 -0.1427
 1715W        W18563   1.026   6.336  15.873 -0.0598 -0.0790  0.2117
 1716W        W18564   2.348  11.106   4.355 -0.0335  0.0938  0.1132
 1717W        W18565   5.721   0.317   5.846  0.1595 -0.0486  0.0169
 1718W        W18566  15.951   9.498   1.203  0.1259 -0.2774  0.0318
 1719W        W18567   7.617   2.326  11.802  0.0807  0.3568  0.0586
 1720W        W18568   2.668   4.891   4.119  0.1057  0.0216 -0.2669
 1721W        W18569   6.276   7.127   0.301 -0.1805  0.0511 -0.1268
 1722W        W18570  17.839   5.120   3.045 -0.0511  0.0375  0.3448
 1723W        W18571   6.353   1.689   1.085  0.1395 -0.0343 -0.1795
 1724W        W18572   5.037  10.685  10.864  0.0394 -0.2035  0.0271
 1725W        W18573  12.833  13.388  14.763  0.1059  0.1347  0.1214
 1726W        W18574  12.779   5.645  14.695 -0.1536  0.0355  0.3430
 1727W        W18575   9.157  13.240  11.448  0.0859  0.1512  0.3205
 1728W        W18576  13.512   9.952  11.595 -0.0049  0.2694 -0.0482
 1729W        W18577   3.961  14.047   1.060 -0.0744  0.0511  0.2999
 1730W        W18578  15.840   0.011  11.782  0.1284 -0.1383  0.0180
 1731W        W18579  12.220   9.179  11.550 -0.0364  0.0300  0.1071
 1732W        W18580  17.149   9.651   4.205 -0.3669 -0.2292 -0.0889
 1733W        W18581  17.893  16.458  14.629 -0.2390  0.0523 -0.0731
 1734W        W18582   3.815   9.884  14.148 -0.1346 -0.0282 -0.2162
 1735W        W18583   4.783   9.137  15.999  0.0239 -0.1019 -0.2614
 1736W        W18584   2.953   0.738  14.531  0.0762 -0.1202 -0.1807
 1737W        W18585   2.694   8.635  14.691 -0.1966  0.2158 -0.1807
 1738W        W18586   6.248   9.913   0.600  0.1391  0.2847 -0.0458
 1739W        W18587   2.111  14.212   2.830 -0.2186 -0.1878 -0.3419
 1740W        W18588  12.809   7.274   2.073  0.0606 -0.2512  0.0346
 1741W        W18589   7.627   3.588  15.672 -0.1457 -0.4400  0.1053
 1742W        W18590   3.353  17.866   2.425  0.0138 -0.1174 -0.1194
 1743W        W18591  14.007  12.264   3.744  0.0526  0.2085 -0.2992
 1744W        W18592  15.402   0.152  13.244  0.1419 -0.2919  0.4048
 1745W        W18593   5.998   3.148  11.389 -0.0133 -0.2942  0.2525
 1746W        W18594  10.696  15.683   3.154 -0.1118  0.0707  0.0223
 1747W        W18595   0.345   8.978  15.334  0.3742 -0.0949  0.1214
 1748W        W18596  12.845  13.196  10.601 -0.0430  0.3417  0.0074
 1749W        W18597   8.671  12.977  13.161 -0.1604 -0.0263  0.0717
 1750W        W18598   7.831  16.491  15.241 -0.1375 -0.2253  0.0903
 1751W        W18599  15.397   6.235   2.171 -0.1870  0.0925 -0.0432
 1752W        W18600  16.936   4.247   2.611 -0.0202 -0.2581 -0.3583
 1753W        W18601  16.133  15.486  12.069 -0.1440 -0.0818  0.1647
 1754W        W18602   0.816   1.183   0.372 -0.1918 -0.0539  0.1985
 1755W        W18603   9.068  12.623  12.219  0.2083 -0.2155  0.3124
 1756W        W18604  14.048  15.758  14.284  0.0660  0.2902  0.1519
 1757W        W18605  17.147   0.509  15.134  0.1485  0.0211  0.1308
 1758W        W18606  11.253  17.023  15.864 -0.0662 -0.0297 -0.0770
 1759W        W18607  10.927   2.637  15.391  0.1581  0.2100 -0.0404
 1760W        W18608   1.847  15.058   4.109  0.0460 -0.0889 -0.1417
 1761W        W18609   7.808   8.562   0.582  0.0733 -0.1882 -0.0926
 1762W        W18610  10.534   2.626  14.027  0.0423  0.0038 -0.0067
 1763W        W18611  12.756  11.855   3.086 -0.1520 -0.2757  0.2322
 1764W        W18612   0.155  14.310  12.440  0.1745 -0.1525  0.1492
 1765W        W18613   3.184   9.642  13.396  0.0154 -0.1142  0.2202
 1766W        W18614  13.253  11.423  13.099  0.0747  0.1978 -0.0347
 1767W        W18615  14.204  15.845  12.673  0.2324  0.1370  0.0810
 1768W        W18616   0.808   8.014   4.868 -0.0079 -0.1218  0.0914
 1769W        W18617   7.704  12.365  13.406  0.2238  0.0295  0.1627
 1770W        W18618   5.008  13.364  15.253 -0.1937  0.4670 -0.0032
 1771W        W18619  16.219   2.107   4.796 -0.2159  0.2290 -0.0322
 1772W        W18620   5.558  10.347  11.011  0.1364  0.3581 -0.2096
 1773W        W18621   3.107  13.317   2.828 -0.1706 -0.1289  0.0974
 1774W        W18622  14.460   2.148   0.950  0.0150 -0.1859 -0.1826
 1775W        W18623  10.074  16.763   4.541  0.1368 -0.3284 -0.1187
 1776W        W18624  17.179   0.032   4.527 -0.0367 -0.1240  0.4202
 1777W        W18625   2.010  10.591   1.713  0.3452  0.1886  0.1727
 1778W        W18626  17.304  13.364  11.455 -0.0351  0.0702  0.0661
 1779W        W18627   7.715  13.615  15.171 -0.0338 -0.3482  0.0178
 1780W        W18628  17.512   3.021  11.794 -0.2536  0.1111 -0.0496
 1781W        W18629   4.785   9.982  12.591 -0.2924 -0.3127 -0.1483
 1782W        W18630   5.995   6.372  13.132  0.2143 -0.1394  0.1433
 1783W        W18631  16.557   5.948   4.160 -0.2789 -0.1773  0.2254
 1784W        W18632   9.994  11.466  11.748  0.1274 -0.1307 -0.0323
 1785W        W18633  12.867   7.072  13.143  0.0081  0.0907  0.2585
 1786W        W18634   0.167  16.083   0.413  0.0991  0.2141  0.0409
 1787W        W18635   1.957   5.290  11.888  0.1793 -0.0767  0.1192
 1788W        W18636   6.218   1.249  16.097 -0.0060 -0.1902 -0.2728
 1789W        W18637  17.389   2.372  14.671 -0.1266  0.4133  0.1168
 1790W        W18638  11.636   3.147  15.273 -0.1426 -0.0662 -0.2538
 1791W        W18639  17.008   6.800   3.658  0.3513  0.2340 -0.2454
 1792W        W18640  16.391  12.418  16.087 -0.0575  0.2619  0.1616
 1793W        W18641   2.494   1.470  15.153  0.2301  0.3372  0.0179
 1794W        W18642  13.561  17.800  12.822  0.1248 -0.6765  0.1768
 1795W        W18643  15.392   0.273  15.626 -0.2172 -0.0308 -0.1264
 1796W        W18644   5.032  12.572   2.618 -0.0503 -0.0068 -0.1394
 1797W        W18645  10.730  14.010  15.262 -0.2696 -0.1739 -0.1358
 1798W        W18646  15.776  13.014  13.711 -0.3048 -0.0336  0.0491
 1799W        W18647  16.609   7.280   5.147  0.1912 -0.0927  0.4244
 1800W        W18648  12.560  10.465  13.723 -0.0416 -0.1598  0.2667
 1801W        W18649   7.814   3.068  12.855 -0.0857 -0.0764  0.4790
 1802W        W18650  15.001   9.536  13.031 -0.2200  0.0538 -0.0558
 1803W        W18651  16.321  15.095   1.139 -0.2211  0.4267  0.1632
 1804W        W18652  14.312   0.551  14.897 -0.1251 -0.0748 -0.0085
 1805W        W18653  15.873   5.130   4.446 -0.1039 -0.0656 -0.1335
 1806W        W18654   2.702   3.334  16.314 -0.0820 -0.0054 -0.0641
 1807W        W18655   3.565  16.680   1.847  0.0891 -0.2614 -0.1453
 1808W        W18656  13.703   4.381   0.762 -0.0171 -0.1940  0.1796
 1809W        W18657  14.952   4.454  11.343  0.1380 -0.1165 -0.0055
 1810W        W18658  17.429   9.317   2.304 -0.0450  0.1854 -0.1772
 1811W        W18659  17.440  13.143   5.069 -0.1231  0.1153 -0.0523
 1812W        W18660   2.867   7.245  11.434 -0.1035 -0.0245  0.1743
 1813W        W18661  10.103   5.526  13.471 -0.2068  0.0161 -0.1443
 1814W        W18662   9.941  17.298   3.642 -0.1394  0.1969 -0.2499
 1815W        W18663  13.586  16.660  16.054  0.2187 -0.0446  0.2458
 1816W        W18664   2.518   5.636  13.700  0.1197 -0.2847 -0.5151
 1817W        W18665   0.130  16.385  13.364  0.1416  0.0262 -0.3079
 1818W        W18666  15.491  14.422   1.371 -0.3805 -0.0324 -0.1837
 1819W        W18667  10.709  17.148  15.478  0.2901 -0.0990 -0.0179
 1820W        W18668  16.400   8.135   3.980  0.2089  0.0217 -0.1635
 1821W        W18669  14.000   9.942   1.013 -0.1039  0.1214  0.0365
 1822W        W18670   6.622  11.134  12.820  0.3754 -0.2187 -0.0563
 1823W        W18671   0.729  10.741  12.402  0.1373 -0.2459 -0.2979
 1824W        W18672  12.204   8.854  15.192  0.3126 -0.1347  0.2695
 1825W        W18673  11.950   0.901  11.661  0.2037 -0.0495  0.0862
 1826W        W18674  16.581   2.236  15.327  0.1669  0.1518  0.3732
 1827W        W18675   9.663  10.717   5.183  0.1529 -0.0293  0.1669
 1828W        W18676  15.275   6.436   4.037  0.0908 -0.1609 -0.0619
 1829W        W18677  17.051  13.625  13.264 -0.0306 -0.0800 -0.0556
 1830W        W18678   7.288   9.033   2.631 -0.2386  0.5399  0.0441
 1831W        W18679  11.016   2.272   4.659  0.1791  0.3061 -0.0640
 1832W        W18680   0.289   6.477  15.360  0.0984  0.2475  0.2063
 1833W        W18681   1.550   7.826  12.769  0.3386 -0.1275 -0.1561
 1834W        W18682  10.300  15.781  14.875 -0.0126  0.0977 -0.1567
 1835W        W18683   7.140   0.011   3.846  0.0484  0.3486 -0.0325
 1836W        W18684  15.566   5.213   3.431  0.0122  0.2122  0.3245
 1837W        W18685  16.682  14.350   4.457 -0.0755  0.1835 -0.4816
 1838W        W18686   9.020   3.920  12.945 -0.0407  0.1656  0.0849
 1839W        W18687   4.667   4.253   1.480 -0.2810 -0.1838  0.3257
 1840W        W18688   1.548   8.373  15.080 -0.2098  0.0868 -0.0297
 1841W        W18689   0.738  13.036  12.297  0.5882  0.0569  0.0814
 1842W        W18690  12.971   5.229   2.793 -0.1419 -0.0492 -0.0245
 1843W        W18691   1.317  17.178   1.972 -0.3329 -0.1408 -0.4601
 1844W        W18692   5.440  12.243   2.373  0.1195 -0.3164 -0.3112
 1845W        W18693   4.680  11.648  15.313 -0.0500  0.2932  0.1209
 1846W        W18694   3.747   0.159   3.751 -0.4079  0.1118 -0.1055
 1847W        W18695  15.396   8.357  11.431 -0.1968  0.0047 -0.1699
 1848W        W18696   3.474  16.586   0.925  0.0290 -0.2464 -0.2365
 1849W        W18697  15.362  17.403   4.713  0.0101  0.6022 -0.1939
 1850W        W18698   3.161   4.146  14.554 -0.2983 -0.1911  0.1920
 1851W        W18699  16.843  11.479   3.686 -0.2646 -0.1382 -0.0375
 1852W        W18700  12.308   2.894   4.791  0.2859  0.0316 -0.1868
 1853W        W18701   5.807   2.941   3.505  0.2343 -0.0042  0.2301
 1854W        W18702  13.932   8.426   2.827  0.1450 -0.1660  0.0594
 1855W        W18703  15.510   9.564   3.556 -0.1544 -0.0386  0.0126
 1856W        W18704  14.060  15.750  15.896 -0.1871 -0.1108 -0.1884
 1857W        W18705  11.853   5.245   4.615  0.1342 -0.3524 -0.0805
 1858W        W18706  11.103   4.039  12.397  0.2252 -0.1221  0.2994
 1859W        W18707   9.665   4.663   3.085  0.0236  0.0327 -0.1622
 1860W        W18708  13.290   5.345   3.251 -0.0414  0.0932 -0.0173
 1861W        W18709   7.088  14.261   4.309  0.1023 -0.2081 -0.2553
 1862W        W18710   1.875   5.302   0.587 -0.0696  0.0247 -0.0280
 1863W        W18711  12.800  13.729   3.446 -0.0222  0.5839 -0.1785
 1864W        W18712   7.366   0.577  14.962  0.0147  0.0243 -0.2362
 1865W        W18713  11.051   1.580  14.428  0.2380 -0.4645 -0.0927
 1866W        W18714  14.890   0.315   1.221  0.3425  0.2398 -0.0881
 1867W        W18715   1.025  15.464  11.597 -0.2386 -0.2614 -0.1289
 1868W        W18716  12.595  11.740   5.085 -0.0432 -0.3426 -0.0779
 1869W        W18717  12.683  11.111  14.470 -0.2294 -0.0689  0.0648
 1870W        W18718  11.163  11.204  12.851  0.0542 -0.0403 -0.2601
 1871W        W18719   0.921  13.541   0.570 -0.0304  0.0014 -0.3826
 1872W        W18720  14.282  15.147   4.348 -0.0974  0.2154 -0.3658
 1873W        W18721   4.069   3.706  13.481  0.0266 -0.4314  0.0396
 1874W        W18722  14.674  15.033  15.431 -0.2677  0.1446 -0.0060
 1875W        W18723  10.351   0.060  10.531  0.1855 -0.1155 -0.1277
 1876W        W18724   4.709   1.417  11.925 -0.0777 -0.0580 -0.4404
 1877W        W18725   0.788  12.707  13.058  0.4112  0.1114 -0.2118
 1878W        W18726   4.658   6.418  11.689  0.0762  0.3871  0.0223
 1879W        W18727   5.013  15.098  13.995 -0.0145  0.3336  0.1973
 1880W        W18728  11.834  15.863  12.198 -0.1353 -0.2817 -0.1890
 1881W        W18729  12.019  14.186   4.437  0.1816 -0.0312 -0.2310
 1882W        W18730   1.742   4.408  15.323  0.1455  0.1226  0.0764
 1883W        W18731   7.279  17.373   2.139 -0.1547  0.0888  0.1457
 1884W        W18732   7.049   6.619   1.682  0.1681  0.1000  0.1895
 1885W        W18733  13.534  17.678  14.844 -0.2240  0.0342  0.0138
 1886W        W18734   8.294   5.154  11.379 -0.0697  0.5510  0.2610
 1887W        W18735   6.252  13.529  14.432  0.2401  0.1984  0.0310
 1888W        W18736  12.326   3.468  13.314 -0.0608  0.1028  0.0165
 1889W        W18737   3.890  12.916   0.333 -0.2457  0.0599 -0.0785
 1890W        W18738   5.108  13.453  16.195 -0.2159  0.0219  0.1579
 1891W        W18739   8.849  15.762  12.176 -0.2305  0.1777  0.0856
 1892W        W18740  14.213  17.005   3.082 -0.0956 -0.3271 -0.3330
 1893W        W18741  10.756   1.741  15.375 -0.1710 -0.0913 -0.1566
 1894W        W18742   5.056   6.049   3.907  0.1270 -0.0700 -0.1609
 1895W        W18743   9.596   5.299   0.804 -0.0019  0.0135  0.0928
 1896W        W18744   6.329   2.210  12.872 -0.0836 -0.1802  0.0277
 1897W        W18745  15.010   7.919   4.049  0.2228  0.0077 -0.2136
 1898W        W18746   3.658   3.897   0.520 -0.0826  0.2426 -0.0760
 1899W        W18747  17.760   9.384   1.468  0.3883 -0.0547  0.1360
 1900W        W18748   4.740   5.379  16.091 -0.2344  0.3418  0.1435
 1901W        W18749   0.617   3.206   4.143 -0.0685 -0.1028  0.3940
 1902W        W18750  12.331  17.662   2.821 -0.1518 -0.1336  0.0110
 1903W        W18751  16.644   8.072  15.731  0.0226 -0.1360  0.0200
 1904W        W18752  15.794  13.806   2.998  0.0895  0.0226  0.0290
 1905W        W18753  17.226  17.802  14.613 -0.1075 -0.0383  0.1923
 1906W        W18754   2.114   3.572   4.777 -0.0008 -0.2001  0.0572
 1907W        W18755  12.895   2.349   4.178  0.1157  0.2756  0.1726
 1908W        W18756   6.020   3.605  14.511  0.1722 -0.2877  0.0118
 1909W        W18757  12.013  17.095  11.301 -0.1069 -0.4895  0.1004
 1910W        W18758   9.121  10.893  14.623  0.2036  0.0548  0.1097
 1911W        W18759   8.549  15.979   2.495  0.2431 -0.2849  0.0587
 1912W        W18760  13.129  10.477  15.521 -0.0442  0.2103  0.0895
 1913W        W18761   7.506   2.213  14.639  0.2004 -0.0333  0.1487
 1914W        W18762   8.830   8.319  13.636  0.0068  0.1511 -0.2175
 1915W        W18763   1.302  10.894   4.451 -0.1252  0.0460  0.2822
 1916W        W18764  18.096  17.757   1.452  0.1464 -0.0973  0.2575
 1917W        W18765   0.857  15.089   0.401 -0.0095  0.2049 -0.1079
 1918W        W18766  14.173  10.692  11.757  0.2631 -0.0444  0.3276
 1919W        W18767   1.600  17.285   4.636  0.2873 -0.2845  0.1112
 1920W        W18768  15.368   8.308   3.826  0.3351  0.0825 -0.2405
 1921W        W18769   3.552  13.351   4.048  0.0561  0.2013  0.1030
 1922W        W18770   8.592   4.813  14.649 -0.1354 -0.2723  0.0369
 1923W        W18771  17.904  12.155   1.568 -0.1129 -0.4447  0.0618
 1924W        W18772  14.199  13.181  13.426  0.0017  0.0424 -0.1926
 1925W        W18773   7.236  11.429  11.301 -0.1989  0.2467 -0.1974
 1926W        W18774  10.620   2.811  13.093 -0.0271  0.0439  0.0219
 1927W        W18775  11.543   2.883   2.035  0.3042 -0.2828  0.3397
 1928W        W18776  13.061   5.184  14.836  0.0473  0.1878  0.1445
 1929W        W18777  10.059   9.512   0.635  0.2691  0.0614 -0.1832
 1930W        W18778   5.114  10.238   2.900  0.0389  0.1945 -0.0377
 1931W        W18779  11.830   0.838   3.513 -0.0306  0.1053  0.2109
 1932W        W18780   4.859   4.115   2.266  0.0255 -0.0069  0.0328
 1933W        W18781   2.586  12.221  14.375  0.1894 -0.1896  0.0714
 1934W        W18782  17.009  16.453  14.856 -0.3975 -0.1297 -0.0059
 1935W        W18783   6.331  16.108   2.023 -0.1504  0.0390 -0.2042
 1936W        W18784   4.004  12.537   2.354 -0.1405 -0.0287 -0.1111
 1937W        W18785  10.979   1.628   0.006  0.0158 -0.4001 -0.0052
 1938W        W18786  16.156  12.455  15.447 -0.5458 -0.0535 -0.3024
 1939W        W18787   3.253   5.421  15.624  0.1621 -0.1509 -0.1577
 1940W        W18788  11.468   2.846  10.953  0.0772  0.1729  0.2256
 1941W        W18789  10.898   3.322  14.281  0.0611 -0.0372 -0.0469
 1942W        W18790  14.432   4.548   1.691  0.0639  0.1292 -0.1425
 1943W        W18791   6.255  13.085  11.381  0.1112  0.0457  0.1861
 1944W        W18792   0.942  12.568  12.299  0.1841  0.2855  0.0642
 1945W        W18793   8.922  10.335   3.922 -0.0635  0.0514  0.1213
 1946W        W18794  16.466  14.002   0.796 -0.1230  0.1844  0.4295
 1947W        W18795   1.285   6.622   2.715  0.0763 -0.1354 -0.1649
 1948W        W18796   3.225   7.011   5.205 -0.0444 -0.0441  0.1054
 1949W        W18797   2.312  15.371   1.416  0.1167 -0.0149  0.0256
 1950W        W18798  13.852  15.167   4.645 -0.0470  0.0820 -0.1306
 1951W        W18799  15.062  17.640   3.871  0.1588  0.1193  0.0126
 1952W        W18800  10.511  11.267  13.611 -0.1898 -0.1399  0.1943
 1953W        W18801  11.484  15.450   3.873 -0.0325 -0.0928 -0.2018
 1954W        W18802   8.580   7.708  11.555  0.0203  0.0619 -0.0762
 1955W        W18803   6.284   7.313  11.632  0.0904  0.3384 -0.1736
 1956W        W18804  10.104  16.682   0.544 -0.1175 -0.2610  0.0598
 1957W        W18805  14.316   2.575   4.827  0.0692  0.2140  0.2456
 1958W        W18806   6.910  13.147  10.987  0.1802  0.0700 -0.1173
 1959W        W18807   8.715   7.948   3.885  0.1935  0.2436 -0.1791
 1960W        W18808  12.799   5.533  15.907  0.0355  0.1658  0.1185
 1961W        W18809  11.377   7.360   1.164  0.0762  0.0955  0.0046
 1962W        W18810   1.056   7.815   1.765 -0.1006  0.0484 -0.0831
 1963W        W18811   7.187  15.903   2.521 -0.2280  0.0025  0.0319
 1964W        W18812  14.712  14.937  11.338  0.0876 -0.2477  0.0373
 1965W        W18813  14.115  17.716  15.641 -0.3889 -0.0194 -0.1568
 1966W        W18814  14.011  13.068   0.779 -0.1369  0.3523  0.1296
 1967W        W18815  11.365  15.367   1.190  0.2072 -0.0976  0.1824
 1968W        W18816   5.627   6.077  11.436  0.2021  0.3207  0.2930
 1969W        W18817   8.281   0.752  13.978  0.0192 -0.0388 -0.0661
 1970W        W18818  16.614  15.811   0.619 -0.2892 -0.1845 -0.0844
 1971W        W18819   0.397  14.633  12.101  0.0882  0.1931  0.1370
 1972W        W18820   8.827   1.604   2.669 -0.0777 -0.2351 -0.0023
 1973W        W18821   5.934   9.451   3.280 -0.4286  0.0936 -0.0090
 1974W        W18822  11.292   8.886   2.758 -0.1356  0.2149  0.0094
 1975W        W18823  14.909  14.891  14.666  0.2739  0.1484  0.2517
 1976W        W18824  14.038   2.392  12.130  0.1634  0.3119 -0.1166
 1977W        W18825   9.305  10.811  14.081 -0.0568 -0.1144 -0.1873
 1978W        W18826  10.871   8.928  11.817  0.0715  0.0961  0.1061
 1979W        W18827  14.510   4.204  14.633  0.1068 -0.4617  0.1722
 1980W        W18828   1.864  13.139  13.698  0.2957 -0.1288 -0.3441
 1981W        W18829   4.135   9.101  13.623 -0.2137  0.2938  0.3232
 1982W        W18830   9.969  11.601  15.336  0.2545  0.1324  0.1499
 1983W        W18831   4.995  13.475  13.934  0.0164  0.0189  0.5176
 1984W        W18832  10.917   3.754   2.305  0.1965  0.1146 -0.0343
 1985W        W18833   3.716  14.232   4.682  0.0250  0.0138  0.0762
 1986W        W18834  13.062  12.504   0.106  0.0113  0.0728  0.2169
 1987W        W18835   2.713   9.318   0.098  0.0700  0.1394 -0.0567
 1988W        W18836   7.883  16.179   2.276 -0.1219 -0.1308  0.0898
 1989W        W18837  10.443  16.554   1.539  0.0029  0.1744 -0.0565
 1990W        W18838  16.446   3.378   1.315 -0.2005  0.0186 -0.1986
 1991W        W18839  17.197  10.531   4.812 -0.1593  0.2472 -0.0434
 1992W        W18840  11.219  11.184  14.763  0.1961  0.2020  0.3157
 1993W        W18841  15.923   5.323   0.734  0.1187 -0.2798  0.3114
 1994W        W18842   6.349   0.302   0.659  0.1341  0.0635  0.0921
 1995W        W18843   7.448  10.339   1.041 -0.1432 -0.0594  0.2706
 1996W        W18844   4.382  12.545  14.495 -0.1902 -0.1056  0.0111
 1997W        W18845   1.490  12.546  11.562  0.1684  0.3521 -0.2571
 1998W        W18846  11.967  12.566  13.983  0.2605 -0.1598  0.0760
 1999W        W18847  10.525   5.514  13.270  0.1856 -0.2425  0.1612
 2000W        W18848   3.481   5.222  16.009  0.0690  0.2344 -0.2041
 2001W        W18849  13.903  16.612   3.120 -0.1038 -0.0138  0.2078
 2002W        W18850  12.554  16.957  14.972  0.0989 -0.1822  0.1110
 2003W        W18851   6.496  10.266  13.739 -0.0543  0.0066 -0.2331
 2004W        W18852  12.077   0.566  12.066  0.2068  0.1573 -0.0637
 2005W        W18853  14.385  10.942  12.297  0.0409  0.1326 -0.0949
 2006W        W18854   7.325   6.075   4.304 -0.0676 -0.0629  0.0116
 2007W        W18855  13.452   6.066  13.747 -0.0789 -0.0924  0.2042
 2008W        W18856  16.809   5.982   3.684 -0.1073 -0.1245 -0.0199
 2009W        W18857   9.143   3.644  13.618  0.0153  0.0345  0.0307
 2010W        W18858  13.744  10.893  16.281 -0.0827 -0.2583  0.0057
 2011W        W18859   9.699  14.451  11.762 -0.1448 -0.0918  0.2023
 2012W        W18860  13.971  16.260  12.409 -0.1730  0.1810 -0.1141
 2013W        W18861  13.330   9.526  15.346  0.0764  0.2251 -0.0827
 2014W        W18862   6.275   8.377  12.976  0.2069  0.0671 -0.0664
 2015W        W18863  17.911   8.264  12.118  0.1446  0.1066 -0.2108
 2016W        W18864  11.406   4.823   5.636 -0.2445 -0.1750 -0.0240
 2017W        W18865   4.538   2.736   3.730 -0.3134  0.2062 -0.1815
 2018W        W18866  10.957   5.384   4.191  0.2376  0.1672 -0.4244
 2019W        W18867   8.724  11.929  11.286 -0.3049  0.2123 -0.1350
 2020W        W18868   9.451   3.325  15.976 -0.2306  0.0794 -0.5569
 2021W        W18869   8.436   6.855  12.044 -0.0487 -0.3525  0.1560
 2022W        W18870   5.228  12.017   1.935 -0.0851  0.0388  0.0126
 2023W        W18871   7.292  11.393  14.461 -0.1116  0.1558 -0.1715
 2024W        W18872   9.801   3.438   0.211 -0.1004 -0.0908  0.2911
 2025W        W18873   0.392   5.822   4.000  0.1923 -0.2514  0.2070
 2026W        W18874   8.776   4.301  15.461 -0.1129  0.1335  0.3876
 2027W        W18875   8.126  12.128  13.518 -0.0123  0.4329  0.0729
 2028W        W18876   1.096  13.632   0.095 -0.1730  0.0186 -0.0897
 2029W        W18877   5.920  15.970   2.221  0.0372 -0.0863  0.1843
 2030W        W18878   6.400   5.740   0.046 -0.1060 -0.0001  0.0653
 2031W        W18879  15.537   9.117   2.854  0.1221 -0.2701 -0.0923
 2032W        W18880  16.522   5.586  13.288 -0.1439  0.3872 -0.1840
 2033W        W18881  14.352   0.925  12.621  0.1248  0.0379 -0.2444
 2034W        W18882  16.532   3.216  14.420 -0.0451  0.2021  0.0961
 2035W        W18883   8.754   5.605  12.555 -0.0717  0.0095  0.0056
 2036W        W18884  16.184   4.831   0.476 -0.1657 -0.1457  0.1886
 2037W        W18885  14.771   5.236  11.936  0.3563 -0.1701 -0.1572
 2038W        W18886  14.563   5.281   4.599  0.1324  0.0761  0.0535
 2039W        W18887  13.131   2.158  13.507 -0.0679  0.0425  0.3242
 2040W        W18888  11.489   3.329  11.507  0.1731 -0.1482  0.0500
 2041W        W18889  14.226  15.014  15.594  0.0126 -0.0714  0.1113
 2042W        W18890   5.785   2.420   2.521  0.0134 -0.1134  0.0318
 2043W        W18891  10.563   3.345   0.937  0.1675 -0.0866 -0.0080
 2044W        W18892  15.124   2.009  13.753 -0.2094 -0.4369 -0.1799
 2045W        W18893  10.374   3.542   3.159 -0.1295 -0.0549  0.0012
 2046W        W18894  10.476   6.729   0.511 -0.1865 -0.0946 -0.0044
 2047W        W18895   1.684   7.522   2.526  0.1111 -0.2173 -0.2704
 2048W        W18896   2.643  14.807   1.956 -0.1331  0.3702  0.0285
 2049W        W18897   1.138  10.618  15.471 -0.0163 -0.1220 -0.0504
 2050W        W18898  14.018  16.211   3.521 -0.3568  0.0648  0.1183
 2051W        W18899  14.195  15.459   0.896  0.1239  0.1283  0.1163
 2052W        W18900   7.761   4.003  11.379  0.3410 -0.3136 -0.0388
 2053W        W18901   1.879  17.255  11.404 -0.1498 -0.0717 -0.0253
 2054W        W18902  15.801  15.487   5.044  0.3785  0.0580 -0.1190
 2055W        W18903  15.702  14.958  12.959 -0.3447 -0.0194 -0.0868
 2056W        W18904  13.822   2.677  10.913  0.0815  0.1047  0.0939
 2057W        W18905  17.523  11.380  12.316 -0.3631 -0.1476  0.1956
 2058W        W18906   8.233   1.619   0.686  0.0031  0.0047 -0.0835
 2059W        W18907  12.837   5.103  11.241 -0.0556  0.2308  0.0650
 2060W        W18908  11.294  14.297  15.625  0.0231  0.1301 -0.0845
 2061W        W18909   7.339  16.029   0.506 -0.4443  0.0162 -0.0569
 2062W        W18910   0.467  12.515  13.443  0.1980  0.1201  0.0726
 2063W        W18911   2.612   2.208   0.072  0.1312 -0.1184  0.0263
 2064W        W18912   2.000  17.733  12.204 -0.0759  0.2247  0.2269
 2065W        W18913  16.346  14.369   3.217 -0.2333  0.2643 -0.1830
 2066W        W18914   1.898   8.992  14.401  0.0859  0.0341 -0.2017
 2067W        W18915  16.557  12.163   0.618  0.2512 -0.2054  0.1237
 2068W        W18916  15.296   2.558  15.022  0.0066  0.0299 -0.2098
 2069W        W18917   3.953  14.979   4.850  0.0046  0.0193 -0.1321
 2070W        W18918   6.351   2.393   3.721 -0.1675 -0.3164 -0.0271
 2071W        W18919   3.223  13.881   1.567  0.1685 -0.1178 -0.2148
 2072W        W18920  11.691  11.055   4.984 -0.3262 -0.4026 -0.3433
 2073W        W18921   1.280  15.143  14.347  0.2648 -0.0849 -0.0819
 2074W        W18922  13.001   4.765   0.736  0.2549  0.1826 -0.2207
 2075W        W18923  17.137  11.216   1.150 -0.1347  0.1390 -0.0507
 2076W        W18924  10.764   7.424  13.383 -0.1517  0.2157  0.2489
 2077W        W18925  17.563   2.548   1.434  0.1435 -0.1316  0.1095
 2078W        W18926   2.426  16.609  11.548  0.3553 -0.4030  0.0032
 2079W        W18927   9.445   1.450   3.425  0.3106 -0.1678  0.2558
 2080W        W18928   7.268  17.175   5.214 -0.0743  0.4371 -0.1738
 2081W        W18929   8.216   0.319  15.324  0.0707 -0.5482  0.0447
 2082W        W18930   7.716   0.361   3.382 -0.0999 -0.2330 -0.3009
 2083W        W18931  15.928   9.938  14.539 -0.4314  0.0382  0.1437
 2084W        W18932  14.575   3.024  10.361  0.1457 -0.0492  0.3770
 2085W        W18933  17.415   9.507  12.166  0.0043  0.0938  0.1161
 2086W        W18934  16.813   3.685  15.685 -0.2645 -0.0988 -0.0504
 2087W        W18935   7.234   8.879  13.797 -0.1230  0.0988  0.1023
 2088W        W18936   0.088   5.734   0.501 -0.0237  0.1718  0.2525
 2089W        W18937  13.409   7.022   2.569 -0.0684  0.1936 -0.0893
 2090W        W18938   6.794   4.435  11.679  0.0849 -0.2878 -0.1782
 2091W        W18939   2.963   7.439  15.962  0.1122  0.1105 -0.1598
 2092W        W18940   3.257  17.282  12.208 -0.3546 -0.2041  0.0800
 2093W        W18941   1.147  11.308  13.402  0.0963 -0.3003 -0.1356
 2094W        W18942   7.531   6.116   2.493  0.0077  0.1202 -0.2377
 2095W        W18943   5.217   5.105  16.084  0.0884  0.1229 -0.1695
 2096W        W18944   8.408   0.647   1.943  0.0583 -0.3239  0.0589
 2097W        W18945  16.112   2.502   5.102 -0.0504  0.1082  0.0050
 2098W        W18946   2.879   3.765   3.096 -0.2540 -0.2316 -0.0734
 2099W        W18947  15.069   6.720  13.954 -0.0062 -0.0281  0.1217
 2100W        W18948   6.694   3.770   4.657  0.0357 -0.0868 -0.0534
 2101W        W18949   4.252   6.397   3.153  0.4515  0.2155  0.1905
 2102W        W18950  11.915  13.381   6.157  0.0507 -0.0907 -0.1011
 2103W        W18951   9.231  14.387  16.127 -0.2505 -0.0447 -0.4581
 2104W        W18952   1.235   6.843  15.764 -0.2249  0.2862 -0.1475
 2105W        W18953   3.869  12.244   4.893 -0.0935 -0.1169  0.1034
 2106W        W18954  14.425   5.009  11.555 -0.2181 -0.1658 -0.1084
 2107W        W18955   9.613   5.062   1.413  0.0543  0.1997  0.0539
 2108W        W18956  14.767  13.971  11.698 -0.1183 -0.0252  0.0526
 2109W        W18957   3.143  15.668   4.096 -0.3679  0.2437 -0.3695
 2110W        W18958  13.748   0.151   0.008 -0.1420 -0.1201 -0.0652
 2111W        W18959   5.266   5.456  11.712 -0.1189 -0.2679  0.2499
 2112W        W18960  11.092  10.886  16.039 -0.0156  0.1802  0.1716
 2113W        W18961  11.732   7.400   5.670 -0.0453 -0.2476  0.0148
 2114W        W18962   0.900  13.976  11.386 -0.0693 -0.2180 -0.1172
 2115W        W18963  16.837  16.317   4.451 -0.0071 -0.0502  0.3232
 2116W        W18964   5.033   1.382   4.909  0.2296 -0.1378  0.1343
 2117W        W18965   5.561  15.960   5.335  0.0322 -0.2443 -0.1287
 2118W        W18966  14.085  15.716   4.830  0.1691 -0.0672 -0.0189
 2119W        W18967   1.959   7.735  12.430  0.2212 -0.2270  0.3009
 2120W        W18968  11.836   5.259  15.084  0.2202 -0.1113 -0.1693
 2121W        W18969  11.214  11.775   6.094  0.1763 -0.0401 -0.1674
 2122W        W18970   1.706   0.048   0.598 -0.0562  0.3070  0.1886
 2123W        W18971   0.157   3.074   2.174  0.0676 -0.0570 -0.0560
 2124W        W18972   0.883  16.187  13.780 -0.0873 -0.0518  0.3194
 2125W        W18973   2.679   6.156   1.129 -0.0023  0.2736 -0.1393
 2126W        W18974   8.604  12.634   3.880  0.1297  0.1963  0.0843
 2127W        W18975  17.772  14.372  12.932 -0.4340  0.3276 -0.0740
 2128W        W18976   4.155  11.783   3.164  0.0219 -0.1080  0.0292
 2129W        W18977  16.816   1.312  16.140  0.0397 -0.0190  0.1997
 2130W        W18978  14.940   2.657  13.891  0.1610  0.1224  0.3844
 2131W        W18979   5.047   7.906  13.460  0.0993 -0.0090 -0.1885
 2132W        W18980   4.444   1.353  13.952 -0.2206 -0.0854 -0.1166
 2133W        W18981  14.343   2.723  13.103  0.0787 -0.0929  0.2292
 2134W        W18982   3.418   9.984  12.950  0.0847 -0.1907  0.3465
 2135W        W18983   6.087  11.858  16.225  0.1934 -0.0639 -0.1638
 2136W        W18984  13.405  16.998  15.755  0.0312 -0.1029 -0.0371
 2137W        W18985  15.221  10.641   5.021 -0.1549 -0.2827 -0.0043
 2138W        W18986   4.278   1.821   1.282 -0.1717 -0.2195  0.2003
 2139W        W18987  14.006   9.692  11.697  0.2108 -0.1337 -0.0215
 2140W        W18988  14.979  13.768  15.556 -0.2061 -0.0276 -0.0342
 2141W        W18989   6.720   7.359  13.633  0.0288 -0.0606  0.3380
 2142W        W18990   6.946   7.703  10.401 -0.1526  0.3598 -0.1668
 2143W        W18991  15.506   4.898  14.034  0.0976 -0.0859  0.2974
 2144W        W18992  10.049   7.310   0.941 -0.3180 -0.0719  0.0232
 2145W        W18993  13.600   7.123  15.793 -0.1501  0.2892  0.2486
 2146W        W18994   4.062  14.506   1.009 -0.3870 -0.1251 -0.1519
 2147W        W18995  17.040   6.593   2.681  0.2239 -0.0532  0.0246
 2148W        W18996   2.332  14.483  12.638  0.0980  0.0715  0.1270
 2149W        W18997  15.625  13.073  14.999 -0.0722 -0.0247 -0.1007
 2150W        W18998  16.144   2.202   0.982  0.2041 -0.0644 -0.3319
 2151W        W18999  12.530   1.081   0.180  0.0931 -0.1562  0.1937
 2152W        W19000  15.079   2.329   1.718  0.0383 -0.0794 -0.1735
 2153W        W19001   8.132   7.649   1.503  0.1856  0.0770  0.4070
 2154W        W19002   8.565   7.816  15.644  0.0687  0.1521  0.0718
 2155W        W19003   8.602   1.525  13.515  0.0317 -0.1346 -0.2842
 2156W        W19004  17.548   1.226  11.685  0.4643 -0.1186 -0.4947
 2157W        W19005  17.865  15.978  11.393  0.0026  0.1345 -0.2842
 2158W        W19006   7.690   5.996   1.484 -0.0497  0.1257 -0.2251
 2159W        W19007   0.758  15.662   9.920  0.2289 -0.0087  0.0100
 2160W        W19008   2.116  15.596  13.744 -0.3104  0.0261 -0.2326
 2161W        W19009   4.926   9.616   0.325  0.2939  0.1559  0.4024
 2162W        W19010  12.534   6.696  12.234  0.1724  0.0287 -0.0613
 2163W        W19011  12.586   5.911  12.826 -0.1227  0.0683  0.3681
 2164W        W19012   6.073  13.725  14.877  0.0169 -0.1828 -0.1488
 2165W        W19013  14.212  16.268  14.389  0.0068 -0.2545  0.1586
 2166W        W19014   8.780   3.183  14.844 -0.3178  0.2349  0.0950
 2167W        W19015   6.656   3.680  15.681 -0.0308  0.0258 -0.0390
 2168W        W19016   5.420   9.263  13.688  0.1909  0.0848  0.0102
 2169W        W19017  14.384  14.502  13.612 -0.0416  0.2608  0.0123
 2170W        W19018   7.032  15.960   0.073 -0.3356 -0.0277 -0.0826
 2171W        W19019  15.205  16.239   1.170 -0.3466  0.0553  0.0912
 2172W        W19020   6.344   4.454  11.960  0.0808  0.1987  0.2120
 2173W        W19021   7.934  16.563  12.778 -0.1194  0.3892 -0.2540
 2174W        W19022  16.907   8.892   2.979 -0.4561 -0.0382  0.0350
 2175W        W19023  17.684  13.855   4.504  0.1240 -0.0993 -0.0144
 2176W        W19024   7.946   5.754  12.517  0.1375  0.0273  0.2587
 2177W        W19025  14.977   9.106   0.683 -0.1898  0.1247  0.1073
 2178W        W19026  17.341  13.975   2.655 -0.0553 -0.1376 -0.1254
 2179W        W19027   4.318  15.693   4.311 -0.0547 -0.0545  0.1361
 2180W        W19028   4.089  17.386   4.494  0.0943  0.0758 -0.0344
 2181W        W19029  15.421   3.726   0.897 -0.1193 -0.5673 -0.0207
 2182W        W19030  17.318   9.741   3.695 -0.2165 -0.1456  0.2865
 2183W        W19031   7.769  15.056   5.524  0.0096  0.4303  0.1655
 2184W        W19032   6.415   4.230  12.497 -0.0175  0.2601 -0.0286
 2185W        W19033   7.798   3.014   0.971 -0.1875  0.0420  0.0672
 2186W        W19034   1.579   5.020  15.820 -0.1888 -0.0617  0.0618
 2187W        W19035  17.580  17.855  11.855  0.1611 -0.1537  0.2959
 2188W        W19036   3.508   4.163  13.995  0.1408 -0.1598 -0.2038
 2189W        W19037   0.515  13.139   1.303 -0.2345  0.2479  0.1154
 2190W        W19038  13.053  15.010   3.568  0.1922 -0.1362  0.1772
 2191W        W19039  11.633   1.426  15.706  0.0601 -0.1005  0.4257
 2192W        W19040   6.126   6.131   2.467  0.0248 -0.1235  0.0105
 2193W        W19041  15.030  12.991  15.006  0.1517  0.0132  0.3522
 2194W        W19042  15.442   8.897   0.726 -0.3245  0.0013  0.1223
 2195W        W19043  13.341   6.850  14.413 -0.0037 -0.0630 -0.1656
 2196W        W19044   4.797   7.717  11.780 -0.2818  0.1485  0.0481
 2197W        W19045   3.786  17.745   1.666 -0.1910  0.0650 -0.2511
 2198W        W19046   3.514  11.551   2.355  0.0203 -0.0775 -0.2549
 2199W        W19047   7.134   6.267   1.177 -0.1135  0.1381 -0.2781
 2200W        W19048  10.907   0.353   4.420  0.2635  0.0624  0.0357
 2201W        W19049  15.870   4.122   4.911  0.1330 -0.0039 -0.0697
 2202W        W19050  12.607  11.910   1.892 -0.0617 -0.0546  0.2243
 2203W        W19051  10.887   2.532  13.415 -0.3310 -0.0090  0.1221
 2204W        W19052  15.694   3.468  15.071 -0.3889 -0.0702  0.1149
 2205W        W19053   7.608  15.724   0.103 -0.1674 -0.1270 -0.1966
 2206W        W19054   5.959  11.929   0.858 -0.3570 -0.1618  0.2361
 2207W        W19055   7.239   4.852   3.328 -0.0616 -0.3293 -0.2567
 2208W        W19056  15.432   3.477  14.526 -0.1140  0.1706  0.1573
 2209W        W19057   7.355  11.595   5.136 -0.1465 -0.0761  0.1368
 2210W        W19058   4.536   0.783  11.582 -0.1210 -0.1308 -0.3017
 2211W        W19059  16.027  14.540  11.483  0.0974 -0.2817 -0.1256
 2212W        W19060  14.727   5.872   0.533  0.0558  0.2460  0.1284
 2213W        W19061   6.178   5.174  15.084 -0.0828 -0.1797  0.2223
 2214W        W19062   5.055   4.595  15.982 -0.1642  0.0922  0.0581
 2215W        W19063   5.088  14.750   2.112  0.1113 -0.2418  0.2986
 2216W        W19064  15.613  16.375   3.198  0.0131 -0.4235 -0.1203
 2217W        W19065   0.275  13.349   1.652 -0.0430  0.1092  0.0289
 2218W        W19066  14.752   5.768  11.801  0.0462  0.1208  0.0055
 2219W        W19067   4.713  17.578   3.572  0.1943 -0.0474  0.2635
 2220W        W19068  11.784  10.570   0.209  0.2097 -0.2239 -0.0078
 2221W        W19069   9.282   1.831   5.141 -0.1867 -0.3087 -0.0410
 2222W        W19070   2.991  14.003   4.512  0.0450 -0.1312 -0.0918
 2223W        W19071  10.222   2.343  16.170 -0.2699  0.3462  0.3456
 2224W        W19072  15.240  16.921  11.527  0.0090 -0.1781 -0.0582
 2225W        W19073   3.851  16.567   0.468 -0.0976 -0.1548 -0.1647
 2226W        W19074  17.794  17.317  15.755 -0.0610  0.1058  0.2304
 2227W        W19075  16.261   6.969   2.627 -0.0078 -0.0506  0.3253
 2228W        W19076   9.944  10.589   4.762  0.3246  0.0361  0.2240
 2229W        W19077   9.858   3.841  11.974 -0.0737 -0.0409 -0.1089
 2230W        W19078   4.278  16.208   0.438  0.1692 -0.1097 -0.0289
 2231W        W19079  15.823  13.819   0.230 -0.4912  0.2510 -0.0336
 2232W        W19080  14.238   2.510  15.592  0.1828  0.5084 -0.2543
 2233W        W19081  15.893   8.022   5.698  0.0032 -0.1460  0.0613
 2234W        W19082   8.976  10.984  15.661  0.1584 -0.2750  0.2777
 2235W        W19083   2.880  12.293   0.164 -0.1881  0.1288  0.0068
 2236W        W19084  14.361   4.130  12.832  0.2531  0.0390  0.2147
 2237W        W19085   1.761  12.679   3.941 -0.2706  0.3332 -0.2354
 2238W        W19086  17.866  14.414  12.141 -0.1707 -0.0879 -0.1189
 2239W        W19087  16.726   8.322   4.359 -0.0445 -0.1271 -0.1903
 2240W        W19088  10.533   5.741  13.692  0.0385  0.3373 -0.1226
 2241W        W19089  12.736  17.635  13.130 -0.4084 -0.0190 -0.0018
 2242W        W19090  17.089  11.535  15.501 -0.4085 -0.1046  0.0174
 2243W        W19091   5.187   0.307   2.592 -0.0665 -0.1601 -0.0342
 2244W        W19092   8.511  13.118   4.240  0.1055  0.0702 -0.0902
 2245W        W19093   1.992  15.081  13.948  0.1895  0.1912 -0.2629
 2246W        W19094   9.569   6.258   5.665  0.3025  0.2566  0.0110
 2247W        W19095   1.518  14.107   1.084  0.1142 -0.0245 -0.1347
 2248W        W19096  17.318  13.838  13.808 -0.1245  0.0506 -0.5762
 2249W        W19097   5.306  13.656   1.240 -0.0839 -0.3234  0.2058
 2250W        W19098  15.424   1.214   4.463 -0.1127  0.3163  0.1415
 2251W        W19099   1.735  15.307   4.962 -0.2424 -0.0152  0.2971
 2252W        W19100  17.910   9.662   5.016  0.1299  0.1658  0.1055
 2253W        W19101   7.811   6.157  15.164  0.0303 -0.1794  0.2755
 2254W        W19102  18.094   7.391  12.463 -0.1703  0.2115 -0.3037
 2255W        W19103   2.482  12.208   5.030 -0.1361  0.0795 -0.0356
 2256W        W19104  11.417   9.693  16.199  0.1282  0.0930 -0.3087
 2257W        W19105   6.060   2.198   0.299 -0.2881 -0.1844 -0.1436
 2258W        W19106  17.177  16.666  11.074 -0.3881 -0.1950  0.0924
 2259W        W19107  13.418  11.165   5.977 -0.0758  0.1207  0.2137
 2260W        W19108   7.872   2.175   2.296 -0.2099 -0.0458  0.1184
 2261W        W19109   8.873  14.562   1.455  0.4127 -0.0873  0.1461
 2262W        W19110   3.589   9.275   5.259  0.1144  0.1441 -0.2677
 2263W        W19111   3.312   5.309   1.000  0.2511  0.0356  0.0626
 2264W        W19112   4.789   0.448   5.945 -0.1410  0.3248 -0.1608
 2265W        W19113  12.783  10.699   1.889  0.3329 -0.0517 -0.3429
 2266W        W19114   2.257  11.380   1.630  0.3227 -0.0108 -0.0696
 2267W        W19115  11.871   7.701   0.947  0.0823  0.2365 -0.0242
 2268W        W19116  16.283   2.782   0.773 -0.0921 -0.3333 -0.2077
 2269W        W19117  15.535  16.575   2.359 -0.0722 -0.1047 -0.0863
 2270W        W19118  10.159  10.358   2.645  0.1784  0.0833  0.0517
 2271W        W19119   8.989   6.079   4.044  0.1188 -0.1494 -0.1680
 2272W        W19120  17.337   1.095   0.631 -0.3406  0.4747 -0.1452
 2273W        W19121  14.255  13.754   5.786  0.0386  0.1659  0.1683
 2274W        W19122  14.216   1.445   2.715  0.0719 -0.0571 -0.2912
 2275W        W19123   5.147  16.092   3.216  0.2439 -0.2345 -0.0320
 2276W        W19124  12.209   0.205  11.012  0.0564 -0.0091  0.1334
 2277W        W19125   7.936   5.239  12.132 -0.0757  0.1180  0.1523
 2278W        W19126  15.086  14.240   0.215  0.2714 -0.0731 -0.2406
 2279W        W19127   7.295   0.890   2.428  0.0875 -0.2220 -0.0951
 2280W        W19128  17.567   1.041   1.798  0.1414 -0.0262 -0.0372
 2281W        W19129   7.900   4.295  10.979  0.1310 -0.1224  0.1131
 2282W        W19130   9.455   9.227  14.855 -0.0501  0.1065 -0.2938
 2283W        W19131  11.659   4.392  10.331  0.1133 -0.1726  0.0581
 2284W        W19132   3.004  10.475   0.712  0.0213 -0.5065  0.0050
 2285W        W19133  17.183   3.829  11.188 -0.1160 -0.1639 -0.0300
 2286W        W19134   5.902   7.596   0.395 -0.0485 -0.2707 -0.2936
 2287W        W19135   8.311   2.124   0.791  0.2959  0.0223 -0.1147
 2288W        W19136  14.729   6.365   1.383  0.0433  0.1027  0.1320
 2289W        W19137   5.693  14.933  11.972 -0.4376 -0.3932 -0.3532
 2290W        W19138   3.242  17.385  14.216 -0.0496 -0.0946 -0.2097
 2291W        W19139  10.427  13.232  10.652 -0.0024  0.1988  0.2431
 2292W        W19140   9.027  11.678  11.712  0.0650 -0.0412  0.1129
 2293W        W19141   6.479  16.976  12.140  0.0212 -0.2616 -0.0412
 2294W        W19142   9.426  10.844  15.355  0.0279  0.1933 -0.2565
 2295W        W19143  18.015   6.525   4.486  0.2530  0.1450  0.1092
 2296W        W19144  16.133   3.509   1.814  0.2341  0.3385  0.3418
 2297W        W19145  15.844   9.589  12.771 -0.0145  0.0668  0.3515
 2298W        W19146  12.017  13.073  13.620 -0.0858  0.0937 -0.0531
 2299W        W19147   7.773   6.804  15.845 -0.0106  0.0437  0.1632
 2300W        W19148  10.884  16.349  15.955 -0.1073  0.0430 -0.2564
 2301W        W19149  14.390  10.747   4.291 -0.0851  0.2605  0.2833
 2302W        W19150  12.532  10.891   2.886  0.2022  0.0831 -0.0981
 2303W        W19151  17.363   3.096   3.960  0.0205  0.1395 -0.1327
 2304W        W19152  15.843   4.742   3.326 -0.1728  0.2613 -0.2468
 2305W        W19153   0.957   0.657  14.825 -0.0792  0.2648 -0.2406
 2306W        W19154  14.075   3.579  11.386  0.1007 -0.1097  0.0368
 2307W        W19155  12.835  16.501   1.532 -0.1284 -0.2859  0.0992
 2308W        W19156  15.690   3.199  13.836 -0.3175 -0.0412 -0.0376
 2309W        W19157  12.544  13.573   4.518  0.1199 -0.1552 -0.3545
 2310W        W19158   6.583   6.856   4.505 -0.1916 -0.0561  0.0992
 2311W        W19159  14.922   1.618   3.614 -0.0511  0.1919  0.0056
 2312W        W19160   0.395   8.914   0.394 -0.0031 -0.3039  0.0208
 2313W        W19161  10.700   8.864   3.462  0.0772  0.1869  0.0925
 2314W        W19162   2.923  17.922   3.955 -0.0874  0.2811  0.2022
 2315W        W19163   2.151   0.300  15.704 -0.0378  0.3323 -0.0781
 2316W        W19164  10.809   4.979  15.149  0.0815 -0.0116  0.1717
 2317W        W19165   4.273   6.990   1.008  0.0797 -0.2836 -0.0447
 2318W        W19166  14.580  13.022  14.073  0.1180  0.0028 -0.1027
 2319W        W19167  14.759  10.578  14.574  0.0122 -0.1131 -0.0768
 2320W        W19168  14.096   2.817  16.040  0.0545 -0.0562  0.0371
 2321W        W19169   2.074   3.768  12.732  0.0242  0.4310 -0.1960
 2322W        W19170  11.816  10.913  12.776  0.0162  0.1113  0.1902
 2323W        W19171  14.799  16.764  15.996 -0.0128  0.2621  0.0667
 2324W        W19172  14.041   0.486   2.786 -0.1380 -0.1605 -0.0653
 2325W        W19173  12.722  11.492  13.098  0.0100 -0.2254  0.1368
 2326W        W19174  16.710   1.620   3.448 -0.1790  0.1837 -0.2813
 2327W        W19175   9.070  11.238   0.419 -0.1155 -0.1485  0.2216
 2328W        W19176   1.634   1.402  15.389 -0.4107  0.0165 -0.1068
 2329W        W19177  13.153   9.539   3.246  0.1563 -0.0044  0.2275
 2330W        W19178  11.095   3.613  11.615 -0.2338 -0.3578 -0.0134
 2331W        W19179   7.386   7.698  14.169  0.1625 -0.1195 -0.1692
 2332W        W19180   4.600   5.356  13.805 -0.0952 -0.0096  0.1774
 2333W        W19181  13.240  17.906  15.587 -0.1004  0.0212 -0.4662
 2334W        W19182  17.370   7.744   2.723 -0.2469  0.1836 -0.2634
 2335W        W19183   6.821  15.195   0.568  0.1711 -0.3364 -0.1277
 2336W        W19184  12.745   7.859   0.548  0.1125 -0.2590  0.1220
 2337W        W19185   0.942   1.762  14.261  0.3216 -0.1606  0.2476
 2338W        W19186   4.154   7.906   5.552 -0.2001  0.0901 -0.1194
 2339W        W19187  17.003  18.096  11.561 -0.1084  0.0547  0.0641
 2340W        W19188   9.887   1.386   3.014 -0.1223 -0.3031  0.0395
 2341W        W19189  11.118   4.101  11.594 -0.2396  0.0324 -0.1178
 2342W        W19190   0.864   7.217  13.149  0.1648 -0.2819 -0.0388
 2343W        W19191  13.697   1.523   2.514 -0.2291  0.4052  0.0686
 2344W        W19192  13.478   6.240   0.791 -0.0492 -0.2788  0.2164
 2345W        W19193  14.366   2.172  14.583 -0.1152 -0.2046  0.3064
 2346W        W19194   8.560  13.935   3.895 -0.2117 -0.4695  0.4214
 2347W        W19195  12.953  10.996  15.718  0.1230  0.1263 -0.2348
 2348W        W19196   3.390   0.420  11.909 -0.2930 -0.1325  0.1469
 2349W        W19197   6.929   0.647   4.397 -0.2298 -0.0028  0.1364
 2350W        W19198  17.421  14.496   4.521  0.0213  0.3740  0.0955
 2351W        W19199  15.194  13.064   3.211 -0.1479  0.0088 -0.3678
 2352W        W19200   5.626  15.724   1.807  0.0745 -0.1696 -0.2604
 2353W        W19201   4.429  13.167   4.623  0.2768 -0.2309 -0.1901
 2354W        W19202   0.725   0.168  15.651  0.0077  0.0041  0.0980
 2355W        W19203  16.100  15.425   0.748  0.0170 -0.0740  0.1744
 2356W        W19204   4.729   5.668  11.405  0.1500 -0.2382 -0.0662
 2357W        W19205   3.026   5.155   1.474  0.1266  0.4963  0.0526
 2358W        W19206   6.396   9.904  15.623 -0.1388  0.0935  0.0343
 2359W        W19207  14.474  16.655  12.984  0.0151 -0.0812 -0.0093
 2360W        W19208   4.089   6.783   0.309 -0.0021  0.1363  0.2049
 2361W        W19209   4.293  17.369   0.262  0.0527  0.0195  0.0190
 2362W        W19210  14.478  16.331   3.291  0.1581  0.0124 -0.0174
 2363W        W19211   0.290   1.346   0.717  0.1753 -0.2320  0.1875
 2364W        W19212  13.005  15.053   2.290  0.0904 -0.0155  0.1104
 2365W        W19213  10.951   8.351  11.780  0.0815 -0.1470 -0.0694
 2366W        W19214   8.665   5.865   3.716 -0.0477  0.1194 -0.1759
 2367W        W19215  16.925   3.393   4.295 -0.0090 -0.1290  0.0876
 2368W        W19216   1.319  13.049  13.922 -0.3567 -0.1030  0.0412
 2369W        W19217   7.495   8.518  15.013  0.1741 -0.1438  0.0114
 2370W        W19218  17.660  10.682  14.196  0.3275  0.1981 -0.2677
 2371W        W19219   7.888   2.365  14.280 -0.0030  0.0529  0.2081
 2372W        W19220  17.835   8.428  16.215 -0.0857  0.2125 -0.1295
 2373W        W19221   1.648   8.269  12.526  0.1934  0.0453 -0.0548
 2374W        W19222  16.602  16.798   4.861 -0.2172 -0.1220 -0.1593
 2375W        W19223   4.627   7.656  13.390 -0.2128 -0.1025  0.0026
 2376W        W19224   4.916   1.307   1.272  0.1888  0.1057  0.0639
 2377W        W19225   7.151  14.440  10.880 -0.1590  0.0964  0.2242
 2378W        W19226  11.576  16.331   3.693  0.0816 -0.0783  0.4443
 2379W        W19227   8.350  14.401  14.204 -0.1128 -0.1441  0.1375
 2380W        W19228   7.998  11.032  12.552  0.1217  0.0288  0.1996
 2381W        W19229   4.704  16.121  13.063  0.4224  0.0228  0.1235
 2382W        W19230   5.696   1.210  12.892 -0.2504 -0.0505  0.2756
 2383W        W19231   2.923  15.221  14.729  0.2219 -0.1735  0.0820
 2384W        W19232  17.735  16.227  15.083 -0.0156 -0.1629  0.2385
 2385W        W19233  13.987  17.122   3.633 -0.0528 -0.0421  0.0917
 2386W        W19234   0.247  18.070  14.698 -0.0272  0.1735  0.1313
 2387W        W19235   0.553   7.209   4.055 -0.1105 -0.0482 -0.2233
 2388W        W19236   8.811   5.956   0.094  0.1847 -0.3909  0.0757
 2389W        W19237  14.851   8.712  13.731  0.1651 -0.0107 -0.2461
 2390W        W19238   5.260   1.158  15.072  0.0529 -0.1425 -0.1636
 2391W        W19239   0.173  13.809  16.011  0.0127 -0.2116 -0.1246
 2392W        W19240   2.235   7.994  11.714 -0.0485 -0.0418 -0.1605
 2393W        W19241   3.111  14.312  14.783 -0.3266 -0.2904  0.2673
 2394W        W19242  13.585   4.064  16.094 -0.2467  0.0634 -0.0206
 2395W        W19243   9.011   4.716  13.525 -0.3093  0.0006  0.0630
 2396W        W19244   1.701  10.456  13.450 -0.1752 -0.4203  0.0483
 2397W        W19245   6.538   9.343  16.299 -0.0211 -0.2315 -0.1324
 2398W        W19246   5.439   7.638   0.688 -0.0734  0.0936 -0.0242
 2399W        W19247   9.089  11.826  14.279  0.3975 -0.1970 -0.0752
 2400W        W19248  10.007   9.303   4.034  0.2776 -0.0865  0.0019
 2401W        W19249   4.786   7.196   2.247  0.0069 -0.0739 -0.2629
 2402W        W19250   4.590  11.987   3.036  0.3058 -0.2614  0.1559
 2403W        W19251   6.430  10.012   1.058 -0.1289  0.0267  0.2575
 2404W        W19252   4.054   5.301   1.477 -0.1947  0.1575  0.1475
 2405W        W19253  14.991  14.874  15.854 -0.0026 -0.1130 -0.0563
 2406W        W19254  17.151   1.646  13.859  0.0924 -0.0693  0.3606
 2407W        W19255   1.230  11.884   2.472  0.2217  0.2882 -0.0985
 2408W        W19256   8.203   0.742  13.348 -0.1102  0.0628  0.3655
 2409W        W19257   5.571  10.358   3.172 -0.0756  0.3124  0.0069
 2410W        W19258   0.553   3.180  11.933  0.0307  0.1375  0.1677
 2411W        W19259   6.091  16.623  12.423  0.3106  0.1498 -0.1608
 2412W        W19260   2.340  17.096  12.691  0.0504  0.0219  0.4530
 2413W        W19261  18.047  17.738  13.489  0.0266 -0.4227  0.1293
 2414W        W19262   1.920   4.474  12.341 -0.0028 -0.0138  0.2186
 2415W        W19263   6.103  16.694   3.920  0.2936 -0.1236  0.3694
 2416W        W19264  13.117  12.755   2.389 -0.1780 -0.3475 -0.1566
 2417W        W19265   4.690   9.810  14.799 -0.1111 -0.1533  0.0225
 2418W        W19266  10.308  17.089   1.684 -0.3185  0.3899 -0.1376
 2419W        W19267  13.275   9.406   0.836  0.0390  0.0965 -0.0964
 2420W        W19268   5.163   7.448   1.378  0.3722  0.1070  0.1155
 2421W        W19269   9.927   1.977  10.165  0.1816 -0.1149  0.2482
 2422W        W19270  11.409   6.934  13.728 -0.0543  0.0561  0.1577
 2423W        W19271  13.598   4.404  11.491  0.0545 -0.0739 -0.0527
 2424W        W19272   5.348  15.324  11.766  0.0652  0.6411  0.0249
 2425W        W19273  14.018   5.332  11.447 -0.1376  0.0052  0.2661
 2426W        W19274  16.829  13.012  13.698  0.1003 -0.2892 -0.3113
 2427W        W19275  13.833   5.686  14.635 -0.1003 -0.0219 -0.0368
 2428W        W19276  15.885   6.711   1.488 -0.0272 -0.0971 -0.1447
 2429W        W19277   9.022   3.212  15.836 -0.0737 -0.0180 -0.2461
 2430W        W19278  15.580   7.371   3.247 -0.0869  0.0642  0.1952
 2431W        W19279   7.255   1.941   2.616 -0.1956  0.0766  0.0932
 2432W        W19280  12.733   2.918  14.163  0.0057  0.0750 -0.1152
 2433W        W19281   6.337   3.547  12.675 -0.0059 -0.4941 -0.0973
 2434W        W19282   2.146  10.431   3.366 -0.0202  0.1149 -0.0423
 2435W        W19283  15.894   0.461  15.599 -0.0407 -0.3546  0.0323
 2436W        W19284  15.750   6.084  12.787 -0.0360 -0.0156 -0.0357
 2437W        W19285  12.509   3.496   1.001 -0.0176 -0.2369 -0.0911
 2438W        W19286  11.732  18.053   3.565  0.0082  0.0217  0.0724
 2439W        W19287  11.548  16.806   2.816  0.0610 -0.0935 -0.0484
 2440W        W19288   4.818  12.999  13.671  0.3344 -0.1112  0.1505
 2441W        W19289   0.937  14.663  14.965  0.1354  0.1938  0.1159
 2442W        W19290   9.498  11.437   0.497 -0.0411  0.0005  0.2685
 2443W        W19291   8.377   2.525  14.315 -0.3336 -0.2665 -0.1660
 2444W        W19292  17.552  10.304   0.934  0.1124 -0.1141  0.1507
 2445W        W19293  13.900   3.766   4.221  0.1179 -0.1618  0.3974
 2446W        W19294  14.525   1.500   4.008 -0.0300 -0.2006 -0.0057
 2447W        W19295   4.616  17.278  11.680 -0.0303  0.3986 -0.0846
 2448W        W19296   2.191  13.577   1.268 -0.1069  0.0773 -0.0003
 2449W        W19297  13.243  12.780  12.571  0.0358  0.0666  0.0069
 2450W        W19298  12.926  14.988  11.439 -0.1628  0.1811  0.0693
 2451W        W19299  17.660  11.653  14.826  0.2080  0.1434 -0.1008
 2452W        W19300   2.994  11.978   5.079 -0.2514 -0.2677 -0.2077
 2453W        W19301   3.955  12.637   4.177  0.0903  0.0587  0.0752
 2454W        W19302  15.265   6.428  14.308 -0.2312  0.0544  0.1715
 2455W        W19303  11.996  15.345  15.569 -0.0116 -0.0586 -0.1730
 2456W        W19304  17.864   3.061   5.154  0.2085 -0.0349  0.1175
 2457W        W19305  10.252  17.173   0.332  0.1496  0.3268 -0.0753
 2458W        W19306  13.913   1.874  15.786 -0.4457  0.1275 -0.1725
 2459W        W19307   6.427   7.633   2.354 -0.0812  0.0230 -0.1071
 2460W        W19308   8.663   9.227  11.197 -0.0416 -0.0183  0.0250
 2461W        W19309   0.076  13.746  15.554 -0.0149 -0.1156 -0.2123
 2462W        W19310   9.785  17.424   5.037 -0.2112  0.2418 -0.3056
 2463W        W19311   7.548  10.128   2.315  0.0616 -0.0598 -0.0425
 2464W        W19312   0.718  10.303   5.553  0.3306  0.0456  0.1094
 2465W        W19313  14.255   1.668   2.209  0.1743  0.1346 -0.0729
 2466W        W19314   2.970   1.674   4.381 -0.0793  0.0194 -0.1165
 2467W        W19315   7.930  15.028  14.878 -0.3741  0.5592 -0.0542
 2468W        W19316  13.602  16.568  11.921 -0.0278 -0.1289 -0.0133
 2469W        W19317   6.237   9.041   3.395 -0.1041 -0.0755 -0.1445
 2470W        W19318   1.828   7.727  13.321 -0.1372 -0.2536 -0.1655
 2471W        W19319   2.458  10.898  13.687  0.0360  0.0379 -0.0474
 2472W        W19320  13.461   0.596   1.417  0.0622 -0.2639 -0.0537
 2473W        W19321  14.995  11.523   2.376 -0.1640 -0.3182  0.0457
 2474W        W19322   9.527   3.382   2.677 -0.0314  0.5425 -0.1598
 2475W        W19323  15.882   8.504   1.749 -0.0934  0.0182  0.2886
 2476W        W19324   8.515  14.684  15.460  0.1817 -0.2125  0.0311
 2477W        W19325  11.366  16.098  12.590  0.0775 -0.0575  0.0826
 2478W        W19326  15.957   8.365  15.826 -0.2490 -0.0678 -0.0100
 2479W        W19327  17.769   9.450   0.977 -0.1661 -0.0323 -0.2852
 2480W        W19328   4.783   1.806  11.636  0.1242  0.1509  0.0058
 2481W        W19329   5.119   9.578  16.079 -0.0216  0.2270  0.0842
 2482W        W19330   0.649   9.080  15.811  0.0275 -0.0561 -0.2439
 2483W        W19331   9.514   1.287  15.308  0.0535  0.1269  0.1523
 2484W        W19332  17.975  14.281   2.684  0.1972  0.0623  0.1907
 2485W        W19333   5.002  16.959  14.667  0.1998  0.2264 -0.2992
 2486W        W19334  10.304   8.215  14.956  0.0499  0.1099  0.0501
 2487W        W19335   3.958  10.258  13.221  0.0503 -0.1165  0.0002
 2488W        W19336  10.355   7.796  14.532 -0.1236  0.3174  0.1031
 2489W        W19337  11.449   6.827   1.921  0.0023 -0.2691  0.3169
 2490W        W19338  10.055  10.290  14.656 -0.3497 -0.1106  0.2204
 2491W        W19339   2.462   9.491   3.063 -0.2061 -0.3374 -0.1966
 2492W        W19340   3.338  16.408  14.085 -0.2655  0.1529  0.0289
 2493W        W19341   0.437  10.163   6.157  0.0979 -0.1895  0.0222
 2494W        W19342  13.628   4.279   5.104 -0.1935 -0.3641  0.0974
 2495W        W19343   3.552  12.261   3.855  0.1059  0.1997  0.0315
 2496W        W19344   0.026   7.920   3.743 -0.0336  0.1988 -0.4207
 2497W        W19345  16.956   9.026  13.312 -0.1873 -0.0896  0.1872
 2498W        W19346  10.060   8.779   1.420 -0.1402 -0.4690  0.2537
 2499W        W19347   1.625  12.773   1.585  0.0216 -0.0035 -0.3159
 2500W        W19348   5.953  12.184  13.675  0.0823 -0.1403  0.1294
 2501W        W19349   9.668  10.072  11.408 -0.2798 -0.4412  0.4070
 2502W        W19350  17.847   9.538  12.551  0.1821 -0.1787 -0.3076
 2503W        W19351   9.199   3.281   4.064  0.1297  0.0346 -0.0102
 2504W        W19352  12.382  12.135   2.919 -0.1277  0.0933  0.0313
 2505W        W19353  16.317   4.256   4.647  0.2230 -0.1311 -0.0826
 2506W        W19354  10.682   3.835  13.364 -0.0048  0.1320  0.0593
 2507W        W19355   8.977   4.929   0.134 -0.0230 -0.0179 -0.3261
 2508W        W19356  12.713  10.086   4.003  0.2019 -0.1069  0.0244
 2509W        W19357  16.545   7.303   1.193 -0.0112  0.0317  0.0605
 2510W        W19358  17.506  16.834  16.317  0.1198  0.0782 -0.2197
 2511W        W19359   0.281   3.214   1.542 -0.2987 -0.1443 -0.0480
 2512W        W19360  13.724   1.014   4.450 -0.0363 -0.2402  0.0346
 2513W        W19361   5.368   7.558  12.766 -0.1175 -0.0065  0.0591
 2514W        W19362  13.497   4.443  13.087 -0.1430  0.1566 -0.2001
 2515W        W19363  13.471   8.823   0.828  0.2102 -0.1457 -0.1253
 2516W        W19364  11.329  13.604  15.868 -0.0088  0.2374  0.0074
 2517W        W19365  13.510  11.423   1.751 -0.1449 -0.0211 -0.2288
 2518W        W19366  11.580   3.267   3.693  0.1099  0.2860 -0.0716
 2519W        W19367  18.026   2.077  15.093  0.0590  0.1548  0.2173
 2520W        W19368   4.875   2.999   5.911 -0.0683  0.2867  0.3151
 2521W        W19369   7.357   8.256   3.249  0.0574  0.2802  0.0509
 2522W        W19370  15.201   0.698  12.967  0.0402 -0.2040  0.3017
 2523W        W19371  13.003  16.151   0.129  0.0316 -0.0694 -0.0717
 2524W        W19372  12.327   2.245  13.685  0.3219  0.0223  0.0244
 2525W        W19373  12.700  17.295   2.610  0.0774 -0.0352 -0.1289
 2526W        W19374  13.730  15.374  11.961 -0.3175 -0.0102 -0.0370
 2527W        W19375   0.013   4.049  13.388 -0.1437  0.0200  0.0912
 2528W        W19376   4.337  16.981  11.065  0.2323  0.2191  0.4341
 2529W        W19377  15.903   6.484   0.543 -0.2046 -0.2729 -0.2977
 2530W        W19378   4.851   4.606  12.945 -0.1510  0.0479 -0.0244
 2531W        W19379   8.084   3.864   4.986 -0.0672 -0.2838 -0.2477
 2532W        W19380   0.255  10.074   3.697 -0.4188 -0.0914  0.1024
 2533W        W19381   2.271   0.572   1.709  0.0933 -0.1350 -0.2227
 2534W        W19382   0.343  10.547   3.354  0.2711  0.0506 -0.0747
 2535W        W19383  11.642  11.428   0.069  0.1785 -0.0671  0.1528
 2536W        W19384  10.885  10.807  15.588  0.1605 -0.0234  0.0934
 2537W        W19385  18.015  17.114   3.106  0.1190  0.0772 -0.3952
 2538W        W19386  10.384  11.616  13.284  0.0290  0.1239  0.0573
 2539W        W19387  13.816  17.736  13.969 -0.1362  0.2335 -0.1067
 2540W        W19388   9.337   9.575   1.116  0.1274 -0.2713 -0.0841
 2541W        W19389  16.760   0.385   2.625  0.0368  0.0788 -0.1919
 2542W        W19390  15.632   8.959  14.896 -0.1742 -0.1134  0.0402
 2543W        W19391   6.859   5.498  11.664 -0.1352 -0.0637 -0.0983
 2544W        W19392  12.707  12.882  12.452  0.3672 -0.0602 -0.1235
 2545W        W19393   7.769  10.790   1.602  0.1968 -0.0546 -0.1410
 2546W        W19394  13.070   6.312  16.163  0.0687 -0.1432  0.0347
 2547W        W19395   8.060  14.579   1.108 -0.2969  0.0696  0.1288
 2548W        W19396   3.601  13.308  15.900 -0.3550  0.0160 -0.1557
 2549W        W19397  15.136   6.609   3.151 -0.1130 -0.2056 -0.2511
 2550W        W19398   9.914  15.424   2.371 -0.1465  0.3974  0.1041
 2551W        W19399  15.644  12.515  15.479 -0.1782  0.1617  0.0575
 2552W        W19400  17.534   7.796  15.387 -0.2523 -0.1299  0.1545
 2553W        W19401  14.654   2.659   2.879  0.0186  0.0748  0.0328
 2554W        W19402   5.921   8.725  13.035 -0.1962 -0.1247 -0.0664
 2555W        W19403   4.177   7.427  13.248 -0.1292  0.0835 -0.1872
 2556W        W19404  10.969   4.921  12.568 -0.0350  0.1624  0.1159
 2557W        W19405   9.578  16.389  15.826 -0.0900  0.0031 -0.2363
 2558W        W19406   3.894   5.424   4.682  0.1916 -0.2688  0.4151
 2559W        W19407  15.733  15.736  11.678 -0.1005  0.3578 -0.5033
 2560W        W19408   0.261   6.739  13.228  0.1698 -0.0971 -0.2469
 2561W        W19409  14.479  14.996   1.371  0.0874 -0.0614 -0.1138
 2562W        W19410  12.552  15.986   0.312 -0.2205  0.0876  0.0650
 2563W        W19411  14.926   8.328  14.964  0.2488 -0.0279 -0.4040
 2564W        W19412   5.567  16.319  13.267 -0.4199 -0.2332  0.0892
 2565W        W19413   7.953   1.520   4.449  0.2037 -0.2093 -0.0089
 2566W        W19414  17.953  16.937   1.657  0.1419 -0.0547  0.2420
 2567W        W19415  13.346   2.424  14.538  0.1394 -0.0643  0.1082
 2568W        W19416  14.077  14.111   2.728 -0.0369 -0.0941  0.3755
 2569W        W19417  12.107   6.439  12.183 -0.0896  0.0827  0.0808
 2570W        W19418   7.056  17.936   2.057 -0.0432 -0.0171  0.1669
 2571W        W19419   2.679   8.281   3.710 -0.0282  0.2004  0.0623
 2572W        W19420  11.262  13.122   0.678 -0.3757  0.1448 -0.0928
 2573W        W19421   8.140   6.009   3.784 -0.2473  0.0647  0.2479
 2574W        W19422   8.170  16.376  15.602  0.2478  0.5445 -0.2028
 2575W        W19423   6.308   5.135  13.484  0.0196  0.0688 -0.0938
 2576W        W19424  12.098  17.916  11.930 -0.1615 -0.5036  0.2390
 2577W        W19425  16.698   2.980   0.450  0.4093 -0.0780  0.0588
 2578W        W19426   4.230   4.526   3.279 -0.0353  0.0705  0.1729
 2579W        W19427  16.235  15.570   1.222  0.0799  0.3178  0.0950
 2580W        W19428  16.666   4.091  11.632  0.1684 -0.1975 -0.1024
 2581W        W19429  14.362   6.482  15.135  0.0837 -0.1001 -0.0596
 2582W        W19430   8.507  14.805  11.107  0.0411  0.1563 -0.0687
 2583W        W19431   8.620  13.780   0.763  0.0820  0.2065 -0.0257
 2584W        W19432  12.878   3.172   1.104  0.2483  0.2023 -0.1767
 2585W        W19433   4.386   8.826  15.783 -0.3447  0.0983  0.0999
 2586W        W19434  15.183   4.325  12.910 -0.1679 -0.3299 -0.1880
 2587W        W19435  13.579  16.113  15.231 -0.0223 -0.0355  0.0642
 2588W        W19436   7.215   2.254   3.135  0.2783 -0.0856 -0.2216
 2589W        W19437  16.851   5.022   2.949 -0.1382  0.2947 -0.1398
 2590W        W19438  17.645  10.517   5.114 -0.1748  0.1198  0.2376
 2591W        W19439   2.964   5.535   5.416  0.1174  0.0431  0.2041
 2592W        W19440   8.973   5.757   0.533  0.0142 -0.0327 -0.2877
 2593W        W19441   7.971   1.682   3.937  0.0385 -0.1139 -0.1322
 2594W        W19442   4.935   8.133   1.391 -0.0326 -0.0790  0.0708
 2595W        W19443  13.868  10.976   3.809 -0.3051 -0.1791  0.2302
 2596W        W19444  16.682   2.034  13.604 -0.1366  0.3449  0.1173
 2597W        W19445  14.398  10.075   5.289  0.0589  0.2384  0.4812
 2598W        W19446   7.579  12.993  11.565 -0.1216 -0.2225 -0.1277
 2599W        W19447  10.579   4.978   2.766 -0.0015 -0.0994  0.0662
 2600W        W19448  12.644  14.158  11.165  0.0198  0.1467  0.0284
 2601W        W19449  14.750   9.762  12.679  0.3532  0.1323 -0.3159
 2602W        W19450  10.490  16.580  16.155  0.0777 -0.0247 -0.0087
 2603W        W19451  17.164  17.081  10.737  0.1934  0.0194 -0.1190
 2604W        W19452   6.149  15.318  11.107 -0.2626  0.1871  0.1845
 2605W        W19453  16.700   6.056  14.030  0.2811  0.1336  0.2425
 2606W        W19454   6.984   6.787   3.504 -0.3294 -0.0831 -0.4909
 2607W        W19455  10.574  17.526  12.872 -0.0654 -0.2027 -0.4093
 2608W        W19456   2.508   5.763  15.789 -0.1930 -0.1403  0.2672
 2609W        W19457  11.779   7.322   0.648  0.2672 -0.0167 -0.2205
 2610W        W19458   2.594  10.431  13.054 -0.0274  0.1932 -0.0995
 2611W        W19459  14.622   8.444   2.683 -0.0202  0.0006  0.1755
 2612W        W19460  17.109   5.612  10.891  0.1012  0.0542  0.0165
 2613W        W19461  14.960   0.776  14.164  0.1600  0.0063 -0.3208
 2614W        W19462   4.778   5.788   2.079  0.0368  0.0808  0.0135
 2615W        W19463   1.321  12.242  14.157  0.0439  0.0024  0.3825
 2616W        W19464   2.148   9.062   2.890  0.1873 -0.0368  0.0723
 2617W        W19465   1.435   8.659  16.207 -0.2950  0.1967 -0.0437
 2618W        W19466   8.863  13.922  11.389  0.0908  0.2358  0.3740
 2619W        W19467  15.123   9.102   3.551 -0.1157  0.1273  0.2069
 2620W        W19468   1.044  13.869  12.305  0.1302 -0.0082  0.1303
 2621W        W19469  10.493  10.565   3.823  0.3934  0.0113  0.1905
 2622W        W19470  14.644  17.682  15.617 -0.0722 -0.0668 -0.0974
 2623W        W19471   5.208  16.448   3.580  0.1296  0.1452 -0.0421
 2624W        W19472   0.357  10.657   1.512 -0.0564  0.2336  0.0363
 2625W        W19473  14.074   7.714  10.588 -0.0401  0.0514  0.0962
 2626W        W19474   1.239   5.253   4.217 -0.0235 -0.1738 -0.0973
 2627W        W19475   8.490  10.260   1.143  0.2770 -0.0873  0.1304
 2628W        W19476   4.398  14.264  12.450  0.1554 -0.0063 -0.1837
 2629W        W19477   9.304   8.043  13.031 -0.0775 -0.4711 -0.1076
 2630W        W19478   2.359  17.563   1.135 -0.1838  0.0599  0.0430
 2631W        W19479   0.367   7.100  12.937 -0.5855 -0.0634  0.0605
 2632W        W19480   7.052   2.566  14.324  0.1224 -0.0334  0.0607
 2633W        W19481  13.385   0.535  14.113 -0.0121  0.0451 -0.0260
 2634W        W19482   4.672  10.697   1.299  0.2675 -0.0387  0.0909
 2635W        W19483   5.463  10.472  11.556 -0.1655  0.2196  0.3089
 2636W        W19484   4.839  13.998   3.397 -0.1958  0.4030 -0.2203
 2637W        W19485  11.896  17.726  16.112  0.0598 -0.0053 -0.0834
 2638W        W19486  13.523  17.934   4.799 -0.0578  0.0150  0.2107
 2639W        W19487   0.498   3.937  11.408 -0.2242  0.0866 -0.0531
 2640W        W19488   2.242  17.304  13.243  0.0481  0.2409 -0.0948
 2641W        W19489   5.961   8.427  14.354  0.0320 -0.0264  0.1400
 2642W        W19490   3.782  16.852   2.689 -0.0951 -0.0541  0.2005
 2643W        W19491   5.909   1.883   0.659  0.0751 -0.0502  0.0704
 2644W        W19492   5.184   0.777  14.155  0.1984 -0.0967 -0.0305
 2645W        W19493   0.079   1.847  13.646 -0.2861 -0.1270 -0.0745
 2646W        W19494   2.535  17.786   1.551  0.2698  0.0099 -0.1392
 2647W        W19495   2.953  15.963  11.508 -0.0208 -0.0668  0.2934
 2648W        W19496   8.788   1.558   0.791 -0.0989  0.1290  0.3592
 2649W        W19497   0.477  10.964  12.900  0.2725  0.2266  0.0347
 2650W        W19498  11.096  10.530  14.680  0.0756 -0.0989 -0.1885
 2651W        W19499   0.657   2.848   1.526  0.0915 -0.0160  0.2090
 2652W        W19500   6.631   7.259  16.182 -0.2326 -0.0703 -0.0022
 2653W        W19501   7.241  12.493  12.494 -0.4002 -0.0599 -0.0861
 2654W        W19502  15.130   1.353   2.613 -0.0712 -0.3538  0.4041
 2655W        W19503  12.643   1.625  15.991  0.1545 -0.0212  0.1167
 2656W        W19504   3.487  17.277   0.304 -0.0671 -0.0887  0.0543
 2657W        W19505   0.143  12.813  15.451 -0.1016  0.0779 -0.1851
 2658W        W19506  17.342  10.288   3.889 -0.1316  0.1954  0.0587
 2659W        W19507   9.286   5.998   1.640  0.0353  0.0780 -0.0698
 2660W        W19508  16.791  10.642  13.581  0.1221  0.0523 -0.3076
 2661W        W19509   7.332  12.748  14.192 -0.1887 -0.1994 -0.4057
 2662W        W19510   2.116  10.854   5.073  0.0534  0.0848 -0.0582
 2663W        W19511  13.491  17.408  10.946  0.1279  0.0591  0.1508
 2664W        W19512   6.562   5.635   1.309 -0.0389  0.1756 -0.1123
 2665W        W19513   2.017   8.583   2.863  0.0835  0.1644  0.0507
 2666W        W19514   2.686   6.758   2.377  0.0857 -0.2386 -0.0449
 2667W        W19515  12.020   4.239  12.495 -0.0973  0.2176  0.0269
 2668W        W19516   8.102   6.709   1.033 -0.0284  0.0928  0.0961
 2669W        W19517   2.325  13.136   0.113 -0.2350 -0.1300 -0.1957
 2670W        W19518  12.948   0.762  16.268  0.1881  0.1197  0.0717
 2671W        W19519  17.334   9.715   3.079  0.0484  0.0954 -0.3586
 2672W        W19520   6.200   8.136  12.504 -0.0754 -0.2278  0.0928
 2673W        W19521   2.233   2.659   3.695  0.1529 -0.2094 -0.0910
 2674W        W19522   5.619   6.722  14.240 -0.1897  0.1246 -0.0026
 2675W        W19523   1.291   7.947   2.694  0.1110  0.2655 -0.0778
 2676W        W19524  14.293  16.563  11.173  0.1802 -0.0309  0.0306
 2677W        W19525  14.870  15.737  16.124  0.1075 -0.4075  0.1962
 2678W        W19526  16.810   4.156   4.503 -0.0001  0.0983  0.0107
 2679W        W19527   4.376   0.141   1.047  0.0726  0.1801 -0.5408
 2680W        W19528   1.781  14.307  11.432  0.1807 -0.1308 -0.2790
 2681W        W19529  16.914   8.810   1.538 -0.2785 -0.0309 -0.0949
 2682W        W19530   0.952  15.914  11.933  0.0291  0.1341 -0.1430
 2683W        W19531  16.575   1.708   1.969  0.0903  0.0169  0.1432
 2684W        W19532   7.111   8.188   3.698  0.1406 -0.1289  0.0743
 2685W        W19533  10.026   8.105   3.300 -0.0216 -0.0467 -0.6288
 2686W        W19534   8.790   9.842  11.309 -0.0029  0.0409  0.5733
 2687W        W19535   0.103  17.668   2.831  0.1290 -0.0279  0.3375
 2688W        W19536  15.741   5.420   4.851 -0.2938  0.1652 -0.2409
 2689W        W19537  11.402  12.648  14.564  0.0478  0.2007 -0.0750
 2690W        W19538   2.426   0.001   2.104  0.0603  0.0145  0.0795
 2691W        W19539   3.521  15.232   1.583 -0.0422  0.0460  0.1979
 2692W        W19540   8.004   2.215   1.826  0.0220  0.0412  0.0196
 2693W        W19541  13.281  14.195  15.913 -0.2891 -0.0124 -0.2447
 2694W        W19542  18.041   4.635   1.276 -0.1108 -0.2819  0.0277
 2695W        W19543  13.132   4.270  14.585 -0.0674 -0.4461  0.2323
 2696W        W19544  11.061   9.216  13.398 -0.0443  0.0538  0.1258
 2697W        W19545  16.650  15.156  10.312 -0.1400  0.1059  0.1003
 2698W        W19546   1.264   4.279  12.497  0.2737 -0.2505 -0.2717
 2699W        W19547   1.815   6.719   1.495 -0.2291  0.0908  0.2028
 2700W        W19548  15.365  14.586  14.699  0.4875  0.1007  0.5189
 2701W        W19549   4.170   9.575   2.245  0.1562  0.0513 -0.0789
 2702W        W19550   3.787  11.338   4.298  0.2063 -0.0391 -0.0668
 2703W        W19551  15.710  17.983  11.278  0.0914  0.0388 -0.0659
 2704W        W19552   2.910  10.435   5.694 -0.0746  0.0058 -0.3219
 2705W        W19553  10.167   9.574   1.431 -0.3216  0.0075 -0.2115
 2706W        W19554   1.827  14.528   0.169  0.3250 -0.2370 -0.0187
 2707W        W19555  10.421  17.839   3.211 -0.3220  0.0895 -0.2691
 2708W        W19556  13.944   0.627   1.317  0.3367 -0.0000  0.3272
 2709W        W19557   6.274   0.446   1.922 -0.1462  0.2458 -0.0987
 2710W        W19558   4.003   2.122  14.838 -0.3739  0.2022  0.1047
 2711W        W19559   4.918   5.421  12.538 -0.1109  0.1064 -0.1545
 2712W        W19560   5.335  12.631   2.159  0.1995 -0.0097 -0.1633
 2713W        W19561  10.499  12.480  15.836  0.1853  0.1679  0.1384
 2714W        W19562   3.857   0.198   1.786  0.2479 -0.0944 -0.4627
 2715W        W19563  17.555  12.309  13.978 -0.2641  0.0223 -0.0420
 2716W        W19564   3.675  12.646  15.057  0.0339 -0.0801 -0.0248
 2717W        W19565   9.301   5.943   1.120 -0.0779  0.2704 -0.0430
 2718W        W19566   2.394   0.411  12.050  0.1402 -0.1148  0.1503
 2719W        W19567  17.330  14.122   1.594  0.0328 -0.0831 -0.1753
 2720W        W19568   1.236  10.069  15.519 -0.0106  0.5202 -0.1054
 2721W        W19569  11.080   9.637   4.516 -0.0264 -0.2724  0.0750
 2722W        W19570  12.747   6.541   3.601  0.0236  0.2103 -0.0258
 2723W        W19571   7.139   9.527  12.137  0.0502 -0.2695 -0.1957
 2724W        W19572   7.980  17.272   4.928 -0.1188 -0.1838 -0.0269
 2725W        W19573   9.395  17.143   4.778 -0.1740 -0.1356 -0.3278
 2726W        W19574   6.926   8.832  13.435  0.0612 -0.0047  0.2800
 2727W        W19575  16.599   1.697  13.915  0.0437 -0.0050  0.0999
 2728W        W19576   2.280  17.597  11.752 -0.0344  0.1538  0.2147
 2729W        W19577   6.390   9.551  14.160  0.1009  0.1350  0.0990
 2730W        W19578   0.975  15.564   4.801  0.1746  0.1233  0.0097
 2731W        W19579  11.247   0.377   2.327 -0.2261  0.1084 -0.4652
 2732W        W19580  17.802  11.051  14.897  0.1288 -0.1355  0.0234
 2733W        W19581  12.621   0.553   3.767 -0.0484  0.2354 -0.4000
 2734W        W19582  13.649   2.361  13.143 -0.3869  0.0907  0.2010
 2735W        W19583  17.872   2.589  14.984  0.1418 -0.1366 -0.2090
 2736W        W19584  13.242  16.423   5.573 -0.3442 -0.2858  0.0634
 2737W        W19585   6.503   6.462  13.219 -0.1208 -0.0336 -0.2411
 2738W        W19586  17.908   8.838  13.901  0.1789  0.1327  0.2347
 2739W        W19587  14.222   5.176  13.275 -0.0824 -0.0579 -0.1949
 2740W        W19588  16.803   4.803   4.341 -0.2620  0.5466 -0.2693
 2741W        W19589  13.348   4.139   1.590  0.0111  0.0365 -0.0424
 2742W        W19590   5.880   8.738  12.445  0.4195  0.1565  0.1156
 2743W        W19591  15.140  11.018  14.667 -0.2972  0.0947 -0.0925
 2744W        W19592   4.675   6.350   2.867 -0.1595 -0.2599  0.1457
 2745W        W19593  17.986   0.984  11.692  0.3828  0.1158 -0.3091
 2746W        W19594   5.738   1.778  12.109 -0.3048 -0.2533 -0.2267
 2747W        W19595  12.974  15.488  15.731 -0.5427  0.2161 -0.0221
 2748W        W19596   5.563   5.011  13.906 -0.1721 -0.1478 -0.0710
 2749W        W19597   1.526  13.312   1.756 -0.1479 -0.0578 -0.0661
 2750W        W19598   4.049   7.002  12.981  0.0744  0.0184 -0.0890
 2751W        W19599   7.868   3.210   0.500  0.3214  0.0738 -0.0564
 2752W        W19600   9.282  15.606  10.932 -0.1130  0.1239  0.1495
 2753W        W19601   0.529   2.203   2.638 -0.1155 -0.2328 -0.0305
 2754W        W19602  13.145   2.065   3.834  0.2565  0.3414  0.3192
 2755W        W19603   8.878   9.702   2.654 -0.4514 -0.1549  0.0450
 2756W        W19604  13.945  11.013  13.637  0.0908  0.1190 -0.0166
 2757W        W19605   4.339   5.450   3.769  0.1956  0.0620 -0.2592
 2758W        W19606   0.621   4.916   2.702 -0.0274 -0.0314  0.1165
 2759W        W19607   4.939   9.377  13.869 -0.2060  0.0121  0.0325
 2760W        W19608   9.679  16.550  11.519  0.0284 -0.1702  0.2221
 2761W        W19609  14.483   9.838  13.970  0.2028 -0.2097 -0.4258
 2762W        W19610  15.636   6.785  14.363  0.0568 -0.4484  0.2790
 2763W        W19611  16.751  13.349   4.071  0.0957 -0.1099  0.0219
 2764W        W19612   0.567  16.094  14.593 -0.0772 -0.1068 -0.0882
 2765W        W19613   5.404  18.040  12.891 -0.1696 -0.2396 -0.1876
 2766W        W19614   6.683   2.803   3.583 -0.1613  0.0076 -0.0372
 2767W        W19615  11.489  17.275  14.652  0.0083 -0.2056 -0.1631
 2768W        W19616  15.653  16.347   0.910  0.0032  0.0296 -0.3233
 2769W        W19617   9.751   8.259  13.057  0.3376  0.0152  0.2476
 2770W        W19618   6.357  14.796  14.034 -0.0951  0.2549  0.1852
 2771W        W19619   6.829  17.311  14.953 -0.0322  0.0165 -0.2385
 2772W        W19620   9.768   0.524   3.833 -0.1560 -0.1365 -0.0819
 2773W        W19621   2.495  11.314  13.447  0.0770 -0.1379 -0.0554
 2774W        W19622  13.194  16.421   2.343 -0.2130  0.1063  0.0506
 2775W        W19623   9.051  11.706   3.102  0.2740 -0.1388  0.1941
 2776W        W19624  14.374   3.095   2.125  0.1222 -0.2792  0.1439
 2777W        W19625  15.524   6.037  14.966 -0.1415  0.0064 -0.0269
 2778W        W19626  11.261  11.653  14.970  0.3086  0.1045 -0.1691
 2779W        W19627   7.662   9.025   0.675 -0.0369 -0.1919 -0.2919
 2780W        W19628   8.583  16.533   2.924  0.2191  0.2877  0.0708
 2781W        W19629  12.561   5.179  12.315  0.2538 -0.2084  0.0082
 2782W        W19630   1.566   2.959   1.771  0.2420 -0.2165 -0.0985
 2783W        W19631   6.002  17.099   2.665 -0.1292 -0.1717  0.2563
 2784W        W19632   7.767   6.263   5.520  0.1668 -0.1439 -0.0354
 2785W        W19633  16.703  10.038   2.907 -0.0697  0.3346  0.2748
 2786W        W19634   1.214  15.498  14.042  0.0499  0.0204 -0.2826
 2787W        W19635   0.804   7.368   3.419 -0.0688  0.0566  0.3334
 2788W        W19636   9.719  14.625   5.132  0.1889 -0.1061 -0.0466
 2789W        W19637  17.739  13.323  16.313 -0.0886 -0.0159  0.2022
 2790W        W19638  12.088   3.245  11.667  0.1778 -0.1342 -0.0697
 2791W        W19639   2.514   4.250   2.176  0.2150  0.2683 -0.0205
 2792W        W19640  17.224   6.533   2.187 -0.1693  0.2329 -0.0005
 2793W        W19641  11.997   5.058   0.794  0.0211 -0.2691 -0.1968
 2794W        W19642   4.588  17.733  12.418  0.0889  0.1389 -0.1126
 2795W        W19643   2.660  16.066   0.954 -0.3343 -0.1841  0.0915
 2796W        W19644  12.801  12.037  12.500  0.2700 -0.2066  0.0694
 2797W        W19645  14.574  12.361  14.690 -0.1568  0.0193 -0.0816
 2798W        W19646  10.130   8.247   1.737  0.0520 -0.0663  0.1464
 2799W        W19647  17.623   4.857   2.504 -0.1141 -0.0694  0.2239
 2800W        W19648   1.805   8.282   1.685  0.0145  0.1920 -0.2292
 2801W        W19649   9.793  15.646   2.810 -0.1414 -0.1633  0.0184
 2802W        W19650  13.060   6.458  14.586 -0.3131 -0.0185 -0.4822
 2803W        W19651  10.109   7.096   0.512 -0.0792  0.2249 -0.0017
 2804W        W19652   1.544   6.216  11.946 -0.1537 -0.0312  0.4340
 2805W        W19653  15.163  13.425   1.261 -0.2091 -0.0219  0.1370
 2806W        W19654   5.547  13.216  12.549 -0.0062 -0.2860  0.0536
 2807W        W19655  13.232   9.095  11.321 -0.3211 -0.2839 -0.1346
 2808W        W19656  13.297  11.285  11.386  0.1743 -0.1057  0.2095
 2809W        W19657  12.065  15.408   1.352  0.1548  0.0714  0.0083
 2810W        W19658   1.217   1.005   2.958 -0.2095 -0.0671  0.3375
 2811W        W19659  17.682   0.982  14.267 -0.0491 -0.1241 -0.0095
 2812W        W19660   8.794   3.854   3.088  0.0217 -0.0767  0.3565
 2813W        W19661   4.632  10.758   2.276  0.2006 -0.0683 -0.0377
 2814W        W19662  15.603  11.082  16.271  0.1281 -0.1158  0.0718
 2815W        W19663  10.515  14.023  13.500 -0.2716 -0.0890 -0.2994
 2816W        W19664   1.069  17.373   4.612 -0.2698 -0.0836  0.2490
 2817W        W19665  16.771   8.204  14.763  0.4115  0.2330  0.1213
 2818W        W19666  12.268   3.773  12.648 -0.0325  0.3057 -0.0304
 2819W        W19667   0.333  11.855  13.204  0.0130 -0.0681 -0.1331
 2820W        W19668   3.982  15.352  13.607  0.1402 -0.2197  0.1163
 2821W        W19669   3.620  15.198  13.289 -0.1105 -0.0143  0.1485
 2822W        W19670  10.819   9.264   4.037 -0.5066  0.0839  0.2536
 2823W        W19671   1.294  15.417   2.600 -0.1787 -0.3186 -0.0839
 2824W        W19672   4.155   8.331  15.736 -0.0691 -0.3464 -0.0710
 2825W        W19673  14.529   2.326   1.823  0.0044  0.0357  0.0683
 2826W        W19674   4.235  15.025   0.485 -0.1692  0.2111  0.0017
 2827W        W19675  13.887   5.258   0.985  0.0986  0.1888  0.0578
 2828W        W19676   1.333   3.765  14.730 -0.0953 -0.0176  0.0810
 2829W        W19677  17.129   3.656   4.702  0.0279 -0.1865  0.0133
 2830W        W19678   1.340  13.001  11.375  0.2985 -0.0383 -0.2514
 2831W        W19679  13.415   8.262  14.218 -0.3649  0.1002  0.1798
 2832W        W19680   5.527  13.291   0.148 -0.0674  0.2026 -0.1757
 2833W        W19681  12.574   8.865   0.534  0.0380 -0.2283 -0.5408
 2834W        W19682   5.598   8.132  13.743 -0.0866 -0.0092 -0.0218
 2835W        W19683   2.787   8.928  11.606  0.4227  0.0502 -0.1445
 2836W        W19684   0.990   4.285   4.335  0.1166  0.0395 -0.0425
 2837W        W19685  11.954   7.934   0.492 -0.1934 -0.0904  0.0362
 2838W        W19686   9.912   2.486   3.844 -0.3089  0.0454  0.0842
 2839W        W19687  14.717   5.921   1.116  0.1818  0.1324  0.0672
 2840W        W19688   9.848   6.476  15.491 -0.1534  0.2900  0.1891
 2841W        W19689   5.566   5.245  15.263  0.2163  0.0719 -0.0570
 2842W        W19690  17.496  11.517  12.816  0.2297  0.0456  0.0735
 2843W        W19691  13.061   7.089   2.987  0.0050 -0.3771 -0.1228
 2844W        W19692  14.133  13.489   1.024  0.2525 -0.1393  0.1894
 2845W        W19693  18.086  14.133  14.253  0.3638  0.2490  0.0215
 2846W        W19694   0.620  10.229  14.350  0.0031 -0.2069 -0.0067
 2847W        W19695   9.292  16.920   3.298 -0.1274 -0.2446 -0.0628
 2848W        W19696   8.817  14.277   3.449 -0.0579 -0.2165 -0.1394
 2849W        W19697   6.456  13.783   1.054 -0.0836 -0.2379 -0.0311
 2850W        W19698   5.686   2.781  14.614  0.0188  0.1929 -0.0175
 2851W        W19699  14.873  15.943  11.620  0.2525 -0.1768 -0.3437
 2852W        W19700  14.782  11.584  13.959 -0.1162  0.1678  0.0678
 2853W        W19701  15.587  17.606   0.405 -0.1042  0.6089  0.3146
 2854W        W19702   8.682  16.907   1.290  0.1360 -0.0309  0.3398
 2855W        W19703   0.400  15.137   1.721 -0.0272  0.3139 -0.3737
 2856W        W19704  10.879   0.569   3.308  0.1234 -0.2125 -0.2951
 2857W        W19705   3.241  17.637  13.262  0.2586  0.2063 -0.0978
 2858W        W19706  17.318   4.599  15.120 -0.0737 -0.0473 -0.3106
 2859W        W19707   9.116   8.952   0.732  0.0789  0.0822 -0.2668
 2860W        W19708   8.495  14.561   0.281 -0.1995  0.2969  0.2025
 2861W        W19709  15.958   0.923   3.249  0.1715  0.3134  0.0667
 2862W        W19710   9.057   2.333  12.631 -0.0529  0.0542  0.1070
 2863W        W19711   1.985   1.472  11.921  0.0709 -0.0062  0.0669
 2864W        W19712   2.519   7.222   1.133  0.2309  0.3418 -0.3070
 2865W        W19713   8.393  13.820  14.266 -0.2500 -0.0680 -0.1871
 2866W        W19714  14.012   6.320   0.919  0.0145 -0.2382  0.0403
 2867W        W19715   4.116   3.729  11.212 -0.2145 -0.0547  0.0223
 2868W        W19716   1.783   3.560  11.049 -0.1714 -0.0626 -0.0716
 2869W        W19717   5.877  14.537   1.102  0.0732  0.0395 -0.1286
 2870W        W19718   4.335   4.237  16.236  0.0966  0.4671 -0.0013
 2871W        W19719  13.951  13.806  11.668  0.0421 -0.0508  0.3079
 2872W        W19720  17.529  16.275  16.320 -0.0608  0.0112  0.1399
 2873W        W19721   9.349   2.866  14.426 -0.0763  0.1374 -0.1327
 2874W        W19722  16.590  15.783   2.305  0.0128 -0.2175 -0.3467
 2875W        W19723  17.079   0.453  13.110  0.1230 -0.2190  0.1588
 2876W        W19724  16.052  17.369  12.867 -0.0450 -0.0123  0.0307
 2877W        W19725  12.861   0.783  15.464 -0.2213 -0.1601  0.2552
 2878W        W19726   8.462   8.325  15.547  0.1253  0.0982  0.0474
 2879W        W19727   2.667   9.731   0.465  0.3239 -0.0959 -0.1534
 2880W        W19728   5.979  15.983   3.391 -0.3280  0.0816  0.2050
 2881W        W19729   3.273  17.137  13.092  0.2159 -0.0124 -0.1518
 2882W        W19730  14.864   3.771  15.401  0.0561 -0.1478 -0.1776
 2883W        W19731  15.420   2.382   0.285 -0.2070  0.1223  0.0942
 2884W        W19732   5.835  14.676   3.071 -0.1472  0.1480 -0.1398
 2885W        W19733  17.697  16.911  14.845  0.1657 -0.0125  0.1273
 2886W        W19734   8.521   0.842   4.362 -0.2095 -0.1354 -0.3446
 2887W        W19735   1.116  17.704   1.222 -0.2004  0.2595  0.0546
 2888W        W19736   5.889   3.195   0.411 -0.1206 -0.3131 -0.0119
 2889W        W19737   5.072   0.652   5.214  0.1778 -0.3594  0.0136
 2890W        W19738  15.992   5.024   3.736  0.0922 -0.0707  0.0604
 2891W        W19739  13.370  16.622   0.223  0.0543 -0.0720  0.2050
 2892W        W19740  12.083   6.569   0.188 -0.2970 -0.1657 -0.1778
 2893W        W19741   4.288  13.186  11.545 -0.0522  0.0955 -0.3006
 2894W        W19742   8.258   1.880  13.546  0.3432  0.0319 -0.0557
 2895W        W19743   4.281   6.202  11.498 -0.4170  0.2667 -0.0309
 2896W        W19744   0.902  16.429  14.775  0.3130 -0.0987 -0.0080
 2897W        W19745   6.503  12.193   3.104  0.2291 -0.1972 -0.0474
 2898W        W19746  10.658   1.842   3.937  0.1717  0.1637  0.1510
 2899W        W19747  13.259  10.777   0.081 -0.2591  0.1260  0.1071
 2900W        W19748  10.823   0.845  14.620 -0.2145  0.0108  0.1579
 2901W        W19749  14.913  11.215   3.484  0.1295  0.2048  0.4242
 2902W        W19750  15.033  14.625  11.111 -0.2599 -0.0460 -0.0343
 2903W        W19751  12.557   2.057   3.676  0.1218  0.0408 -0.3036
 2904W        W19752   2.572  15.617  14.589  0.0656  0.2728  0.2145
 2905W        W19753   6.443  17.791  14.492  0.2536  0.0902  0.0756
 2906W        W19754  17.567   0.799   2.526  0.0169  0.0636 -0.3836
 2907W        W19755  13.479   6.170  15.701  0.3326  0.1940  0.0602
 2908W        W19756  10.998   1.651   2.129  0.3134  0.2120 -0.0813
 2909W        W19757   0.039   5.745   4.986 -0.2165  0.0207 -0.1526
 2910W        W19758   8.878   1.691  11.060 -0.2318  0.2477  0.0408
 2911W        W19759  17.072   3.252  15.429 -0.1447 -0.1329  0.0635
 2912W        W19760   1.331   1.405  15.774 -0.0988 -0.1461 -0.0004
 2913W        W19761   2.364   3.105   4.902 -0.0402 -0.1557  0.2067
 2914W        W19762  17.526  11.484   2.881 -0.1093  0.3249  0.0849
 2915W        W19763   4.999  11.765   3.150  0.2151 -0.0756 -0.3446
 2916W        W19764   0.588   5.460   5.311 -0.3430  0.1013 -0.1184
 2917W        W19765   8.598   8.710  14.262 -0.2398 -0.1294  0.2769
 2918W        W19766   8.341  16.782  12.097 -0.0403 -0.2090  0.0788
 2919W        W19767  10.575  14.435   3.610 -0.1428  0.0651 -0.0270
 2920W        W19768  12.047  13.900   2.093  0.2785 -0.2190  0.1302
 2921W        W19769   7.668   9.784  14.224 -0.0450 -0.1828  0.0787
 2922W        W19770   7.146   3.439  13.841  0.1985  0.0728  0.3411
 2923W        W19771   4.152   5.410   4.248 -0.0533 -0.1139  0.2669
 2924W        W19772   4.935   5.062  15.676  0.0737  0.0450 -0.1446
 2925W        W19773   2.343   6.042  14.030  0.1878 -0.1785  0.1147
 2926W        W19774   4.715  10.349   3.199  0.1737 -0.0901 -0.2064
 2927W        W19775   9.690   9.168  11.400 -0.1421 -0.1456  0.0008
 2928W        W19776  15.462   4.650  11.603  0.0357  0.1643  0.4772
 2929W        W19777  14.207   0.148   1.312 -0.0826  0.0752  0.2921
 2930W        W19778  12.122   7.230   1.486 -0.1550 -0.0109 -0.0785
 2931W        W19779   9.464   2.592  12.452 -0.2043 -0.0939 -0.3011
 2932W        W19780  11.968   2.036   1.983 -0.0466  0.2420  0.0187
 2933W        W19781   5.246   5.061   0.741 -0.2588 -0.3574  0.0117
 2934W        W19782  16.924   1.361   3.021 -0.2600  0.1714 -0.0648
 2935W        W19783  11.728  18.072  12.566  0.0317 -0.0160 -0.0772
 2936W        W19784  17.411   6.451  16.312  0.1039  0.0356 -0.1655
 2937W        W19785  10.716   9.435  15.493 -0.4141  0.0768 -0.0706
 2938W        W19786   7.925   0.964  16.141  0.0481  0.0534  0.2185
 2939W        W19787   1.706   3.507  16.208  0.0617 -0.0082  0.2857
 2940W        W19788   2.795   5.957  16.213 -0.1894 -0.2373  0.0354
 2941W        W19789   3.130   2.520  13.311 -0.1221  0.3911  0.0691
 2942W        W19790   8.841   6.627   5.077 -0.0097 -0.2633  0.1403
 2943W        W19791  11.697   2.456  13.037 -0.0243 -0.1930 -0.1772
 2944W        W19792   7.334   8.631   3.935 -0.0779 -0.3831  0.2941
 2945W        W19793   7.384  11.094   4.186 -0.0591 -0.0447  0.2255
 2946W        W19794   5.389  15.302  16.215  0.1815 -0.0500  0.0557
 2947W        W19795   4.217   6.090   4.689  0.0623  0.2257 -0.4154
 2948W        W19796  12.505   4.372   4.787 -0.0160 -0.0238 -0.0962
 2949W        W19797   6.414  10.654  11.993  0.2353  0.0590  0.2012
 2950W        W19798   5.445  14.218  13.586  0.1306  0.2039  0.0212
 2951W        W19799   8.402   9.766   2.547  0.0510  0.1015  0.4570
 2952W        W19800   5.939  10.759  15.409 -0.0003 -0.0924  0.0671
 2953W        W19801   3.575   7.660  15.972  0.1321 -0.0422  0.0526
 2954W        W19802  12.609   6.053   3.764  0.0689 -0.0479  0.3541
 2955W        W19803  12.138  13.809  12.580  0.2441  0.0176  0.1955
 2956W        W19804  18.028  10.138   4.980  0.1610 -0.0204  0.2856
 2957W        W19805   4.580  17.833  13.005  0.0428  0.1269  0.0497
 2958W        W19806  17.354  17.081  15.796  0.1496 -0.1333 -0.0515
 2959W        W19807  14.282  12.791   1.918 -0.0087 -0.1043  0.0832
 2960W        W19808   6.311   9.258  15.409  0.0324 -0.1101  0.0199
 2961W        W19809   1.634   9.527  11.555 -0.0603  0.3021  0.2772
 2962W        W19810   8.751  12.009  13.908  0.0030 -0.2420 -0.2092
 2963W        W19811   3.732  12.588  13.504  0.1369 -0.0766  0.6536
 2964W        W19812   0.306   1.072   1.142  0.3625 -0.0117 -0.2048
 2965W        W19813  15.822   0.665   5.092  0.1718  0.2523 -0.0999
 2966W        W19814  13.041  15.564  12.912 -0.1092  0.0422  0.1746
 2967W        W19815   1.805  15.681   4.064  0.1896  0.2135 -0.1547
 2968W        W19816  11.145  15.670  13.711  0.0607 -0.0006  0.0080
 2969W        W19817   1.048  11.149   5.294 -0.1255 -0.1071  0.0532
 2970W        W19818   8.580  14.162   2.658 -0.1496 -0.0388 -0.1567
 2971W        W19819   1.334  13.610  11.957  0.2240 -0.0044 -0.0257
 2972W        W19820   3.364  17.181  15.132 -0.3214 -0.3348  0.0339
 2973W        W19821   1.259   5.984   3.496 -0.2222  0.0201 -0.0613
 2974W        W19822   4.067   4.986  10.423  0.0296 -0.3086  0.1210
 2975W        W19823  16.594  16.255   3.083  0.1100  0.0536 -0.2480
 2976W        W19824   5.091   4.942   4.161  0.2128  0.1269  0.1211
 2977W        W19825  11.769   3.690   3.634  0.0003 -0.1837  0.3082
 2978W        W19826  12.782   5.390  13.794 -0.1467  0.0201  0.2534
 2979W        W19827   7.256   4.415   1.481  0.1719  0.2197  0.1436
 2980W        W19828   8.538  17.316   5.331  0.1125  0.2032 -0.0016
 2981W        W19829   4.915   9.347   3.304  0.1512  0.0639  0.2181
 2982W        W19830  15.003   6.552   2.239  0.0081 -0.0872 -0.3652
 2983W        W19831  10.647  17.464  14.266 -0.3738  0.0998 -0.0323
 2984W        W19832   9.273   9.939  11.094 -0.1259  0.0776 -0.2874
 2985W        W19833  11.342   7.207  16.100 -0.0214  0.1336  0.0684
 2986W        W19834   8.415  14.469  10.719  0.2891  0.4850 -0.0007
 2987W        W19835   1.403   7.335   0.478 -0.2593  0.0770  0.4723
 2988W        W19836   9.093   2.738   1.191 -0.0589  0.0696  0.1894
 2989W        W19837  16.675  16.742   3.230 -0.0615 -0.1087 -0.1758
 2990W        W19838   0.126  16.696  11.125  0.1625 -0.0413 -0.1481
 2991W        W19839   9.095  14.318   2.546 -0.0570 -0.1398 -0.0063
 2992W        W19840   6.585   7.840  12.337 -0.1643 -0.2533 -0.3395
 2993W        W19841  13.610  17.808   2.543  0.4454  0.1108  0.2399
 2994W        W19842   8.660   1.135  13.970 -0.1920  0.0425 -0.0230
 2995W        W19843  14.901  15.692   1.740 -0.5624  0.3328  0.0549
 2996W        W19844  12.420  17.346   5.198  0.1446  0.1837 -0.0382
 2997W        W19845   3.068   4.723  12.844 -0.3706  0.2269 -0.0797
 2998W        W19846   9.676  15.338  15.294  0.2187 -0.0611  0.0855
 2999W        W19847  14.001   0.250  11.684 -0.1765  0.0097  0.1402
 3000W        W19848   9.999   5.220  15.705 -0.0422 -0.0566 -0.4766
 3001W        W19849   3.973   7.360  16.231  0.2538 -0.0511  0.2727
 3002W        W19850  13.718  16.311  13.159  0.3326  0.1626 -0.1683
 3003W        W19851  12.702   5.056  13.443  0.1397  0.0163  0.1166
 3004W        W19852   3.506  16.606   4.282  0.3020  0.0252  0.1127
 3005W        W19853   9.860  11.146  13.217  0.0889  0.1351  0.1889
 3006W        W19854  16.158  15.226  12.961  0.3766 -0.1122  0.0952
 3007W        W19855   4.714  14.652  13.891 -0.0628 -0.1315  0.1381
 3008W        W19856  16.151   5.896  11.471 -0.2786 -0.1213 -0.5857
 3009W        W19857  12.525  15.277  10.514 -0.2727  0.0076  0.1534
 3010W        W19858   1.457  11.243   1.196 -0.0332  0.0154  0.4109
 3011W        W19859   9.563  12.224  14.827 -0.1105 -0.0702  0.0007
 3012W        W19860   9.744  17.109   0.453 -0.1711  0.1053  0.0706
 3013W        W19861  12.476   8.817  12.376  0.3083  0.1358 -0.1046
 3014W        W19862  10.582  16.942  12.904 -0.0133  0.2104  0.5387
 3015W        W19863  16.345   1.092   0.531  0.1016  0.0777 -0.2989
 3016W        W19864   3.934   0.567   1.143  0.0028 -0.1061  0.3078
 3017W        W19865  16.228   0.536   1.153  0.3356 -0.0909 -0.2434
 3018W        W19866  16.649  16.196  13.616  0.3886  0.1027  0.3645
 3019W        W19867  11.095   7.966  14.058  0.1575  0.0253 -0.3476
 3020W        W19868  12.481   3.870   4.831  0.0470 -0.0708  0.2004
 3021W        W19869   5.215  17.988  14.679 -0.1984 -0.0929 -0.0070
 3022W        W19870   2.943  12.301   4.701 -0.1889 -0.2437  0.1369
 3023W        W19871   1.827  12.182  13.850  0.1520 -0.1606  0.1028
 3024W        W19872  12.627   9.611   4.883 -0.3636  0.2223 -0.1106
 3025W        W19873  15.222  15.700   4.235 -0.1405  0.0855 -0.0584
 3026W        W19874   1.719  11.871   2.842 -0.0356  0.1346 -0.2526
 3027W        W19875  14.472   0.971  14.086 -0.2000  0.0373 -0.2082
 3028W        W19876   5.888  12.642  12.063 -0.2261 -0.1303  0.0723
 3029W        W19877   4.969   9.819  15.235 -0.0934  0.2271  0.1758
 3030W        W19878   3.668   5.750  13.974  0.0422  0.0519  0.0186
 3031W        W19879   8.315  15.979  11.721  0.0575 -0.1204  0.1269
 3032W        W19880   6.267   4.384  13.629 -0.2368  0.4032  0.2086
 3033W        W19881   4.545   5.515  15.573 -0.2645 -0.2288 -0.1188
 3034W        W19882   9.449   7.899   1.250 -0.0980  0.2425  0.2664
 3035W        W19883   6.083   5.387  11.138 -0.0768 -0.2284  0.1063
 3036W        W19884   0.880   4.889  11.810  0.1317  0.1429 -0.1514
 3037W        W19885  13.295   6.984  11.773 -0.0574  0.0821 -0.0872
 3038W        W19886  16.258  17.808   1.081  0.1791  0.0254 -0.2099
 3039W        W19887  14.350   1.540  15.158 -0.1615 -0.2818  0.0124
 3040W        W19888   8.725  10.742   3.626 -0.3850 -0.1273  0.3810
 3041W        W19889   7.481   7.381   1.560  0.2355 -0.0691  0.0366
 3042W        W19890   4.520  13.039   2.871 -0.2622 -0.2893  0.5745
 3043W        W19891   2.956   0.910   5.172  0.2038  0.3017 -0.0888
 3044W        W19892  17.598   4.732   1.875 -0.1767 -0.0575 -0.4955
 3045W        W19893  15.343  12.680   0.881  0.1893 -0.1748 -0.1984
 3046W        W19894   5.315  12.573  12.008  0.3473  0.0230 -0.0336
 3047W        W19895   1.893   9.430   0.375  0.0490  0.0313 -0.0971
 3048W        W19896   4.170   5.435  15.988  0.1685 -0.0828 -0.0283
 3049W        W19897  15.794  16.046   1.876  0.0711  0.2500  0.1637
 3050W        W19898  13.237   2.867  14.240  0.0765 -0.1111 -0.2365
 3051W        W19899   3.240  14.828  13.014 -0.2744 -0.3482 -0.0595
 3052W        W19900   8.240  13.526   4.038 -0.1558  0.2202 -0.0595
 3053W        W19901  17.796  12.135  14.881 -0.1692  0.0398 -0.1664
 3054W        W19902   8.474   5.668  13.373 -0.2100  0.3722 -0.1537
 3055W        W19903   3.075   3.449   1.744 -0.0616 -0.6255 -0.1093
 3056W        W19904   6.712   5.494   3.989  0.0400 -0.2669 -0.1806
 3057W        W19905   4.092   4.427  10.478  0.0998  0.0499 -0.3433
 3058W        W19906   4.739   1.090  15.687  0.1644  0.0163  0.2481
 3059W        W19907   2.835  11.402  10.546  0.1420 -0.2087  0.0958
 3060W        W19908   9.334  10.820  16.053 -0.0144  0.3399  0.3660
 3061W        W19909   0.193   2.810  11.415 -0.1755 -0.1462  0.0580
 3062W        W19910  14.520  12.692   4.401  0.1788 -0.1728  0.0126
 3063W        W19911   3.377   4.667   3.384  0.0178  0.2475  0.0292
 3064W        W19912  15.482  11.813   2.968 -0.0577  0.0258  0.1229
 3065W        W19913   0.232  10.475   0.319 -0.3781  0.0357 -0.2048
 3066W        W19914  10.987  16.341   0.413 -0.0417 -0.1240  0.0175
 3067W        W19915  17.695   7.377  16.206 -0.1537 -0.2684 -0.2418
 3068W        W19916  14.286   8.577  14.546  0.1152  0.2614 -0.2696
 3069W        W19917   1.073   5.267   0.473 -0.3336 -0.0461  0.2865
 3070W        W19918  13.995   4.293   4.168  0.0298 -0.2407  0.1034
 3071W        W19919  12.555  12.267  10.661 -0.1578 -0.0382  0.0307
 3072W        W19920  16.398  11.808  11.334 -0.0705  0.1045 -0.0530
 3073W        W19921  11.295   7.908  12.728 -0.2805 -0.0937  0.0270
 3074W        W19922   6.366  11.872  10.930  0.0124  0.4289 -0.2260
 3075W        W19923   5.987  13.558   4.813  0.2014  0.1050 -0.0177
 3076W        W19924  11.057   4.522   1.169 -0.2571 -0.0312  0.1728
 3077W        W19925  12.882  10.694  11.930  0.2263 -0.0628 -0.1186
 3078W        W19926   1.256   3.297   1.114 -0.0509  0.2158 -0.0208
 3079W        W19927   1.147  13.626  13.395 -0.0665 -0.1681  0.0330
 3080W        W19928   0.838   5.719   3.289  0.0062  0.0630 -0.0078
 3081W        W19929   4.180  13.369  11.038 -0.0539 -0.1783  0.1106
 3082W        W19930   8.902  16.841  13.387  0.1545 -0.0098  0.0398
 3083W        W19931  11.096  17.076  15.205  0.0092  0.0138  0.1215
 3084W        W19932   5.023   5.879  15.386 -0.1704  0.0414 -0.2475
 3085W        W19933   4.717  10.427  14.010 -0.0053 -0.1187 -0.0609
 3086W        W19934   3.421   2.700   0.439  0.0567 -0.0159  0.3845
 3087W        W19935  12.397   1.270  13.601  0.1876 -0.4976 -0.1289
 3088W        W19936   6.081  16.932   2.200  0.0363 -0.0304  0.1087
 3089W        W19937  13.037   7.684  15.524 -0.0389  0.1502 -0.0331
 3090W        W19938   8.584   3.387   1.655 -0.1617  0.4712  0.1266
 3091W        W19939   7.899   1.290   3.063  0.1236  0.1876 -0.0462
 3092W        W19940  12.966  13.064   2.743  0.2164 -0.1361 -0.2210
 3093W        W19941  12.756   9.792   4.448 -0.3356 -0.3614  0.1803
 3094W        W19942  10.601  17.702  12.412  0.0399 -0.1568  0.1732
 3095W        W19943   0.534   1.658  13.907 -0.1315  0.1345  0.1833
 3096W        W19944   4.134   2.954   4.848 -0.1249  0.0843  0.1764
 3097W        W19945  17.468   8.732   4.979  0.2598  0.0143  0.0005
 3098W        W19946  13.410   0.808   4.722  0.0377 -0.0596 -0.0307
 3099W        W19947  13.103  15.365   2.839  0.1499 -0.1345  0.0465
 3100W        W19948   7.410  12.528   3.450 -0.1325 -0.1111 -0.0461
 3101W        W19949   3.045   8.061   4.685 -0.2403  0.1829  0.1605
 3102W        W19950  13.847   0.830  10.971 -0.1927 -0.0178  0.1033
 3103W        W19951   3.495   0.447   3.453 -0.0014  0.0091  0.1158
 3104W        W19952  10.024   8.070  15.782  0.2326 -0.2508 -0.0029
 3105W        W19953  15.586   2.288   1.933  0.0630  0.0576  0.2133
 3106W        W19954   2.958  12.543  15.658  0.0400 -0.1209 -0.2170
 3107W        W19955  12.935  10.519   2.928  0.0930 -0.0434  0.0612
 3108W        W19956  10.331   5.254  12.066 -0.1112 -0.0243 -0.0755
 3109W        W19957   4.353   8.832   3.444 -0.1979  0.1838  0.1156
 3110W        W19958  13.133  18.020   2.636 -0.0867  0.1810 -0.2499
 3111W        W19959  18.027  10.375   1.303  0.1383  0.1489 -0.3211
 3112W        W19960   9.496  14.906   1.350 -0.3016 -0.2398 -0.0880
 3113W        W19961   1.193   8.009  11.818 -0.2350 -0.0092 -0.5608
 3114W        W19962   4.808  14.511   0.261  0.0496  0.0366  0.0513
 3115W        W19963   5.799   4.866   1.827  0.1197 -0.1186  0.4386
 3116W        W19964   5.540  14.548   0.267  0.0806  0.0133 -0.2600
 3117W        W19965   8.316  17.682  14.566  0.1049  0.0357  0.1522
 3118W        W19966   1.534   5.612  11.894 -0.2185 -0.1865  0.0035
 3119W        W19967   4.835  16.308  15.927 -0.0436  0.0297  0.0483
 3120W        W19968  11.229  17.943  15.275 -0.1800  0.2619 -0.1187
 3121W        W19969   4.690   0.380  12.168 -0.1008 -0.1996  0.0873
 3122W        W19970  11.943  17.570  13.749 -0.1262  0.1772  0.3619
 3123W        W19971   8.560  18.012   3.659  0.0345 -0.0474  0.0692
 3124W        W19972  13.486   0.250  11.483  0.0371  0.0526  0.0409
 3125W        W19973  13.267   2.210  14.050  0.0632  0.1998  0.0802
 3126W        W19974   3.411  11.530   1.832 -0.0704  0.2394 -0.1083
 3127W        W19975   3.055  10.182  14.894  0.0631 -0.0411 -0.0062
 3128W        W19976   1.752   9.411   5.319  0.1076  0.2679 -0.2352
 3129W        W19977  13.365  10.873   1.642 -0.1398 -0.1705  0.0998
 3130W        W19978   9.430  15.430   1.193  0.1649 -0.5223  0.2186
 3131W        W19979   1.277  10.297   5.119 -0.0278  0.1776  0.1872
 3132W        W19980   3.234  17.356   5.119  0.1685 -0.1597  0.0217
 3133W        W19981  13.652   6.677   0.414  0.0455 -0.2698  0.2948
 3134W        W19982   8.121  12.907   3.019  0.0851 -0.0740  0.0871
 3135W        W19983   1.043   8.677   3.169 -0.3122  0.1438  0.1194
 3136W        W19984  12.227   8.220   4.585 -0.2194 -0.1914 -0.3163
 3137W        W19985   9.132  12.729  13.084  0.0987 -0.0548 -0.1301
 3138W        W19986  17.996  12.614  14.145 -0.0673  0.1291 -0.2006
 3139W        W19987  16.700   4.173  11.082  0.4663  0.0847 -0.0591
 3140W        W19988  17.289  12.009  16.163 -0.1857 -0.2506 -0.3868
 3141W        W19989   6.496   5.102   4.238 -0.0956  0.3243 -0.0589
 3142W        W19990  13.006   6.202   6.124  0.1290  0.0204  0.1485
 3143W        W19991   5.059   4.567   0.269  0.3858 -0.1996 -0.1029
 3144W        W19992  13.075   8.505   3.350 -0.1064  0.1053 -0.1349
 3145W        W19993   8.010   4.568   0.590  0.0767 -0.2465  0.0298
 3146W        W19994  14.522  15.920  13.918  0.1151  0.0078  0.0316
 3147W        W19995  10.322   4.981   3.219  0.0514 -0.1039 -0.1579
 3148W        W19996   2.718  14.489   4.442 -0.0499  0.2794  0.3997
 3149W        W19997   3.898  14.150  15.211 -0.0956 -0.3269 -0.1712
 3150W        W19998   7.579   4.906  10.328  0.2348  0.1313  0.1477
 3151W        W19999   6.899  17.590  11.965 -0.0348  0.0858  0.0274
 3152W        W20000  11.818   5.958  14.490  0.0535  0.2311 -0.0573
 3153W        W20001   0.245   9.273  11.757  0.0143 -0.0246  0.1073
 3154W        W20002  11.593  12.184  15.563  0.0359  0.0554 -0.0086
 3155W        W20003   3.837  12.863  12.262  0.0233 -0.2478  0.0472
 3156W        W20004  17.694  12.772   0.116 -0.0803  0.0935  0.1225
 3157W        W20005  14.896  15.929   3.350  0.2575  0.2989 -0.2466
 3158W        W20006   0.661  11.290   2.236  0.0092 -0.5050  0.2845
 3159W        W20007   8.460   2.181  12.225  0.0572  0.1314  0.0400
 3160W        W20008   9.592  11.144  15.027 -0.0645 -0.4207  0.0189
 3161W        W20009   5.582   8.276  10.861  0.1058  0.1595  0.0627
 3162W        W20010   8.726   3.145   1.129  0.0624 -0.0547  0.0307
 3163W        W20011   6.334  12.045  13.997  0.2353 -0.2486  0.0116
 3164W        W20012   9.885  12.234   1.309  0.4138  0.1063  0.1542
 3165W        W20013   7.865   8.049  12.513 -0.1066  0.0448  0.0215
 3166W        W20014  15.307  12.649  14.269 -0.0829 -0.1715 -0.0121
 3167W        W20015   9.554  15.696  14.328 -0.0582  0.1547 -0.1884
 3168W        W20016   5.567   9.812   3.213  0.2831  0.0051  0.0715
 3169W        W20017   6.620   2.121  12.498 -0.3065 -0.4409  0.0956
 3170W        W20018  17.424  11.881  12.480  0.1734 -0.0656 -0.1590
 3171W        W20019  13.316  15.734  13.715  0.0175  0.0010 -0.0013
 3172W        W20020  12.019   5.652  15.334  0.0256  0.0360  0.0876
 3173W        W20021  10.408   9.132   1.604  0.0325  0.1934  0.3395
 3174W        W20022   7.879   3.931   3.440  0.1082  0.1974 -0.2542
 3175W        W20023   5.807   7.313  11.510 -0.1103  0.0791  0.1703
 3176W        W20024   1.263  17.018  15.532  0.0961 -0.0013  0.3847
 3177W        W20025  13.230  12.097   3.160  0.0504 -0.1901 -0.2025
 3178W        W20026  14.497  13.109   0.836 -0.3155  0.2912  0.2817
 3179W        W20027   0.691  13.878  14.388  0.2346  0.1901 -0.0914
 3180W        W20028  12.359   9.646   1.021  0.0809 -0.4013  0.0503
 3181W        W20029  16.222  11.290  14.905  0.0581 -0.2667 -0.0973
 3182W        W20030  12.427   7.106   4.734  0.0591  0.2287 -0.1606
 3183W        W20031  12.530   5.155  14.165 -0.0293 -0.0217  0.1784
 3184W        W20032  11.511   8.321  16.151  0.1416 -0.0794  0.0890
 3185W        W20033  12.197  11.034   3.277 -0.2472  0.1681  0.2194
 3186W        W20034   9.842   0.113  13.336  0.1968 -0.1045  0.0721
 3187W        W20035   0.591   3.508   3.205 -0.0055  0.1361 -0.0553
 3188W        W20036  18.000   8.484   4.415  0.2727  0.0739 -0.1865
 3189W        W20037   7.750  14.502  14.284  0.3703  0.0079 -0.0975
 3190W        W20038  10.554   5.098  14.155  0.1795  0.4226  0.0045
 3191W        W20039   8.487   0.734  12.226  0.1990 -0.0380 -0.2267
 3192W        W20040  15.888  12.684   0.942 -0.1759 -0.3486  0.0743
 3193W        W20041   4.921   7.449  11.050 -0.2538  0.0921 -0.2363
 3194W        W20042  11.533   1.453   3.881 -0.0680  0.0554 -0.1267
 3195W        W20043   4.893   2.558   2.218 -0.0695  0.1259  0.0216
 3196W        W20044  17.391   8.488   1.573 -0.2833  0.2450 -0.2076
 3197W        W20045  16.571  13.525   0.794 -0.1015 -0.1371  0.1664
 3198W        W20046   5.748  14.140  16.309 -0.1955 -0.2701  0.1755
 3199W        W20047  12.264   0.458   0.818  0.2955 -0.1214  0.0382
 3200W        W20048   9.981  11.966  12.696 -0.1086  0.0982  0.0576
 3201W        W20049  13.597   0.966   1.110  0.2311  0.3318  0.1400
 3202W        W20050  12.286  12.248   4.854 -0.0404 -0.2683  0.0234
 3203W        W20051   7.484  11.733  10.962  0.1578  0.2526  0.0006
 3204W        W20052  16.352   8.216  10.971  0.2259  0.1948  0.0530
 3205W        W20053   7.000  11.058  11.104 -0.0780  0.3708  0.1190
 3206W        W20054   8.861   8.348  10.805  0.1344 -0.3662  0.0618
 3207W        W20055   9.580   6.592  13.377 -0.1377  0.1243  0.0977
 3208W        W20056  16.843  15.525  14.055  0.0915  0.1698 -0.0034
 3209W        W20057   4.063   8.735  12.221 -0.2779  0.1667 -0.1120
 3210W        W20058   1.045  13.382   1.968 -0.2379  0.1397  0.0665
 3211W        W20059  17.221   8.739   3.683  0.0032  0.0852 -0.0253
 3212W        W20060  10.361  13.286  15.326  0.0661 -0.0123  0.2133
 3213W        W20061  12.064   7.408  12.157 -0.1976 -0.1265  0.0914
 3214W        W20062   6.544  10.131  16.028  0.0304 -0.2672 -0.1148
 3215W        W20063   2.476   2.600  11.672  0.0921  0.0944 -0.1696
 3216W        W20064  10.112  15.453  13.697 -0.1713  0.2422 -0.0432
 3217W        W20065   1.442   8.311   4.323 -0.1107  0.3359  0.3163
 3218W        W20066  16.038   7.339   4.226  0.1763  0.0196 -0.1246
 3219W        W20067   8.148   7.578   4.765  0.1418  0.2751  0.0747
 3220W        W20068   3.981  11.703  12.884 -0.0112  0.0015  0.1970
 3221W        W20069  11.037  11.706  14.416 -0.4617 -0.3203 -0.0726
 3222W        W20070   2.288  15.582   1.910 -0.0767  0.0515 -0.2684
 3223W        W20071  15.682   6.571  11.903 -0.5199 -0.1966 -0.4637
 3224W        W20072   3.348   6.489   3.200 -0.0357  0.1783 -0.0863
 3225W        W20073   6.512  12.634  14.183 -0.1162 -0.1567  0.2027
 3226W        W20074  11.727   0.361   3.261 -0.0127 -0.0906 -0.5744
 3227W        W20075  12.095  11.023   5.268 -0.0203  0.2608 -0.0142
 3228W        W20076  14.182  17.196   4.740  0.1207  0.1804 -0.3209
 3229W        W20077  11.352  10.401  11.398 -0.0705 -0.2692 -0.0269
 3230W        W20078  11.256   7.344   4.501 -0.0721 -0.0375  0.2395
 3231W        W20079  13.310  13.823  16.234  0.1994  0.2925 -0.0913
 3232W        W20080  13.880  13.297  13.782 -0.0904 -0.0033  0.1156
 3233W        W20081   2.066   1.674  13.090 -0.3089  0.0724 -0.2352
 3234W        W20082   7.285  15.360   0.326  0.0681  0.2740  0.4963
 3235W        W20083  12.114  14.435   2.051 -0.1346 -0.1470  0.0635
 3236W        W20084   8.191  12.463   1.733  0.0088 -0.0481 -0.1525
 3237W        W20085  15.999   4.570  11.909  0.3999  0.3454 -0.0511
 3238W        W20086   8.901  11.895  16.214  0.1397 -0.2311  0.3374
 3239W        W20087   2.101  16.767  15.250 -0.0994 -0.3560 -0.3452
 3240W        W20088   3.178   2.789  12.389  0.0476  0.0868  0.1790
 3241W        W20089   3.969   8.477  14.159  0.0543  0.2652  0.0066
 3242W        W20090  10.021   0.301   2.710 -0.0404 -0.0562  0.3227
 3243W        W20091  12.424   3.368   4.843  0.0508  0.3646  0.2930
 3244W        W20092  16.472  15.717   5.493  0.0342  0.1578 -0.2953
 3245W        W20093   2.436  15.428   0.032  0.0709 -0.1354 -0.0122
 3246W        W20094  11.689   2.032  16.007  0.1026 -0.1775  0.3165
 3247W        W20095   7.804   6.365   0.852  0.1414  0.0376 -0.0214
 3248W        W20096   8.943   6.576  14.072 -0.0074  0.0390  0.2524
 3249W        W20097   2.342   9.475  12.087 -0.3640  0.2770 -0.2451
 3250W        W20098   0.612   5.426   3.656  0.0695  0.1577  0.1670
 3251W        W20099  17.547   6.926  15.588  0.3450  0.0651 -0.0682
 3252W        W20100   8.770  12.487  14.144 -0.1401 -0.4334  0.0123
 3253W        W20101  15.698  18.058   0.595  0.3575 -0.1042  0.1084
 3254W        W20102   9.546   3.906   2.558  0.2321  0.0766 -0.2581
 3255W        W20103   2.284   8.229   4.261  0.1400 -0.1187  0.0241
 3256W        W20104   8.919  12.700  15.403 -0.2207  0.0640 -0.0896
 3257W        W20105   6.043   1.759  16.196  0.4446 -0.0736  0.0450
 3258W        W20106   7.999   3.595  13.101  0.2056  0.2536 -0.0708
 3259W        W20107  12.888  13.006   3.646  0.2430  0.0871  0.1123
 3260W        W20108   5.534   2.900   2.085 -0.0501  0.0331 -0.3101
 3261W        W20109  11.017  10.378  13.330 -0.3164 -0.1532 -0.0066
 3262W        W20110  17.464  13.538  15.852  0.1666 -0.3022 -0.1326
 3263W        W20111  12.185  10.145   1.177 -0.0626  0.2100 -0.0146
 3264W        W20112   4.314   6.040  13.348  0.0308  0.1590  0.0921
 3265W        W20113   6.571  13.596   1.634  0.1656  0.1727 -0.1320
 3266W        W20114   8.242   2.159   2.790  0.1906  0.3546 -0.1280
 3267W        W20115  15.946   6.687   1.943 -0.1762 -0.2457 -0.4234
 3268W        W20116  10.176   2.067   0.701  0.0971 -0.3002 -0.5052
 3269W        W20117   2.232   1.739  13.954  0.1694 -0.0978 -0.3077
 3270W        W20118   6.270  15.511  10.565 -0.2258  0.1548 -0.1414
 3271W        W20119   6.245  10.436   5.777 -0.1619 -0.1762  0.0154
 3272W        W20120  11.772  15.711   0.408 -0.3484 -0.0792  0.0528
 3273W        W20121  16.741  17.811   2.821 -0.0158 -0.1920 -0.0247
 3274W        W20122  16.713  15.172  14.476 -0.1667  0.0930  0.0629
 3275W        W20123   3.000  10.866   0.381 -0.0395 -0.0081 -0.2035
 3276W        W20124   8.336  11.475  11.300 -0.0796 -0.2447  0.0314
 3277W        W20125   2.336  10.961  16.028 -0.2459 -0.1406  0.0476
 3278W        W20126  10.204   2.016   1.248  0.2686 -0.2251  0.4850
 3279W        W20127   0.477   1.644  12.829  0.0291  0.1995  0.1724
 3280W        W20128  16.695   3.741   0.969  0.1364 -0.0237 -0.1013
 3281W        W20129  11.546  15.389  13.926 -0.3415  0.0707  0.4850
 3282W        W20130  15.891   5.747   0.345  0.1094 -0.0685  0.3708
 3283W        W20131   2.118   0.047  11.849 -0.2217 -0.0625 -0.0014
 3284W        W20132  12.611   5.606  11.978 -0.0860  0.1480 -0.4233
 3285W        W20133  11.415  10.114  13.082 -0.1825  0.1907  0.1620
 3286W        W20134   3.275   2.142  15.471 -0.1413  0.1697 -0.4633
 3287W        W20135  14.353  10.681  14.201 -0.2195 -0.0288  0.0682
 3288W        W20136  10.859  13.686  12.465 -0.0169  0.2985  0.0886
 3289W        W20137  16.734   9.678  11.593  0.1049  0.1514 -0.1031
 3290W        W20138  17.359   1.638   2.360  0.0355  0.2539 -0.1113
 3291W        W20139   4.053   1.568   2.401 -0.1066 -0.0662 -0.1585
 3292W        W20140   6.957  14.224  16.089  0.3351 -0.0366  0.2710
 3293W        W20141  15.465   7.431  10.736 -0.0305  0.1846 -0.1263
 3294W        W20142  13.684   0.482  13.306 -0.5549  0.0529 -0.1146
 3295W        W20143  10.957   6.326  16.133 -0.0984 -0.1562 -0.3227
 3296W        W20144   9.982   8.093   1.264 -0.0583 -0.0898 -0.0461
 3297W        W20145  17.168   9.814  14.425 -0.0791 -0.3107 -0.1340
 3298W        W20146  16.170   7.512   0.962 -0.2766  0.0205  0.0636
 3299W        W20147  12.633  12.976   1.448  0.1198 -0.2505 -0.0634
 3300W        W20148   4.595  14.836   3.959 -0.2354  0.0861 -0.2140
 3301W        W20149   7.446   4.425   4.930  0.0707 -0.3077  0.0700
 3302W        W20150  17.022   6.412   4.715 -0.0712  0.1830  0.0099
 3303W        W20151  13.489   3.352   9.973  0.1611 -0.1461  0.3098
 3304W        W20152   8.593   3.890  15.670  0.1711 -0.2874 -0.0211
 3305W        W20153  13.873   0.729   3.211  0.2354 -0.1310 -0.1715
 3306W        W20154   0.121   3.322  14.503  0.0051 -0.1345 -0.0402
 3307W        W20155  13.020   8.968   1.978  0.0462 -0.0628  0.0346
 3308W        W20156  14.110  14.060  12.816 -0.1901 -0.2192 -0.0690
 3309W        W20157  17.500   3.045   1.516  0.0139  0.3089 -0.2856
 3310W        W20158   1.292  14.368   0.386  0.0556 -0.1009  0.3578
 3311W        W20159  13.049  17.801  12.565  0.0287 -0.1193  0.2390
 3312W        W20160  12.096   8.150   2.632 -0.0680 -0.2437 -0.0755
 3313W        W20161   0.852  10.818  13.426  0.0178 -0.1482  0.0858
 3314W        W20162  15.177   0.397  15.192 -0.1548  0.0420  0.1445
 3315W        W20163  10.188   0.804  11.598 -0.0038  0.0381 -0.0215
 3316W        W20164   4.875  16.945   4.251 -0.2616  0.2390 -0.1012
 3317W        W20165  14.970  10.825   1.559  0.1399 -0.0993 -0.2071
 3318W        W20166   5.082   2.188   3.706  0.2739  0.2497 -0.3125
 3319W        W20167   1.103  10.607   6.372  0.1045 -0.2090 -0.2854
 3320W        W20168   3.041  14.303  15.709 -0.2484  0.2023  0.0730
 3321W        W20169   7.993  13.571  10.336 -0.0066  0.4618 -0.1007
 3322W        W20170   7.244  14.338  15.545  0.2013 -0.0829 -0.2472
 3323W        W20171   7.061   0.199  13.997  0.0894 -0.4360  0.1740
 3324W        W20172   1.876   4.221   3.285  0.0063 -0.0620  0.1120
 3325W        W20173   0.162   7.609   0.898 -0.0281  0.0584 -0.1545
 3326W        W20174   9.401   1.011  12.305 -0.0591 -0.0889 -0.2718
 3327W        W20175  12.070  11.237   0.314  0.3835 -0.1526  0.2764
 3328W        W20176   0.528   8.387   2.526  0.1520 -0.0137 -0.1209
 3329W        W20177  15.239   6.311   1.316  0.0596 -0.0773 -0.0039
 3330W        W20178  13.556  13.503  11.659  0.2968  0.3328 -0.4513
 3331W        W20179  10.700   5.696  11.260 -0.0276  0.3328  0.5318
 3332W        W20180   4.443  15.280  15.648 -0.0929 -0.1440  0.2108
 3333W        W20181   3.832  13.472   2.184 -0.2386 -0.0913 -0.4683
 3334W        W20182   7.556   8.360  10.784 -0.0831 -0.0304 -0.1599
 3335W        W20183   1.797  14.619   2.690  0.2527  0.0474 -0.1956
 3336W        W20184   6.129   7.249   3.792 -0.2613 -0.0428 -0.0348
 3337W        W20185  16.866  17.279   0.563 -0.1042 -0.2159  0.1295
 3338W        W20186   1.735  10.848  11.747  0.0912 -0.2508 -0.0274
 3339W        W20187  10.663  12.566   5.319 -0.0300  0.0329  0.0089
 3340W        W20188  15.482  14.059   0.015  0.0596 -0.1852 -0.4523
 3341W        W20189   8.432   7.990  15.168  0.1330 -0.1928  0.0947
 3342W        W20190  14.902  13.643   1.718 -0.2075 -0.4334 -0.1080
 3343W        W20191   2.594   7.853   3.170 -0.1673 -0.0269  0.3141
 3344W        W20192   9.740  11.772   0.842 -0.1976 -0.1386 -0.1394
 3345W        W20193   9.467  12.473   2.880 -0.2399  0.2960  0.0984
 3346W        W20194   4.929  13.923  16.141 -0.2508  0.1312 -0.0177
 3347W        W20195  17.639   8.671  11.994  0.0654 -0.2292  0.1958
 3348W        W20196  10.203   9.472  11.395 -0.0800 -0.1694  0.2032
 3349W        W20197  16.752   2.199   1.755 -0.1438 -0.0922  0.1581
 3350W        W20198   9.283   1.822  13.536 -0.0487  0.2391  0.0916
 3351W        W20199   7.322   9.251  13.508 -0.0673 -0.1934  0.2852
 3352W        W20200   4.379   1.428   1.615 -0.0380 -0.1819  0.2982
 3353W        W20201   2.746   9.157   1.269  0.1412  0.1268 -0.1402
 3354W        W20202  14.358   9.116   2.953  0.0515 -0.1078 -0.4438
 3355W        W20203   2.495   5.233   2.410 -0.1609  0.1716  0.0022
 3356W        W20204  15.274   9.632  15.661  0.1325  0.0163  0.2444
 3357W        W20205  10.256   4.045  13.569 -0.1691  0.2322 -0.0555
 3358W        W20206  14.366   3.890   5.454 -0.0180  0.1410 -0.2238
 3359W        W20207  17.312  14.292  14.078 -0.2957  0.1286  0.0632
 3360W        W20208   9.219   7.179   0.499 -0.2817 -0.1075  0.4561
 3361W        W20209   7.087   3.801   5.763  0.0218 -0.0001  0.1310
 3362W        W20210   3.206   9.421  15.029  0.0314  0.2140  0.1483
 3363W        W20211  14.436   3.158  15.803  0.4316  0.1359  0.1544
 3364W        W20212   4.832  15.167  12.366 -0.1287 -0.0086 -0.2014
 3365W        W20213   0.508  14.285  14.121  0.0271 -0.0006  0.2168
 3366W        W20214   7.627  17.506  15.737  0.0524 -0.1903  0.4631
 3367W        W20215   2.450   5.330   4.024  0.0841 -0.0547 -0.1259
 3368W        W20216  15.662   1.572  14.291  0.2291  0.0677  0.2135
 3369W        W20217  11.014  16.749  14.158  0.0582 -0.2582 -0.0034
 3370W        W20218  16.694   8.714  13.606  0.0901  0.0019  0.1435
 3371W        W20219  13.429  12.028  12.491 -0.1767 -0.2646  0.0263
 3372W        W20220  14.015  13.415   6.069 -0.2272 -0.0290  0.1137
 3373W        W20221   8.077  12.797   0.096  0.0175  0.0384 -0.0913
 3374W        W20222  13.000   0.367   0.741  0.1185  0.0110 -0.1359
 3375W        W20223  17.397   6.876   2.916  0.1022  0.1111 -0.1576
 3376W        W20224   6.788  16.260   2.355 -0.1814  0.3821 -0.0633
 3377W        W20225  13.610   6.878  12.260 -0.0681  0.0687  0.2461
 3378W        W20226   0.207   5.726  13.078 -0.0509  0.0219 -0.0940
 3379W        W20227   6.886  12.831  11.749  0.0382  0.4994 -0.0319
 3380W        W20228   4.108  15.522  15.188  0.0335 -0.1066 -0.2681
 3381W        W20229  10.187   8.072  12.970  0.1944 -0.0785 -0.0080
 3382W        W20230   4.666   4.746  16.255  0.0276  0.1792 -0.4173
 3383W        W20231   2.501   3.552  12.679  0.0339  0.1428  0.4049
 3384W        W20232  10.669   0.285   0.103 -0.3108  0.0462 -0.1740
 3385W        W20233   2.230   2.965   2.735  0.0291  0.0739 -0.2744
 3386W        W20234   7.543   2.740  12.084  0.1481 -0.1185 -0.0277
 3387W        W20235  12.115  12.290  12.052 -0.1643 -0.1357  0.5055
 3388W        W20236  12.228   5.694   3.900  0.0818  0.2750  0.2496
 3389W        W20237   1.281  14.188  15.022 -0.0920  0.1086 -0.1573
 3390W        W20238  16.587  16.012   4.765  0.2024 -0.2695 -0.1138
 3391W        W20239   2.235  12.433  13.784 -0.1775  0.0745  0.0039
 3392W        W20240  10.471  12.148  11.157 -0.2632 -0.1361  0.3456
 3393W        W20241   3.755  12.401  12.271 -0.0928  0.2980  0.0817
 3394W        W20242  16.959  15.186   2.969 -0.3035  0.2469 -0.1155
 3395W        W20243  14.444  10.342   1.186 -0.1996  0.0610 -0.2881
 3396W        W20244  13.372  15.741  14.961 -0.1479 -0.1763  0.2189
 3397W        W20245  15.381  13.847   1.497  0.3001  0.2385  0.0528
 3398W        W20246   4.218  10.425   3.181  0.0875  0.1884  0.1811
 3399W        W20247  10.006  10.963  11.748 -0.2320 -0.0010  0.1848
 3400W        W20248  11.301   2.802   1.320 -0.0469 -0.1358 -0.0792
 3401W        W20249   6.661  13.748  13.863 -0.2380 -0.0539  0.0722
 3402W        W20250  10.288  16.144   1.855  0.0884 -0.2957  0.1942
 3403W        W20251  11.835   5.954   1.745  0.0213 -0.3102  0.0502
 3404W        W20252   8.346  17.160   4.493 -0.2426  0.0245 -0.0273
 3405W        W20253   6.526  11.169   4.113 -0.0595 -0.3854 -0.1512
 3406W        W20254  15.426  10.260  12.452 -0.1965 -0.1018 -0.1242
 3407W        W20255  13.474  11.201   2.842  0.1718  0.1539 -0.1412
 3408W        W20256   7.762  12.006   4.206  0.0247 -0.4732  0.1193
 3409W        W20257   1.888   1.470   4.631 -0.1122  0.0369  0.1293
 3410W        W20258   4.957   0.824  12.522  0.0391 -0.3164 -0.1943
 3411W        W20259   0.279   4.145  12.879 -0.1532  0.1681 -0.0888
 3412W        W20260   5.134   3.707  15.857 -0.0530 -0.0497  0.1212
 3413W        W20261   4.493  11.680   4.609  0.0193  0.1606  0.0414
 3414W        W20262  15.218  16.434  11.479 -0.0417  0.1721 -0.2540
 3415W        W20263   5.748   5.326  14.762  0.0554  0.0254  0.3379
 3416W        W20264   1.375  11.325  16.250  0.0253 -0.2211 -0.0848
 3417W        W20265   1.658   3.114  13.190  0.1592  0.0008 -0.2063
 3418W        W20266   4.407  10.981   4.027 -0.0519 -0.2534 -0.1907
 3419W        W20267  11.205   7.413  14.243  0.0701  0.1165 -0.0886
 3420W        W20268   2.544   1.769  13.251  0.1067 -0.1499  0.1113
 3421W        W20269  12.705  15.437  14.306  0.2565  0.4248  0.3912
 3422W        W20270  17.089   4.065   3.666  0.0377  0.1462  0.1903
 3423W        W20271  12.968  16.087   4.806  0.0211  0.0751 -0.3798
 3424W        W20272  14.114  14.097   1.566 -0.3310 -0.2724 -0.1468
 3425W        W20273  15.129   1.993  10.810  0.0895  0.1238 -0.2498
 3426W        W20274  10.838  15.883   2.679  0.2841  0.1667  0.1154
 3427W        W20275  12.892   4.269  13.608 -0.2006  0.2343  0.1347
 3428W        W20276   7.962  11.263   3.299 -0.1534 -0.3350 -0.3525
 3429W        W20277  13.446  12.884   2.829  0.1464  0.1752  0.2961
 3430W        W20278  10.820   8.189  13.699 -0.1252 -0.0324  0.0607
 3431W        W20279   6.458   3.196  15.587  0.1513 -0.0406  0.0420
 3432W        W20280   0.606  13.302  13.896 -0.0804  0.1040  0.0530
 3433W        W20281  15.530   5.290   0.319 -0.2984 -0.0245 -0.1549
 3434W        W20282  14.087  14.601   2.541  0.3192  0.1203  0.0787
 3435W        W20283  14.632  12.174   4.392 -0.0806  0.2605  0.2448
 3436W        W20284  15.572   5.113  11.561 -0.2385  0.3525 -0.0788
 3437W        W20285  16.475  12.586   1.858 -0.0925  0.0286  0.0398
 3438W        W20286   0.853  14.940   0.986 -0.1226  0.0929  0.0185
 3439W        W20287  10.473   0.135   2.584 -0.2307 -0.2256 -0.0940
 3440W        W20288   5.980  11.085  12.753 -0.0246  0.0209 -0.1250
 3441W        W20289   3.687  15.381   3.382 -0.0225 -0.1395 -0.1184
 3442W        W20290   2.523   2.899  14.775  0.1985  0.2069  0.4517
 3443W        W20291   4.938   0.070   3.740  0.1053  0.1449 -0.0553
 3444W        W20292   1.467  17.792  14.783  0.1152  0.2099 -0.2060
 3445W        W20293  14.909  12.898   0.694  0.0704 -0.0916  0.0599
 3446W        W20294  12.407  11.489  15.808 -0.1892 -0.1468  0.1276
 3447W        W20295   6.691   7.420  11.169  0.0185 -0.1216 -0.1983
 3448W        W20296   3.052   0.234  14.494  0.2019 -0.1148 -0.1978
 3449W        W20297  12.436  12.160  13.851 -0.0998 -0.0522 -0.2000
 3450W        W20298   6.666  12.214  11.489  0.2077  0.0889 -0.0370
 3451W        W20299   0.774   9.319  12.681 -0.1998  0.0424  0.4400
 3452W        W20300   2.299  11.402   1.106  0.0173 -0.1226  0.1272
 3453W        W20301  12.911   9.734   0.794  0.1124 -0.5559 -0.1669
 3454W        W20302   5.448  17.351  12.108  0.1543  0.0406  0.0967
 3455W        W20303   5.777   1.538   3.652  0.0265 -0.0658 -0.0259
 3456W        W20304  14.023   1.861  13.778 -0.1212 -0.1472 -0.1991
 3457W        W20305   7.073   9.569   3.081 -0.0706 -0.2854  0.2222
 3458W        W20306   3.492   3.652  12.226 -0.1753 -0.0305 -0.0790
 3459W        W20307   6.977   6.925   4.121 -0.0287 -0.3233  0.1436
 3460W        W20308   4.783   0.030   1.543  0.0757  0.1702  0.0722
 3461W        W20309  17.730   4.669   3.230 -0.2989  0.2403  0.1966
 3462W        W20310   5.759  14.045   0.477 -0.1007  0.0474  0.0695
 3463W        W20311   0.500   6.991  15.399 -0.5581 -0.1218  0.0969
 3464W        W20312  12.150   4.297   1.612 -0.0343 -0.0023  0.1582
 3465W        W20313   7.306  17.801  13.853  0.1476  0.1635 -0.0660
 3466W        W20314  15.338  11.184  15.688 -0.1430 -0.0635 -0.1083
 3467W        W20315  15.744  15.678   1.437 -0.0263  0.0015 -0.1857
 3468W        W20316  10.803  10.425   0.288 -0.1780  0.3938  0.1216
 3469W        W20317  10.284   1.694  14.423 -0.1645 -0.0053  0.0256
 3470W        W20318   0.917   4.759  15.328  0.2140 -0.0208  0.1474
 3471W        W20319   4.386  17.202   3.580 -0.2261 -0.1568  0.1788
 3472W        W20320  13.028  16.436  15.288 -0.0811  0.0093 -0.1172
 3473W        W20321   1.366  17.342   2.868 -0.1900  0.0015 -0.0945
 3474W        W20322   5.757  10.468  14.222  0.0657 -0.2460 -0.1628
 3475W        W20323   2.232  14.466   1.426  0.3135  0.2304 -0.1032
 3476W        W20324   3.984  13.614  14.842 -0.0635 -0.2650  0.2573
 3477W        W20325   4.362   9.790  11.932 -0.0846  0.0005  0.3855
 3478W        W20326  15.390  15.532  13.398 -0.1567  0.0461 -0.0653
 3479W        W20327   9.048   5.235   2.333 -0.0637  0.0601 -0.1554
 3480W        W20328   4.510   0.640   0.438 -0.1800 -0.1328 -0.1298
 3481W        W20329  12.636  16.585  11.189  0.3155 -0.1101 -0.3786
 3482W        W20330   3.228   1.614  12.348 -0.0690 -0.0081  0.1918
 3483W        W20331   2.913   1.436   5.898  0.1206 -0.1151  0.0403
 3484W        W20332   3.860   8.660   3.459 -0.1063 -0.1402 -0.0839
 3485W        W20333   1.107  16.750  12.573  0.2141 -0.0578  0.0589
 3486W        W20334  17.624   0.039   0.103  0.2867 -0.1474 -0.0958
 3487W        W20335  16.650  15.434  13.591  0.0538 -0.3653 -0.0069
 3488W        W20336   3.835  16.969   4.203 -0.0953  0.1365 -0.1661
 3489W        W20337   5.343   7.905   1.127 -0.1270  0.1255 -0.0430
 3490W        W20338   2.108  12.634   1.738  0.4932  0.0831 -0.2085
 3491W        W20339   9.269  15.410  12.010 -0.2025  0.1676  0.1341
 3492W        W20340   4.866   6.734  14.797 -0.3679  0.1808 -0.0377
 3493W        W20341  17.205   2.071   0.175 -0.0001  0.0582  0.0441
 3494W        W20342   7.865   9.656  15.276 -0.3152  0.1082  0.1587
 3495W        W20343   4.595  14.812   5.169 -0.1208  0.0019 -0.0692
 3496W        W20344   6.667  15.625  13.552 -0.1488  0.2471  0.1111
 3497W        W20345  17.121   4.445  14.081  0.0285 -0.2664 -0.0226
 3498W        W20346   1.711  17.749  13.928  0.3066  0.1040 -0.2637
 3499W        W20347   1.058  10.993   2.030  0.0172  0.0254 -0.4718
 3500W        W20348  11.531  12.709   0.110 -0.0310 -0.1296 -0.0996
 3501W        W20349  12.341   4.615  12.402  0.0825 -0.3937  0.4476
 3502W        W20350   2.131  14.929  15.718  0.1096  0.1242  0.2374
 3503W        W20351   2.875   8.317   4.261  0.0167  0.0954 -0.0340
 3504W        W20352   0.182   1.826  11.666  0.3615 -0.1677  0.2465
 3505W        W20353  12.131   2.726  11.697 -0.2223  0.1741  0.0286
 3506W        W20354  15.453   9.707   4.051  0.1466  0.2295 -0.0809
 3507W        W20355  13.047  10.222  12.150  0.0477 -0.2995 -0.2544
 3508W        W20356  11.802   8.664  12.766  0.1292  0.2389  0.2269
 3509W        W20357  14.018   7.746  14.343 -0.4507  0.1845  0.0331
 3510W        W20358   5.584  16.387   3.853 -0.0844  0.0867  0.2366
 3511W        W20359  10.966  10.942   4.568  0.1839 -0.0622 -0.0135
 3512W        W20360   6.601  17.604  13.605 -0.2293  0.0704 -0.0752
 3513W        W20361   4.021  15.922  13.542  0.1271 -0.0815 -0.4206
 3514W        W20362   8.963   3.288   2.842 -0.3760  0.0929 -0.0195
 3515W        W20363  15.885   7.503  13.297 -0.2057  0.2438  0.0737
 3516W        W20364   5.708   5.520  11.443 -0.0718  0.1487  0.2632
 3517W        W20365   0.446   2.622  13.192  0.0487  0.0761 -0.4170
 3518W        W20366  11.243   5.392   9.989 -0.2344  0.0228  0.0373
 3519W        W20367  11.801  17.120   4.737 -0.1161 -0.1560 -0.0622
 3520W        W20368  11.539  13.068   3.370 -0.4213 -0.0292 -0.1008
 3521W        W20369   3.282   5.468  14.213 -0.1409  0.1059  0.5249
 3522W        W20370  12.137   0.731   0.413  0.3023 -0.0331  0.0838
 3523W        W20371  11.620  16.801   5.105 -0.1861 -0.0601 -0.1757
 3524W        W20372   8.617  13.255   5.242  0.1037  0.1197 -0.0892
 3525W        W20373  17.716  17.585   4.921  0.0920  0.0753  0.1133
 3526W        W20374  14.521  13.565  11.588  0.3594  0.2863  0.2761
 3527W        W20375   2.389   4.079  10.583 -0.0416 -0.2347 -0.1136
 3528W        W20376   0.331  16.837   5.302 -0.0441  0.0175  0.0200
 3529W        W20377   5.664   9.843   2.701  0.2160  0.2156  0.0487
 3530W        W20378  16.227  13.695   1.181  0.2811 -0.1748 -0.0830
 3531W        W20379   2.432  18.006   4.052  0.2641  0.0183 -0.2277
 3532W        W20380   7.489   7.192  15.669 -0.1416  0.2802  0.1465
 3533W        W20381   3.254   2.169  13.753  0.5643 -0.0028 -0.1622
 3534W        W20382  15.459   0.741  15.455  0.1211  0.1839 -0.0629
 3535W        W20383   6.892  18.089  13.542  0.0550  0.1520 -0.1745
 3536W        W20384  13.632   6.530  14.751  0.2092 -0.1493 -0.0159
 3537W        W20385  11.194   1.722  15.090 -0.0787  0.0679  0.0738
 3538W        W20386   9.977   5.006  16.193 -0.0167 -0.0656 -0.0122
 3539W        W20387   3.315   2.963   1.715  0.2613 -0.2892  0.4556
 3540W        W20388   6.064   9.427  13.567  0.1186  0.2009  0.0626
 3541W        W20389  14.014   5.274   1.828 -0.2470 -0.1689 -0.2112
 3542W        W20390  16.755  12.487  13.682 -0.0161 -0.2499 -0.1459
 3543W        W20391  13.766   8.713  15.869  0.0838 -0.1414  0.0295
 3544W        W20392   7.951  16.442   3.705 -0.2112  0.1877  0.4365
 3545W        W20393   4.626  15.461  14.153  0.1345  0.1315 -0.0225
 3546W        W20394   5.750   6.519   4.825  0.1171 -0.0131 -0.0792
 3547W        W20395  10.065  17.731   1.068 -0.0568  0.1615  0.2582
 3548W        W20396  12.905   6.369  12.820 -0.1107  0.2310  0.1733
 3549W        W20397  17.297   1.354   1.512 -0.3824 -0.0906 -0.0770
 3550W        W20398   3.939  14.045  15.714 -0.0751  0.0587  0.1381
 3551W        W20399   4.079  12.878  13.786 -0.1544 -0.2094  0.0344
 3552W        W20400   5.113  15.094   2.748 -0.0405  0.0560  0.1314
 3553W        W20401  16.061  17.538  11.021 -0.4719 -0.2180 -0.0976
 3554W        W20402  11.743   2.879  15.886 -0.0349  0.0562  0.0276
 3555W        W20403   3.994   0.748  15.072 -0.0588  0.0556 -0.2826
 3556W        W20404   4.962   5.414  15.267  0.0789 -0.2457 -0.0275
 3557W        W20405  15.852  17.487   3.228 -0.1138 -0.0202  0.0289
 3558W        W20406   0.905   0.608   0.164 -0.1966  0.0114  0.0856
 3559W        W20407   6.451  16.591   4.314 -0.0160  0.0921  0.0641
 3560W        W20408  13.422  15.720   0.767 -0.0268 -0.1389 -0.0503
 3561W        W20409   7.457   1.074   1.701  0.2569  0.2597  0.1396
 3562W        W20410   3.278   5.143  12.528 -0.1497  0.0101  0.0513
 3563W        W20411   5.630   9.194  12.728 -0.0635 -0.2360  0.0072
 3564W        W20412   6.226  17.829  13.927 -0.2566  0.2148  0.3640
 3565W        W20413   3.094   5.359   0.565 -0.0798  0.0345  0.1407
 3566W        W20414   4.490  12.335   4.048 -0.2721  0.1227 -0.3053
 3567W        W20415   2.197   2.843  13.282  0.1193 -0.0447  0.0435
 3568W        W20416   0.650  11.632  13.916  0.0436  0.0538 -0.3512
 3569W        W20417  17.001  12.229  15.630 -0.0725  0.1518  0.0110
 3570W        W20418   3.520  10.522  15.798 -0.3049  0.2502 -0.1410
 3571W        W20419   8.488  15.040  15.125  0.2491 -0.2465  0.0521
 3572W        W20420   8.827   9.163  14.098 -0.1275  0.1697  0.1007
 3573W        W20421   0.544  13.203  11.710  0.1788  0.0280 -0.0749
 3574W        W20422   5.007   7.884   0.420  0.0142 -0.0638 -0.0473
 3575W        W20423  18.090   5.872  11.578 -0.2990 -0.0635 -0.3129
 3576W        W20424  16.750  17.748  14.860  0.1715  0.1838 -0.4368
 3577W        W20425  15.583   5.700  12.505 -0.2876 -0.0906 -0.2760
 3578W        W20426  18.019   6.810   0.399  0.0663  0.0796  0.0615
 3579W        W20427   6.326  17.232  15.900 -0.2065  0.0057 -0.2341
 3580W        W20428   4.517  14.611   0.709  0.0705  0.0548 -0.0512
 3581W        W20429  13.141  12.370   2.740  0.0363  0.1593 -0.2610
 3582W        W20430  12.969  17.940   3.959 -0.2670  0.1316 -0.1418
 3583W        W20431  12.093  16.658   4.892 -0.4244 -0.2136  0.1343
 3584W        W20432  15.320   2.350  14.029 -0.0076  0.1028  0.1337
 3585W        W20433  14.903  13.461   3.157 -0.1710 -0.2540  0.2560
 3586W        W20434  13.197  12.400  12.812 -0.2278 -0.0521  0.0439
 3587W        W20435   9.180  10.845   3.304 -0.2077  0.1012 -0.0641
 3588W        W20436   1.212   8.605  12.811 -0.0562  0.0520  0.2225
 3589W        W20437  17.701  13.700   4.018  0.1795  0.2992 -0.1703
 3590W        W20438   0.583   8.651  12.101 -0.0271  0.0772  0.0327
 3591W        W20439  10.588  16.552  11.996  0.0321 -0.1275  0.3778
 3592W        W20440   8.629  11.601   2.254  0.2123 -0.1702 -0.1914
 3593W        W20441   9.609   3.892   4.532 -0.0255  0.2275 -0.0223
 3594W        W20442   0.321   5.817   3.472 -0.1561 -0.1468 -0.0323
 3595W        W20443  17.854   4.658  13.801  0.3144  0.0184 -0.0756
 3596W        W20444  17.708  12.307  12.543 -0.1569 -0.0127 -0.1112
 3597W        W20445   0.058  15.002  13.854 -0.0387  0.3650  0.1436
 3598W        W20446  16.752   0.084  14.427  0.1255 -0.1167  0.1351
 3599W        W20447  14.717   8.021   1.369 -0.2985  0.1043  0.0333
 3600W        W20448  13.930  10.921   2.803  0.0767 -0.0666  0.0605
 3601W        W20449   5.844  12.368   1.035 -0.0730 -0.1358 -0.2152
 3602W        W20450   1.973   4.841  14.321  0.0009  0.2637  0.2593
 3603W        W20451  17.522   5.325  16.092  0.3120  0.1714 -0.0285
 3604W        W20452   0.785  16.841   0.682  0.4220 -0.2445  0.3199
 3605W        W20453  17.554   4.448   5.683  0.0995 -0.0849 -0.0519
 3606W        W20454  11.308  15.088   2.692 -0.1612 -0.0285  0.1717
 3607W        W20455   3.401   1.665  13.072 -0.3771 -0.1995  0.0144
 3608W        W20456   1.882  11.095   1.412 -0.2949  0.1804  0.0005
 3609W        W20457   4.442  11.116  13.242  0.5156  0.0330  0.1499
 3610W        W20458   4.450   6.614   1.309  0.2294  0.1917 -0.1172
 3611W        W20459   9.074   9.172   0.313 -0.1040 -0.0749  0.3299
 3612W        W20460   3.675  16.915  16.320  0.0622  0.2677 -0.1815
 3613W        W20461  11.162   6.229   1.129  0.0181 -0.4082  0.0929
 3614W        W20462   1.896   6.577   4.457  0.0469 -0.6063  0.2300
 3615W        W20463  13.555   5.760   0.525  0.1881  0.2651 -0.0338
 3616W        W20464   4.277   7.048   2.516  0.2102  0.3910  0.4503
 3617W        W20465   9.534   5.989   4.016  0.0889  0.0656  0.0693
 3618W        W20466   1.416   6.155   1.966  0.1314 -0.0005 -0.0819
 3619W        W20467  16.278   9.416  12.817 -0.0352  0.0956 -0.3246
 3620W        W20468   0.375  12.383  12.838  0.1027  0.1928  0.2020
 3621W        W20469  16.332   1.329   2.506 -0.0341 -0.0747  0.1265
 3622W        W20470  12.354   4.770  15.472  0.1144  0.0791  0.0823
 3623W        W20471   6.372  13.110   1.566  0.3257 -0.1772  0.1219
 3624W        W20472   6.385   1.947  14.415  0.0714 -0.4121  0.0088
 3625W        W20473   5.091   7.937  10.976 -0.4359 -0.1349 -0.0266
 3626W        W20474   3.467  12.809   3.950 -0.1187 -0.1141 -0.3555
 3627W        W20475  17.036  17.043   0.104  0.0722 -0.1790 -0.0478
 3628W        W20476  16.918   6.378   0.318  0.2589 -0.1885  0.0180
 3629W        W20477   0.453  15.010   0.704 -0.0274 -0.1254  0.1122
 3630W        W20478  15.883   2.552  13.623 -0.1543 -0.0067  0.0299
 3631W        W20479  15.272   0.787   0.068 -0.0056  0.0111  0.2753
 3632W        W20480  13.001   8.607   0.549 -0.0077 -0.0512  0.0161
 3633W        W20481   0.829  12.989  14.812  0.2708  0.0720 -0.1891
 3634W        W20482   6.509   5.258  15.618 -0.1253 -0.2028 -0.0192
 3635W        W20483   8.342  14.662   3.478  0.0408  0.2139  0.1556
 3636W        W20484   7.123   6.784   1.235 -0.1192 -0.1210 -0.0357
 3637W        W20485  17.955   6.499  15.643  0.1018 -0.1709  0.0488
 3638W        W20486  16.029  14.339   5.285  0.3125  0.0878 -0.3171
 3639W        W20487   2.357   8.853  15.925  0.0560 -0.0609  0.1945
 3640W        W20488   0.897   2.831  13.955 -0.1416 -0.0504  0.2205
 3641W        W20489  10.227   3.071   0.290  0.2075  0.0414  0.1713
 3642W        W20490  18.083   0.080  13.734  0.0083 -0.0418 -0.1414
 3643W        W20491  13.733  12.398   4.584  0.0373  0.0901 -0.0864
 3644W        W20492   9.876   5.241  11.270 -0.1056  0.1230  0.1193
 3645W        W20493  10.348   4.829  14.541 -0.6119 -0.1313  0.0072
 3646W        W20494  10.385   7.020   3.707 -0.3962  0.3301  0.3878
 3647W        W20495  11.077   3.368  15.939 -0.0990 -0.1044 -0.1060
 3648W        W20496   8.871   1.141  14.504 -0.1222 -0.1077  0.0160
 3649W        W20497   7.802  14.157  12.330 -0.2663  0.1638 -0.2722
 3650W        W20498   5.146   2.757   5.487 -0.0717  0.1244 -0.2264
 3651W        W20499   8.254   4.515   3.974 -0.0265 -0.0422 -0.0855
 3652W        W20500  16.558  15.333   3.325  0.0584 -0.3208 -0.1204
 3653W        W20501  13.128   1.614  14.787  0.1381 -0.4536  0.0840
 3654W        W20502   8.393   2.141  16.179  0.0734  0.2835 -0.3468
 3655W        W20503   6.731  16.289  11.588  0.2291 -0.1227 -0.0483
 3656W        W20504  17.236  12.298  12.797 -0.0505 -0.0210  0.3052
 3657W        W20505   2.363   3.975   1.092  0.2989 -0.1409 -0.1944
 3658W        W20506  10.650   3.924  11.479 -0.1835 -0.2098  0.1068
 3659W        W20507  12.872  12.354  14.270 -0.0457  0.1445  0.1214
 3660W        W20508  13.586   9.727  15.806 -0.2111 -0.0056 -0.1925
 3661W        W20509   8.224  15.666  14.510 -0.5260 -0.0003  0.1849
 3662W        W20510  16.759   7.918  13.948 -0.0769 -0.0249 -0.1772
 3663W        W20511   5.066   0.403  14.577  0.0305  0.0940 -0.2006
 3664W        W20512  16.071   1.064   4.420  0.0822  0.1915 -0.0564
 3665W        W20513  13.874   1.327  15.692 -0.2644 -0.1913 -0.0078
 3666W        W20514   9.027  18.019  15.369  0.0399 -0.0909  0.0859
 3667W        W20515   9.142  17.448  14.673 -0.2543  0.0720 -0.1610
 3668W        W20516   6.521  11.022   2.143  0.0292  0.1237  0.0211
 3669W        W20517  11.874   4.854  15.387 -0.3593  0.1923  0.4804
 3670W        W20518  12.391  12.329  13.279  0.2034  0.0469 -0.0189
 3671W        W20519  13.221   9.918   5.097 -0.0448  0.2615  0.0383
 3672W        W20520   9.034   4.989  12.620  0.0163  0.1098  0.0165
 3673W        W20521  11.471   2.811   0.754 -0.1084  0.0560 -0.0667
 3674W        W20522  12.338   1.530   1.314 -0.0041  0.3446  0.0921
 3675W        W20523   6.843   6.977  13.969  0.2136 -0.0249 -0.1582
 3676W        W20524   7.483   5.840  14.386 -0.1311 -0.4073 -0.1943
 3677W        W20525  13.550   3.734   2.487 -0.1140  0.2363  0.1295
 3678W        W20526   2.864   3.789  13.633 -0.0528  0.1098 -0.2328
 3679W        W20527   5.894   8.186  11.743 -0.0618 -0.0943  0.1367
 3680W        W20528   9.427  10.919  13.080 -0.0118  0.2539  0.4360
 3681W        W20529   5.827  13.963   4.058  0.0055 -0.0637 -0.2632
 3682W        W20530   3.768   1.983   3.314 -0.2438 -0.5050 -0.2130
 3683W        W20531  17.933   1.141  14.778  0.0594 -0.3967 -0.2943
 3684W        W20532   9.231  16.646   5.456  0.0535  0.0433 -0.1669
 3685W        W20533  17.109   6.506  12.249  0.3188  0.0415  0.1645
 3686W        W20534   2.232  12.178  12.844  0.0873  0.2472  0.0496
 3687W        W20535  13.349   7.202  14.088  0.0929  0.0297  0.4034
 3688W        W20536  14.795  16.859   0.623  0.2323 -0.0676 -0.0592
 3689W        W20537   0.489  12.534   3.485 -0.0715 -0.3806  0.1576
 3690W        W20538   9.435   4.211  13.174  0.1696  0.0984 -0.0536
 3691W        W20539  11.295   7.508  15.538  0.0206 -0.2691  0.1367
 3692W        W20540   2.094   6.898   1.939 -0.1564 -0.3949  0.0438
 3693W        W20541  11.581  17.382  15.971  0.2932 -0.0440  0.1097
 3694W        W20542   1.757   8.895   0.188  0.1835 -0.2911 -0.1277
 3695W        W20543  13.571   2.860  16.130 -0.0789  0.1556 -0.1290
 3696W        W20544   2.687   9.650   1.508  0.2331  0.0314  0.1657
 3697W        W20545   9.146  11.703  12.558 -0.1774 -0.0079  0.3880
 3698W        W20546  15.757  17.349  13.480 -0.3199 -0.3353  0.0863
 3699W        W20547   8.713  10.655  11.972 -0.2432 -0.2603 -0.0768
 3700W        W20548  11.678  14.044  14.956 -0.2993 -0.2519 -0.3243
 3701W        W20549  11.626  12.678  12.780 -0.3335  0.1200 -0.0425
 3702W        W20550   5.368   0.078   5.250  0.2705  0.1789 -0.1052
 3703W        W20551   2.601  15.424  12.332  0.4454 -0.0602 -0.3070
 3704W        W20552   0.348   0.315  15.162 -0.0713  0.1126 -0.0396
 3705W        W20553   5.831  10.827  16.209 -0.2686  0.3263  0.1611
 3706W        W20554   3.335   3.126   4.674 -0.1709  0.0253 -0.2399
 3707W        W20555  13.956   9.129  12.533  0.1331 -0.0599 -0.3360
 3708W        W20556   7.922  11.047  13.909  0.2492  0.2011 -0.4800
 3709W        W20557  16.315   8.433   2.161  0.0931  0.1727 -0.0031
 3710W        W20558   5.458  16.045  12.489 -0.1946  0.0923  0.2075
 3711W        W20559   2.793  14.637   1.075  0.1572 -0.0142 -0.0602
 3712W        W20560  16.768   5.502   0.334 -0.0109 -0.1419  0.0681
 3713W        W20561  17.811  12.043  12.141  0.0457  0.0711  0.1995
 3714W        W20562  10.117   3.688   4.573  0.2322  0.2192  0.1796
 3715W        W20563   9.132  16.584   2.999 -0.2649 -0.0762 -0.0947
 3716W        W20564  10.330   7.817   1.595  0.0572  0.0755  0.0228
 3717W        W20565  12.458  16.348  14.861  0.1263 -0.0650 -0.3516
 3718W        W20566  12.005  10.268  13.683 -0.3100  0.3851  0.1025
 3719W        W20567   2.388  11.030  11.227  0.0306 -0.0972  0.0289
 3720W        W20568   7.494   1.728   4.093 -0.0211  0.0955 -0.1173
 3721W        W20569   9.061  10.538  15.353  0.0093 -0.0275 -0.0078
 3722W        W20570  16.941   4.814  12.752  0.0290  0.0461  0.0220
 3723W        W20571  15.573  17.922  14.547  0.1393  0.2369  0.1700
 3724W        W20572   6.524  10.239  11.750  0.0949  0.0094  0.0384
 3725W        W20573  17.584   8.016   5.334 -0.2935 -0.0769  0.0573
 3726W        W20574   6.245   6.836  11.463  0.0617  0.2942 -0.3062
 3727W        W20575   4.699   4.127   6.060  0.0393  0.2879 -0.0441
 3728W        W20576   5.798   7.157   0.164 -0.2044 -0.1298  0.0802
 3729W        W20577   2.888   9.231  11.205 -0.1665 -0.1993 -0.0437
 3730W        W20578  13.526  10.014  12.073 -0.1312 -0.3183  0.2254
 3731W        W20579  16.941  17.577  11.331 -0.3321  0.2050 -0.3672
 3732W        W20580  13.867   1.039  15.273  0.0400  0.1186 -0.0996
 3733W        W20581   2.011  15.324   3.741 -0.2119 -0.2301 -0.0163
 3734W        W20582   2.130  14.978   4.715  0.1185 -0.1912 -0.0030
 3735W        W20583   4.507   0.281   1.868 -0.2003  0.1388 -0.2913
 3736W        W20584  12.983  11.969   2.316 -0.2598 -0.2908 -0.2737
 3737W        W20585   2.491   1.333   5.019  0.1275 -0.0805 -0.1540
 3738W        W20586   9.232  12.049   3.951  0.1369 -0.1892 -0.1744
 3739W        W20587   7.130   8.094  16.261  0.2274  0.5808 -0.1342
 3740W        W20588  13.318   6.353   2.050 -0.2265  0.3432 -0.0547
 3741W        W20589  12.048   6.071  11.829  0.0768  0.1213 -0.1092
 3742W        W20590   1.992  16.919  13.520 -0.0782  0.1157 -0.2156
 3743W        W20591   2.221   8.354   0.874  0.0563  0.1140  0.0296
 3744W        W20592  14.448   9.977  15.644 -0.0115 -0.0089 -0.3676
 3745W        W20593   7.574   7.377   0.113 -0.0383  0.0475  0.0931
 3746W        W20594   3.257   3.579   1.292  0.1040  0.0861 -0.0268
 3747W        W20595  12.834   2.168   0.851  0.2053 -0.2580  0.1374
 3748W        W20596  10.095   1.923  14.858  0.1665  0.1557 -0.0109
 3749W        W20597   2.496  16.913  13.345 -0.2428  0.1681  0.2659
 3750W        W20598   7.555  17.081   0.326  0.0467 -0.0694  0.0667
 3751W        W20599  11.475  13.611  11.467  0.0881 -0.3886  0.1744
 3752W        W20600  10.479  14.317  14.347  0.1833  0.0630 -0.1856
 3753W        W20601   6.358   2.935   5.043  0.0282 -0.0697 -0.0122
 3754W        W20602  15.246   1.842  14.203 -0.0299  0.1781  0.0977
 3755W        W20603   7.752  10.926   2.678 -0.0075  0.0545  0.1678
 3756W        W20604  15.635   9.795  16.069  0.0680 -0.3470  0.1092
 3757W        W20605   4.094   0.822  15.952 -0.0869  0.0646 -0.0941
 3758W        W20606   4.758  15.197  14.554  0.1481  0.3161 -0.1979
 3759W        W20607   2.466   3.834   1.578  0.2536  0.1984 -0.1161
 3760W        W20608   4.606   4.132  15.429  0.1490  0.0972  0.1822
 3761W        W20609   2.415   1.365  12.889  0.4669 -0.1701  0.2013
 3762W        W20610   9.606   2.857  13.951 -0.3704  0.1134  0.0487
 3763W        W20611   2.328  14.788  14.258 -0.0773  0.2640  0.0116
 3764W        W20612  11.431   7.005   3.838 -0.2277 -0.1133  0.1099
 3765W        W20613  14.561   0.053  12.090 -0.2065  0.1442  0.0297
 3766W        W20614   4.169  14.988  15.334  0.0025 -0.1005 -0.1012
 3767W        W20615  14.355   8.355  13.099 -0.3052 -0.2033 -0.1207
 3768W        W20616   4.460  16.193  14.428 -0.0790 -0.0207 -0.3182
 3769W        W20617   4.468  16.665   0.215 -0.1903  0.4249  0.3468
 3770W        W20618  11.628  15.754  15.563  0.1703 -0.0414 -0.0895
 3771W        W20619  12.391   1.836  14.374  0.4126 -0.3476  0.1298
 3772W        W20620  14.534   4.693  15.832  0.2301 -0.0505  0.1874
 3773W        W20621   0.021   4.700   2.706  0.1254  0.0250 -0.1396
 3774W        W20622  15.113   6.276   0.110 -0.4423  0.1115  0.1018
 3775W        W20623  16.626   3.936   4.981  0.2089  0.0482 -0.0724
 3776W        W20624   3.387   3.074   0.858 -0.1624 -0.0387  0.0516
 3777W        W20625  11.802  12.818  15.512 -0.0533 -0.0200 -0.3299
 3778W        W20626   4.554   2.186   4.605  0.3882  0.2713 -0.2072
 3779W        W20627  17.214  13.715   4.228 -0.3029  0.1048  0.0947
 3780W        W20628  10.022  15.733  13.219 -0.2839 -0.5208  0.0922
 3781W        W20629   5.925   5.021   4.603  0.0878  0.0136  0.1348
 3782W        W20630  10.161  12.365   2.776 -0.1352  0.0434 -0.2497
 3783W        W20631  14.876   3.856  11.783 -0.0454  0.1218  0.1768
 3784W        W20632   7.036  15.540   4.110 -0.3046 -0.0680 -0.1421
 3785W        W20633  14.346  13.970   0.552 -0.2908  0.4592 -0.1088
 3786W        W20634  14.798   2.462  12.687  0.0348  0.0300  0.4042
 3787W        W20635  11.189  14.203  12.935  0.2353 -0.3939  0.0599
 3788W        W20636  11.397   9.276   4.214  0.2148  0.0247  0.2587
 3789W        W20637  12.818  12.346   1.543 -0.0774  0.2104 -0.0839
 3790W        W20638  13.071   6.841  12.201  0.1618 -0.0679 -0.0555
 3791W        W20639  12.946  13.611   5.354 -0.3361 -0.0061  0.2654
 3792W        W20640   5.805   1.940  15.800  0.1679  0.0069  0.1633
 3793W        W20641   1.859  15.422   4.458  0.2458 -0.0349  0.0775
 3794W        W20642  11.845  11.392   1.293 -0.0443  0.2970 -0.0712
 3795W        W20643   4.774   9.599   1.070 -0.0861 -0.1290 -0.0782
 3796W        W20644   7.384  14.882   0.118  0.2953  0.0147  0.1038
 3797W        W20645   8.673   5.330   3.744 -0.1354  0.1050 -0.1966
 3798W        W20646   6.031  10.692  12.341 -0.2571  0.0853  0.2301
 3799W        W20647   0.551   4.870   4.874  0.2304 -0.0628 -0.0723
 3800W        W20648  10.288  16.809   5.553 -0.1397  0.4421 -0.1196
 3801W        W20649  17.293  17.572   3.213 -0.0836  0.0373 -0.0893
 3802W        W20650  13.134   0.242  15.989 -0.1067  0.0973  0.1513
 3803W        W20651   2.761   8.073   0.473 -0.1012  0.2057  0.1824
 3804W        W20652  18.039  11.342   5.602 -0.1207 -0.0905  0.0392
 3805W        W20653   2.403   4.532   3.336 -0.0857  0.0125 -0.4470
 3806W        W20654  17.234  13.600   0.588 -0.2157 -0.1722 -0.1897
 3807W        W20655  15.139  13.468   2.183 -0.1023  0.0886 -0.2206
 3808W        W20656   3.091  14.898   4.488 -0.0182 -0.0996 -0.1207
 3809W        W20657  14.759  14.602   0.548  0.0036 -0.1148  0.1083
 3810W        W20658  17.488   7.522   0.394  0.2331 -0.2022  0.2623
 3811W        W20659   2.334   6.834  15.983 -0.0349 -0.2241  0.0610
 3812W        W20660  15.254   4.651   0.020 -0.4461 -0.0310 -0.1749
 3813W        W20661   3.380  14.431  12.676 -0.1368 -0.0949 -0.0927
 3814W        W20662  10.861  13.253  14.092  0.1766 -0.1214  0.0237
 3815W        W20663  17.775   8.320   3.932 -0.1847  0.1099  0.1644
 3816W        W20664  13.066  13.854   1.646  0.1303 -0.3491  0.0686
 3817W        W20665   0.273  15.995   2.297  0.0773 -0.1984 -0.3375
 3818W        W20666  14.888  11.845  12.703  0.1781  0.1033 -0.1068
 3819W        W20667   7.105  16.448  11.293  0.2952 -0.1525 -0.3387
 3820W        W20668   1.605   5.219   2.596 -0.3567  0.1234 -0.3330
 3821W        W20669   9.064  14.782  14.181  0.0419  0.0417 -0.0631
 3822W        W20670  12.772   1.079   3.839 -0.2171  0.3489  0.1626
 3823W        W20671  15.308  11.669  13.147  0.2082  0.2120 -0.2207
 3824W        W20672  17.000   5.615  15.914 -0.2031  0.0536 -0.3788
 3825W        W20673  13.923  11.398   4.083 -0.4351  0.1118 -0.1084
 3826W        W20674  11.051   1.250  15.460  0.1421 -0.3056  0.1738
 3827W        W20675  11.375   8.210  15.597 -0.3289  0.2623  0.2994
 3828W        W20676  11.155  12.252   2.805  0.1023  0.2112 -0.0672
 3829W        W20677  16.894  12.865  15.053 -0.0623 -0.1524 -0.0349
 3830W        W20678   1.548   1.983  13.624  0.3137  0.2577 -0.2134
 3831W        W20679   3.239  11.976  14.962 -0.0979  0.1304  0.2056
 3832W        W20680  15.698  14.220   6.121 -0.0871  0.3665 -0.0994
 3833W        W20681   7.276   9.855   2.719  0.1756  0.2290  0.2489
 3834W        W20682  14.261  12.309   4.683  0.0734 -0.2348 -0.2632
 3835W        W20683   3.650   2.342  13.998 -0.0355  0.3110  0.3089
 3836W        W20684  13.142   4.895   3.218  0.1246  0.1934  0.0357
 3837W        W20685   7.511  12.942  13.745 -0.0845  0.1558 -0.1247
 3838W        W20686   3.419  11.064   2.062 -0.0998  0.0197 -0.1891
 3839W        W20687   0.881   2.870  15.446 -0.0235 -0.4153 -0.0348
 3840W        W20688   7.089   7.894  13.688 -0.2400 -0.0240  0.0657
 3841W        W20689   7.666  12.260   0.964 -0.1106 -0.0865 -0.1346
 3842W        W20690   6.909   9.851   1.657  0.2766 -0.3012 -0.3806
 3843W        W20691   2.425   1.532  12.182 -0.0306  0.1951 -0.0551
 3844W        W20692  12.927  14.942   3.081 -0.0574  0.1950  0.0019
 3845W        W20693   7.607   5.525  13.317  0.0924 -0.0324  0.2360
 3846W        W20694  11.465   5.774   3.659 -0.0802  0.0749  0.1324
 3847W        W20695  18.085  12.991   0.302  0.2449 -0.0963 -0.2397
 3848W        W20696  16.605   2.523  12.994  0.0302 -0.0001 -0.3886
 3849W        W20697   2.631   8.673   2.026  0.3652  0.2403  0.2689
 3850W        W20698  13.449   0.594  12.450 -0.2723 -0.0024  0.0199
 3851W        W20699  14.963   0.071  11.191  0.2493  0.0647  0.3908
 3852W        W20700   4.054   1.880   4.558  0.0853  0.3863  0.1211
 3853W        W20701  17.636  17.253   3.469 -0.3773  0.0214 -0.3860
 3854W        W20702   3.357   3.746  14.304 -0.1848  0.4307 -0.0699
 3855W        W20703   6.037   2.599  13.003  0.2158 -0.1799 -0.0083
 3856W        W20704   5.327   7.339  11.756  0.0755 -0.3974  0.0077
 3857W        W20705   3.744   9.168  12.066  0.0499 -0.0931 -0.0418
 3858W        W20706  11.251  16.221  13.715 -0.2029 -0.1722 -0.1797
 3859W        W20707  17.682  12.945   3.710 -0.3418 -0.0274  0.1037
 3860W        W20708   8.888   1.807   2.172  0.1378  0.1644 -0.1303
 3861W        W20709  17.768  11.333   4.464  0.3973 -0.2521 -0.1913
 3862W        W20710  12.869   3.324   2.682  0.1067  0.3656 -0.1064
 3863W        W20711   2.824  16.341  14.051  0.1566  0.0056 -0.2449
 3864W        W20712   9.140   4.035   0.096  0.0707 -0.0517 -0.1046
 3865W        W20713  12.532  14.895   4.734 -0.2784  0.2031 -0.1702
 3866W        W20714   1.756   2.216   0.480  0.0302 -0.0801  0.2237
 3867W        W20715   9.676  11.542   4.905 -0.0262  0.2808  0.1927
 3868W        W20716   4.794   0.090  14.915  0.3316  0.3170 -0.1492
 3869W        W20717   1.204   0.811  16.002  0.0105  0.4147 -0.1403
 3870W        W20718  17.047   9.575  15.624 -0.0007 -0.0838  0.0260
 3871W        W20719   6.027  13.039   4.606 -0.0930 -0.1053  0.1462
 3872W        W20720   4.536  18.086   3.375  0.1346  0.1602  0.2871
 3873W        W20721   0.052  15.019   3.216 -0.2796  0.2142 -0.0648
 3874W        W20722   7.154  10.827  13.391 -0.0653 -0.1727 -0.1043
 3875W        W20723   5.887   7.946   0.864  0.1772 -0.4279  0.1965
 3876W        W20724   1.413  16.415   4.689 -0.2352 -0.0244 -0.1209
 3877W        W20725   7.466  11.047   9.499  0.0988 -0.2821 -0.2600
 3878W        W20726   9.806   0.624   2.406  0.1138  0.0919  0.1435
 3879W        W20727   5.591   5.628   4.455 -0.0072  0.0011  0.1329
 3880W        W20728   4.602   6.686   0.265 -0.1105 -0.1804  0.2562
 3881W        W20729  10.225   8.466   0.481 -0.0278  0.0482  0.0487
 3882W        W20730   8.286  10.780  12.231  0.2233  0.0249  0.3849
 3883W        W20731  14.548  17.581   4.976 -0.1442 -0.1378  0.0204
 3884W        W20732  12.444  13.738  14.276 -0.3919 -0.1518  0.2794
 3885W        W20733  13.288  17.255  11.376 -0.0603  0.4067 -0.1589
 3886W        W20734   5.501  16.692  13.671  0.0359 -0.0942 -0.1790
 3887W        W20735   9.931   2.809   2.753  0.1063 -0.2767 -0.0605
 3888W        W20736   6.985   4.219  13.637 -0.1474  0.0036  0.2299
 3889W        W20737   4.928   4.201  14.984  0.2081  0.1605 -0.1789
 3890W        W20738  16.817  17.663   5.229 -0.3439  0.1287  0.1984
 3891W        W20739   4.663  17.795  14.672  0.1121 -0.2566  0.2019
 3892W        W20740  13.128  14.740  15.942 -0.2394  0.0460  0.3993
 3893W        W20741  15.189   0.162  14.311 -0.0639 -0.0310 -0.1842
 3894W        W20742   7.131  12.650   0.313  0.0217 -0.4198  0.0252
 3895W        W20743  16.967  13.032  11.333 -0.0869 -0.0779  0.1310
 3896W        W20744  13.074  12.914  12.149 -0.3138 -0.0577 -0.0439
 3897W        W20745  13.469   4.916  14.930  0.0935 -0.0574 -0.0579
 3898W        W20746   3.324  12.557  16.241  0.0141 -0.0508 -0.1428
 3899W        W20747   8.334  16.620  14.698 -0.0919  0.1111  0.0375
 3900W        W20748   4.207   3.745  14.124  0.0100 -0.7248 -0.1379
 3901W        W20749   0.372   0.810  11.793 -0.0217 -0.1039  0.2010
 3902W        W20750  15.926   9.644   2.478  0.1900  0.2292 -0.2062
 3903W        W20751  14.190  13.282  16.212  0.1432 -0.1213 -0.0943
 3904W        W20752   3.921  13.540  12.724  0.0025 -0.0269 -0.1316
 3905W        W20753  11.936  16.571  15.074 -0.1090 -0.2980 -0.2153
 3906W        W20754   3.000  16.806   0.846 -0.0204 -0.1256 -0.0449
 3907W        W20755  17.406  11.033   2.047  0.1983 -0.3346 -0.0923
 3908W        W20756  15.011  15.834   5.297  0.0908 -0.2845  0.3047
 3909W        W20757  15.648   4.379  15.149  0.1608 -0.0929  0.1470
 3910W        W20758   2.069   9.531  11.347  0.0378 -0.0786  0.3021
 3911W        W20759  16.736   2.668  12.481  0.1271 -0.0196  0.0595
 3912W        W20760   3.209   7.904   4.200 -0.1004  0.1581  0.2680
 3913W        W20761   8.075  14.290   0.197 -0.1257  0.0143 -0.0430
 3914W        W20762   7.448  16.118  15.053  0.0940  0.4891  0.3281
 3915W        W20763   5.380  17.953   0.768 -0.0942 -0.0665 -0.2995
 3916W        W20764   0.211  11.068   2.324  0.0281 -0.3482 -0.2051
 3917W        W20765   9.068   9.209  12.074  0.0794 -0.0018  0.0301
 3918W        W20766  16.380   0.214  15.717  0.1932 -0.2486  0.0287
 3919W        W20767   8.107   0.633  14.484 -0.0615 -0.1916  0.1108
 3920W        W20768   9.983   1.248  14.608  0.0452  0.2189  0.2000
 3921W        W20769   7.027   4.660  14.980 -0.0324 -0.0951 -0.0932
 3922W        W20770   0.527  12.458   5.751 -0.1238  0.1065 -0.1041
 3923W        W20771   0.426   1.039   4.359  0.0553 -0.3709  0.0268
 3924W        W20772   7.632   6.366  14.500 -0.0897  0.1616  0.1699
 3925W        W20773   9.340   8.721  13.102  0.2520 -0.1500  0.0990
 3926W        W20774  16.701   0.378  14.046  0.3085 -0.1730 -0.1499
 3927W        W20775   1.548   4.551   4.203  0.0090  0.2205 -0.0566
 3928W        W20776   5.400   7.278  11.114 -0.2873 -0.1122 -0.1112
 3929W        W20777  15.208  15.258   1.942 -0.1464 -0.1393  0.3162
 3930W        W20778   3.485  13.724  15.184 -0.2225  0.3215  0.1523
 3931W        W20779   2.264   1.042  12.004 -0.0191 -0.2091  0.2073
 3932W        W20780  14.313   9.315  11.582 -0.0808  0.3148  0.3341
 3933W        W20781   7.650  16.626   3.214  0.1211  0.4845 -0.1815
 3934W        W20782   7.090   1.848   0.612  0.1861 -0.1129 -0.0751
 3935W        W20783   2.669  10.162  13.539 -0.3229 -0.0498  0.0432
 3936W        W20784   4.715  15.017   2.326 -0.1905  0.3520 -0.1237
 3937W        W20785   9.695   9.976  12.048 -0.1389  0.0544  0.0170
 3938W        W20786   0.496   8.821   1.968 -0.0883  0.0532  0.0035
 3939W        W20787   3.858   5.964   5.026 -0.2450 -0.1170 -0.0345
 3940W        W20788  15.490   5.879   1.186  0.0405 -0.2595  0.0824
 3941W        W20789  11.558   0.937   3.918  0.2709 -0.1050  0.3598
 3942W        W20790  17.596   7.219  12.726 -0.1414  0.1666 -0.0556
 3943W        W20791   1.493  15.379  12.327  0.0393 -0.0239  0.3388
 3944W        W20792  16.764  17.751   3.300  0.2619 -0.0998  0.4169
 3945W        W20793  12.114   2.301   3.027 -0.1040  0.2086  0.0523
 3946W        W20794   5.041   4.202  12.779 -0.0239 -0.1532 -0.0248
 3947W        W20795   2.328   6.093   2.074  0.0331 -0.0125 -0.0834
 3948W        W20796   3.240   7.761  14.112 -0.4911 -0.1513  0.0162
 3949W        W20797  15.783   6.404   3.982  0.3191 -0.1160  0.0512
 3950W        W20798  12.825  11.964   4.268  0.0768 -0.0820  0.1208
 3951W        W20799   3.326  14.062   4.871 -0.1104 -0.3422  0.2442
 3952W        W20800  12.480  11.568   5.893  0.2279  0.2161 -0.0594
 3953W        W20801  11.083  16.285  12.945 -0.1700  0.1595  0.2143
 3954W        W20802   6.630  13.795  14.531  0.1195  0.0999  0.1555
 3955W        W20803   6.281  13.062  14.364  0.1323  0.0459  0.1190
 3956W        W20804  12.388  15.769  15.051 -0.4113  0.1630 -0.2147
 3957W        W20805   1.922   5.683  12.992 -0.0595  0.4454  0.0252
 3958W        W20806  18.012  17.656   2.269  0.0372  0.0490  0.1256
 3959W        W20807   5.840   4.799  12.126 -0.1553 -0.0258  0.2180
 3960W        W20808  16.628  14.534   3.589  0.0040  0.1286  0.0369
 3961W        W20809   7.450   2.223  15.628 -0.1179 -0.0015  0.0376
 3962W        W20810   3.051  15.941   4.586  0.1951 -0.2992 -0.0118
 3963W        W20811   6.479  10.032   4.464  0.0558  0.1701  0.3220
 3964W        W20812   8.436  11.653   3.603  0.3359  0.0817  0.0943
 3965W        W20813   2.832  12.946   3.681 -0.0491 -0.1198  0.0129
 3966W        W20814  11.373   4.862   5.015  0.0598  0.1551 -0.0373
 3967W        W20815  13.882  15.296  13.521 -0.0493 -0.2932 -0.1674
 3968W        W20816   2.787   1.422   5.413 -0.1959 -0.1414 -0.3317
 3969W        W20817   4.599   6.982  10.969 -0.3026 -0.0386  0.4010
 3970W        W20818  15.781   6.750  16.278 -0.0403  0.0351 -0.3262
 3971W        W20819   7.156  10.656  12.492 -0.0879  0.2877  0.2208
 3972W        W20820   9.239  15.959   3.686 -0.0110 -0.5036  0.0968
 3973W        W20821  17.153   4.219  11.490  0.0603 -0.1899 -0.0031
 3974W        W20822   9.003   0.606   1.174 -0.1257  0.2146  0.2413
 3975W        W20823  18.089   0.067   2.939 -0.3366 -0.0771  0.0627
 3976W        W20824  16.919  13.564   2.093  0.1022 -0.2021 -0.0480
 3977W        W20825   9.450   7.067  14.157  0.3921 -0.0648  0.0963
 3978W        W20826  13.804  11.212  11.527  0.2901  0.0266 -0.1274
 3979W        W20827   5.981   7.696  14.165  0.0258  0.2223 -0.0343
 3980W        W20828   7.934  13.401   0.351  0.1991 -0.1186  0.0300
 3981W        W20829  13.073  11.162   1.974  0.2423  0.2087  0.4601
 3982W        W20830  12.684  10.679   4.700  0.2113  0.1300 -0.3890
 3983W        W20831  13.480   0.420   3.343 -0.1889  0.1176 -0.0825
 3984W        W20832  11.848   8.944  15.788  0.0959  0.0241  0.0285
 3985W        W20833   5.714   4.734   3.485 -0.0033  0.1774 -0.1050
 3986W        W20834   0.960  17.723  14.979 -0.3780  0.0364 -0.0413
 3987W        W20835   5.584   3.929  14.638  0.0315 -0.0919  0.1128
 3988W        W20836   3.650   3.864  15.334 -0.0018 -0.1668  0.1672
 3989W        W20837   5.931   5.877  11.072  0.2730  0.0597  0.0052
 3990W        W20838   0.897   3.818  16.188 -0.3420  0.5803 -0.1336
 3991W        W20839   7.090   1.863   3.818  0.1239 -0.1419 -0.1936
 3992W        W20840  13.961   2.855  14.856  0.0140 -0.0809 -0.1133
 3993W        W20841   5.982  16.991  14.729  0.0212 -0.2112  0.1471
 3994W        W20842   7.561   0.873  12.905 -0.0088 -0.0018  0.1976
 3995W        W20843   9.537  16.265  14.387 -0.0736 -0.1560  0.2002
 3996W        W20844  12.597   9.030  14.626  0.3267 -0.0459  0.1523
 3997W        W20845   5.842  13.816  13.594 -0.0437 -0.1952 -0.2273
 3998W        W20846   3.203  12.718   4.785  0.1086  0.1831 -0.0541
 3999W        W20847  11.485   4.405   2.808 -0.3769 -0.0338 -0.1328
 4000W        W20848   8.990   8.742  13.465  0.0523 -0.0416 -0.0441
 4001W        W20849   4.173   5.838  15.641 -0.2794 -0.0598 -0.3593
 4002W        W20850  13.045   0.507   2.721  0.0713  0.3563 -0.1078
 4003W        W20851   8.734  12.811   1.079 -0.1479 -0.0175  0.1522
 4004W        W20852   1.097   2.799   0.161  0.2362 -0.0977 -0.1187
 4005W        W20853   7.326   0.954   2.961  0.0756  0.2541  0.0128
 4006W        W20854   9.761   6.083  16.259  0.1210  0.0328  0.0763
 4007W        W20855   8.868   9.169  12.622  0.2581  0.0310 -0.1539
 4008W        W20856  15.697  10.649  12.227  0.1386 -0.3583  0.1226
 4009W        W20857  16.447   8.613   5.180 -0.0292 -0.2195  0.0428
 4010W        W20858  13.477   2.016  11.617 -0.2201 -0.3741 -0.0968
 4011W        W20859   0.762   9.987  14.780  0.1122  0.2133  0.1523
 4012W        W20860  12.109   8.260  11.642  0.0768  0.0215 -0.1455
 4013W        W20861   3.964   9.156   3.570  0.0801  0.2442  0.0015
 4014W        W20862  13.850   9.440   4.454  0.1746 -0.1016  0.1520
 4015W        W20863   3.368  16.231  15.711  0.1828 -0.0226 -0.3242
 4016W        W20864  13.930  18.048   0.886 -0.1693  0.1229 -0.6489
 4017W        W20865   0.254  16.832  13.606  0.1211  0.2508 -0.0221
 4018W        W20866   9.637  10.150   1.043 -0.0427 -0.1837  0.1319
 4019W        W20867   6.341   5.290   2.070 -0.1979 -0.1785 -0.2000
 4020W        W20868  13.909   3.080   0.817  0.2465 -0.2654  0.1332
 4021W        W20869   6.458   9.175   0.449  0.1212  0.0097 -0.0449
 4022W        W20870   9.162   5.899   3.058 -0.1669 -0.1372 -0.1433
 4023W        W20871   5.279   0.125  16.219  0.2228  0.0345 -0.0758
 4024W        W20872  12.530  17.488  16.222 -0.2262 -0.0528 -0.0760
 4025W        W20873   1.731   0.554   0.655 -0.0615 -0.3121 -0.4072
 4026W        W20874   3.947  17.425   3.416 -0.2125  0.1310  0.1828
 4027W        W20875  14.919   6.987   5.820  0.1035  0.1137  0.1323
 4028W        W20876   9.872  15.040  13.587  0.1270  0.0015  0.1775
 4029W        W20877   8.133   6.955  13.956  0.2007  0.2785  0.3648
 4030W        W20878   4.858   8.500  14.056  0.1571  0.2008 -0.0159
 4031W        W20879   3.217   0.854  11.799  0.2139 -0.1568  0.1529
 4032W        W20880  13.039  15.066   1.680  0.0570  0.0052  0.2715
 4033W        W20881   0.400  17.325  13.900  0.0126 -0.2221  0.0110
 4034W        W20882   1.254   6.109   3.025 -0.0611  0.2148  0.0326
 4035W        W20883   8.668   9.240   1.812 -0.1870  0.1764  0.0306
 4036W        W20884   3.978   5.616   2.803  0.1922 -0.1068  0.1644
 4037W        W20885   0.321  16.716   3.835  0.1816  0.0297  0.0259
 4038W        W20886   4.404  14.162  15.305 -0.0332 -0.0366 -0.1031
 4039W        W20887  12.398   3.668   0.008 -0.1936 -0.1950  0.0731
 4040W        W20888  17.064   4.379   3.149 -0.1941 -0.0279 -0.2031
 4041W        W20889  12.050  12.489  10.703 -0.2416  0.1225 -0.0969
 4042W        W20890  17.884   1.968  15.851 -0.3692 -0.1158  0.0031
 4043W        W20891   3.679   0.197   2.243 -0.0502 -0.1821  0.2974
 4044W        W20892   3.339   9.644  14.316  0.1957  0.0194  0.0876
 4045W        W20893  16.232  14.637   4.586  0.0328  0.0653 -0.0992
 4046W        W20894   6.004  15.407   4.096 -0.0179  0.1771  0.5011
 4047W        W20895   4.079  18.081  11.575 -0.0625 -0.3221  0.0310
 4048W        W20896   4.903   9.144   1.320 -0.3584  0.3413 -0.1372
 4049W        W20897   4.697  10.244   5.004 -0.2538 -0.1712  0.2096
 4050W        W20898  13.336   3.530  13.468  0.2913  0.3338 -0.0182
 4051W        W20899   9.730   0.170   1.934 -0.2166  0.0264  0.4218
 4052W        W20900  16.235  11.753  12.380 -0.2150  0.2502  0.2153
 4053W        W20901  15.355  16.103  11.888 -0.1122 -0.0355  0.0584
 4054W        W20902  10.749   6.000  13.310  0.0205  0.0672 -0.3923
 4055W        W20903   4.736   4.343  14.524 -0.1574  0.2301 -0.0530
 4056W        W20904  17.261   7.014  11.528  0.0703  0.2781  0.2015
 4057W        W20905   9.792   4.082   1.167  0.0636 -0.2318 -0.1339
 4058W        W20906   1.776   5.258   3.099 -0.3100  0.0921 -0.3059
 4059W        W20907   9.359   4.705  12.952 -0.0789  0.2392 -0.3254
 4060W        W20908   8.517   1.068   0.623  0.3102  0.1664  0.0381
 4061W        W20909   6.351   0.184  15.482 -0.0230 -0.2450  0.0527
 4062W        W20910   4.182  17.024  16.287 -0.0054  0.0813  0.1366
 4063W        W20911  12.999   0.582   5.049  0.0608  0.0955 -0.0852
 4064W        W20912   8.977   1.197  13.527  0.1183 -0.2528 -0.2252
 4065W        W20913   9.113   5.656   2.134  0.0630  0.1355  0.3006
 4066W        W20914   9.786   9.666   3.062  0.0307  0.0572  0.1317
 4067W        W20915   9.648   9.874   1.482 -0.2032  0.2515 -0.0672
 4068W        W20916   0.822   6.220   3.367 -0.0042  0.2099 -0.2265
 4069W        W20917   4.696   5.535   4.136 -0.0527  0.2126  0.1857
 4070W        W20918  15.953   3.592   3.952  0.2968  0.2903  0.1097
 4071W        W20919   6.365   3.807   1.413  0.1412 -0.0273  0.0581
 4072W        W20920   9.227   3.652  11.864 -0.0410  0.1318  0.0262
 4073W        W20921   0.197  14.653   2.867  0.2146  0.1328 -0.3109
 4074W        W20922   1.767   3.974   4.749  0.1271  0.3011 -0.0358
 4075W        W20923  15.356  18.021  11.612  0.0850 -0.0546  0.1097
 4076W        W20924   8.843  16.158  11.809 -0.0121 -0.0677 -0.0067
 4077W        W20925  12.492   7.605  12.003  0.0510 -0.1454 -0.2254
 4078W        W20926  12.499  14.655  12.099 -0.4701 -0.0843 -0.0890
 4079W        W20927  11.834   3.676  11.680 -0.2933 -0.2694 -0.0814
 4080W        W20928   9.401   4.375   2.408  0.0262  0.0360  0.0991
 4081W        W20929   6.893  10.723   2.434 -0.0830 -0.1072  0.1891
 4082W        W20930   5.939  13.250  12.241 -0.4495  0.2862  0.0796
 4083W        W20931   6.923  10.552  13.796 -0.2402 -0.2333  0.1193
 4084W        W20932   3.681  17.435  11.501 -0.1690 -0.0164 -0.0266
 4085W        W20933   4.912  17.865   0.675  0.0560  0.1760  0.0904
 4086W        W20934   0.270   4.850   2.026 -0.0713  0.0872  0.1535
 4087W        W20935   9.645   5.871   2.951  0.2666 -0.1320 -0.0026
 4088W        W20936   9.781   3.600   3.301 -0.0942 -0.1017 -0.0371
 4089W        W20937   9.595  17.669  13.808  0.0785 -0.0848 -0.0997
 4090W        W20938  11.932  16.619   1.565 -0.0461 -0.0561 -0.2221
 4091W        W20939  12.974  16.299   1.933  0.1114 -0.1034  0.1325
 4092W        W20940  17.303   6.676  13.228  0.1419  0.0357 -0.1038
 4093W        W20941   7.282  13.778  14.629 -0.0159  0.0935 -0.1333
 4094W        W20942  16.673   4.397  15.001 -0.0962  0.1663 -0.0284
 4095W        W20943   4.846  14.828   4.406 -0.3589  0.1285  0.2217
 4096W        W20944  11.133   8.461  13.983 -0.2360 -0.0942  0.1387
 4097W        W20945  11.884  10.622   3.421  0.0296 -0.2145  0.0396
 4098W        W20946  12.216  16.484  13.617 -0.1613  0.0792 -0.1878
 4099W        W20947   4.064  11.231  11.420 -0.1529  0.1529  0.0598
 4100W        W20948   0.659  17.114   3.741  0.0333  0.0891 -0.0910
 4101W        W20949   1.428   4.890  14.282 -0.1412  0.1101 -0.0587
 4102W        W20950   7.976   8.760   4.646 -0.1855 -0.0683  0.2519
 4103W        W20951  13.133   3.542   2.265 -0.0290 -0.0317 -0.1531
 4104W        W20952  10.622   1.286  12.665  0.0412 -0.2597 -0.2081
 4105W        W20953   3.627  17.115   3.799 -0.1313  0.2555 -0.2542
 4106W        W20954   2.778  17.311   1.457  0.4136 -0.1811 -0.0475
 4107W        W20955  17.547  15.763   0.702 -0.4023  0.4273 -0.1240
 4108W        W20956  15.326   1.941  15.661  0.1451 -0.0771  0.2343
 4109W        W20957   6.659   7.609   4.946  0.0198 -0.0956  0.3403
 4110W        W20958  16.927  13.878  11.398  0.1467 -0.2743 -0.4816
 4111W        W20959   8.617  10.619   4.198 -0.1853 -0.1643 -0.2887
 4112W        W20960  11.171   0.471  14.757  0.0127  0.1479  0.1089
 4113W        W20961   3.301  12.601   0.395  0.0687 -0.1374  0.3878
 4114W        W20962   2.979  13.138   4.634 -0.3120  0.2019 -0.0142
 4115W        W20963  15.626   6.902   3.217  0.3203  0.0551 -0.1007
 4116W        W20964  16.833  11.851  15.948 -0.2095  0.1728  0.3798
 4117W        W20965   5.761   9.966   4.064  0.0274  0.1830 -0.0795
 4118W        W20966  14.461   4.501   4.129  0.1422  0.1957 -0.2475
 4119W        W20967   0.350   7.613  12.233  0.0161  0.2097 -0.0528
 4120W        W20968   7.887  15.530  14.860 -0.1563  0.0096  0.2271
 4121W        W20969  16.363  16.806   3.675  0.0625 -0.2479  0.1232
 4122W        W20970  13.312  12.842  13.389 -0.1159 -0.0292 -0.1792
 4123W        W20971   3.017   6.957  13.001 -0.2960  0.2938  0.0098
 4124W        W20972  17.968   2.491  14.322 -0.1923  0.1393 -0.1528
 4125W        W20973  17.841   1.259   1.404 -0.1564  0.0120  0.2700
 4126W        W20974  16.572  11.274  15.315 -0.2235 -0.2538 -0.1705
 4127W        W20975  12.234  12.038  11.412 -0.2394 -0.2569 -0.1893
 4128W        W20976   6.835  15.131   4.513  0.0901 -0.0891 -0.2180
 4129W        W20977  14.421  15.457  14.103 -0.0235  0.0242  0.3654
 4130W        W20978  10.706   7.947  13.025 -0.0664  0.1473 -0.3071
 4131W        W20979  11.181  16.342  12.184 -0.1396 -0.0315  0.1520
 4132W        W20980   6.189   6.193  10.784  0.0374 -0.2497 -0.3709
 4133W        W20981  10.918  10.143  12.315  0.0585 -0.0741 -0.2010
 4134W        W20982   1.838   2.289  15.958 -0.0902  0.3251  0.1999
 4135W        W20983   1.452  13.260  13.448 -0.0489 -0.1869 -0.5409
 4136W        W20984   9.365   1.792  14.103 -0.0493 -0.2140  0.1354
 4137W        W20985  16.573   9.975   0.817 -0.0950  0.0682  0.1610
 4138W        W20986   4.213  16.020  13.008  0.0534  0.2294 -0.2737
 4139W        W20987  12.581   4.735   3.474 -0.3996 -0.3851 -0.0133
 4140W        W20988   2.165  16.311   1.723 -0.0380 -0.2250  0.0661
 4141W        W20989  15.990   6.727  14.784  0.1697  0.2452 -0.0772
 4142W        W20990  13.906  11.706  12.325  0.0193 -0.2050  0.2368
 4143W        W20991   9.437  13.634  12.249  0.2171  0.0181  0.1005
 4144W        W20992   6.838   8.262  15.277  0.0163 -0.1269 -0.1615
 4145W        W20993   7.998   7.929  14.923  0.1861 -0.1140  0.0982
 4146W        W20994   7.849  15.761   3.612  0.2825  0.1827 -0.4961
 4147W        W20995   1.568  12.172   3.910 -0.2006  0.1482  0.1936
 4148W        W20996   3.123  13.537  11.243 -0.0376  0.1645  0.1941
 4149W        W20997  14.959   8.441   4.829 -0.3290 -0.0551 -0.1421
 4150W        W20998  14.582  13.625   4.248  0.0089  0.0244 -0.1124
 4151W        W20999   3.372  14.926  12.516  0.1164 -0.2949 -0.1849
 4152W        W21000   7.728  10.613  12.303 -0.0407 -0.1098 -0.0268
 4153W        W21001  13.664  15.662   2.144  0.0634 -0.2587  0.2397
 4154W        W21002   9.785  13.298   3.867  0.2312 -0.1415  0.1226
 4155W        W21003  13.620  13.512   2.984 -0.1641 -0.0937  0.2787
 4156W        W21004  15.025  11.262  15.262 -0.1975  0.0971 -0.3585
 4157W        W21005   4.071   2.412   4.868  0.2534 -0.0387  0.3490
 4158W        W21006  12.132   2.200  11.831  0.1847  0.1130 -0.0214
 4159W        W21007  12.075  11.330   4.646 -0.3581  0.0541 -0.0832
 4160W        W21008   6.492  18.019   5.443  0.0613  0.1353 -0.1209
 4161W        W21009   1.298  12.787   3.045 -0.1302 -0.0834 -0.2453
 4162W        W21010   1.102  11.028   1.477 -0.0757 -0.0854 -0.2671
 4163W        W21011   0.133  11.010  16.121 -0.0609  0.0929  0.1629
 4164W        W21012  10.203   6.466  15.056 -0.0716 -0.0161 -0.1913
 4165W        W21013  16.513   4.283  10.639  0.0617  0.2981 -0.0964
 4166W        W21014   0.711   7.981  12.484  0.1023 -0.1847  0.2393
 4167W        W21015  17.444   3.109   3.437  0.2854  0.1308 -0.1833
 4168W        W21016  13.507   1.935   2.711  0.2069 -0.2622 -0.2452
 4169W        W21017   7.010  12.368   3.139 -0.3202 -0.2294 -0.1445
 4170W        W21018   2.967   2.507   1.921  0.2257  0.2335 -0.0297
 4171W        W21019   0.524  13.026  12.761  0.0810 -0.3787 -0.0105
 4172W        W21020  15.996   8.667   0.605 -0.0529 -0.2449  0.3257
 4173W        W21021   5.989   7.547   5.687 -0.0455  0.1189 -0.0114
 4174W        W21022   6.675   9.255   5.736 -0.1289  0.1684  0.2345
 4175W        W21023  13.209  16.215  14.869 -0.0733  0.0958 -0.1188
 4176W        W21024  13.473   4.605   1.501 -0.3980 -0.0579  0.1231
 4177W        W21025  16.896   8.552   4.835 -0.4490  0.4267 -0.1161
 4178W        W21026  10.309   3.661  12.080 -0.0370 -0.1537  0.0182
 4179W        W21027  14.648  11.662   1.375 -0.1059  0.1759 -0.2023
 4180W        W21028   6.344   9.768  12.062 -0.0389 -0.1734  0.2719
 4181W        W21029   7.536   7.864  14.714  0.2283  0.0280  0.0847
 4182W        W21030   0.513   9.878   3.315  0.1291 -0.2069 -0.0524
 4183W        W21031   9.839   3.106   3.141  0.0410  0.0148 -0.0260
 4184W        W21032  12.453   8.749  13.485 -0.2527 -0.0374 -0.2066
 4185W        W21033  11.040   7.114   4.904 -0.3689 -0.2390  0.4290
 4186W        W21034   7.715   1.844  14.320  0.1971  0.1997 -0.0224
 4187W        W21035   1.009   6.645   3.179 -0.2497  0.1074 -0.0387
 4188W        W21036  15.344  13.112  16.014 -0.3048 -0.0696  0.2338
 4189W        W21037  11.558   4.224  13.827 -0.0389 -0.2590  0.1816
 4190W        W21038  15.386  10.760  14.284 -0.0417 -0.1966  0.0086
 4191W        W21039  14.876  11.304   0.694 -0.3648  0.0664 -0.2479
 4192W        W21040  13.238   3.148  15.837 -0.1193  0.0957 -0.2184
 4193W        W21041  16.710  11.599   4.917 -0.2017 -0.3451 -0.2368
 4194W        W21042   1.730   9.569  13.774 -0.1961  0.0427 -0.3108
 4195W        W21043   8.845   8.312   1.618  0.1582  0.0367 -0.1037
 4196W        W21044   2.583  11.333  14.442 -0.2217  0.1117 -0.0469
 4197W        W21045   9.240   5.330   4.941  0.2856  0.0027  0.0205
 4198W        W21046   4.630   9.039   5.232 -0.0351  0.0089 -0.1033
 4199W        W21047   1.182  13.088   4.893 -0.1217  0.0022  0.0162
 4200W        W21048   4.391  15.163   1.466 -0.0796  0.2088 -0.2621
 4201W        W21049   4.665  12.419   0.705  0.2883  0.1304  0.1626
 4202W        W21050   8.299   1.562   1.909 -0.3081 -0.3094  0.1126
 4203W        W21051  18.040   8.318  13.975  0.3751  0.1448 -0.1015
 4204W        W21052   0.395   0.717   1.546  0.0828  0.0554  0.1373
 4205W        W21053   5.110   1.817   2.800  0.0799 -0.0242 -0.3514
 4206W        W21054  10.487   4.611  15.326  0.0246  0.0591  0.2249
 4207W        W21055  13.350   1.223   2.266 -0.2807  0.5119  0.0253
 4208W        W21056   2.376  16.762  10.750 -0.2404 -0.0987 -0.0618
 4209W        W21057   1.054  14.737   5.954 -0.1036  0.0544  0.2328
 4210W        W21058  18.088  14.626  15.317  0.1646  0.2246 -0.0513
 4211W        W21059   0.265   4.893   3.114  0.0759 -0.1799  0.0483
 4212W        W21060   5.523   2.517  13.298  0.1163  0.2244  0.0610
 4213W        W21061   7.694  10.986  13.460  0.2859 -0.1541 -0.1480
 4214W        W21062   2.893   6.919  11.813 -0.1140  0.1423  0.1092
 4215W        W21063  11.540   9.698   3.076 -0.3921 -0.2843  0.1305
 4216W        W21064  13.291  16.423   1.562 -0.2418 -0.0662 -0.0066
 4217W        W21065   3.685   7.269   4.356  0.1295 -0.3733 -0.2460
 4218W        W21066   7.628   2.112  13.877 -0.0471 -0.1209 -0.2204
 4219W        W21067  17.330   6.227   5.032  0.0695  0.0565  0.2367
 4220W        W21068  13.665   4.678  12.714  0.0754  0.0218 -0.0673
 4221W        W21069   4.845  17.343   0.899  0.0497 -0.5391  0.1365
 4222W        W21070  16.347  12.288  12.464 -0.0544 -0.2172 -0.2885
 4223W        W21071   8.680   2.885   3.311 -0.1632  0.1527  0.1072
 4224W        W21072  14.026   4.635  10.289 -0.1236 -0.1753  0.2076
 4225W        W21073   4.486  14.009   6.028  0.1998  0.2378 -0.1705
 4226W        W21074   0.089  12.893  14.963 -0.3118  0.1422 -0.1701
 4227W        W21075   4.670  14.375  16.154 -0.1113 -0.0749 -0.0683
 4228W        W21076  10.977   9.247   2.602 -0.1542 -0.0840  0.0936
 4229W        W21077   3.753  10.647   2.110 -0.2917  0.3435  0.1166
 4230W        W21078   3.579  15.101  13.813 -0.1929  0.1453 -0.2769
 4231W        W21079   7.755  16.037   2.764 -0.2636 -0.3299  0.1447
 4232W        W21080  14.844   1.371   1.832  0.4454 -0.2359 -0.0487
 4233W        W21081   8.977   2.185   1.870  0.0065  0.3179  0.0480
 4234W        W21082  15.474  17.268   4.002  0.1962  0.0985  0.4207
 4235W        W21083   8.736  16.461  12.945 -0.1362  0.1392  0.1866
 4236W        W21084   8.740  15.161   0.088  0.5268 -0.0655  0.0380
 4237W        W21085  14.793   7.699  11.762  0.1481  0.2753  0.0610
 4238W        W21086   6.988   6.421  13.518 -0.1119 -0.0758  0.2292
 4239W        W21087   5.729   5.860  14.561  0.1381  0.2138  0.0405
 4240W        W21088   3.856   2.931  14.056 -0.1639  0.0691  0.0890
 4241W        W21089   1.595   3.499   2.758  0.2267  0.0716 -0.2359
 4242W        W21090  11.602   9.457  11.090  0.1092  0.1732 -0.3801
 4243W        W21091  14.721  13.451   3.724 -0.0328 -0.0152 -0.1534
 4244W        W21092   9.093   3.741   1.559 -0.3908 -0.0494  0.0832
 4245W        W21093  13.019  16.808   0.752 -0.3373  0.1336 -0.0566
 4246W        W21094  14.902   9.235  13.797 -0.1612 -0.2169 -0.0272
 4247W        W21095  13.523   6.436   3.764 -0.1029  0.1685  0.1383
 4248W        W21096  13.540   1.504  12.541  0.1764  0.0421  0.0197
 4249W        W21097  15.370  13.145  14.600 -0.1070  0.2524  0.1459
 4250W        W21098  17.012  10.517  15.928 -0.4167 -0.3405 -0.2739
 4251W        W21099   3.241  11.008   0.882  0.0563  0.0006  0.3729
 4252W        W21100  10.400   1.553  13.561 -0.1049  0.1034  0.1198
 4253W        W21101  14.430   4.209   0.283 -0.0723 -0.1754  0.0004
 4254W        W21102   0.251   4.537  13.785  0.2334 -0.0341 -0.3691
 4255W        W21103   0.920  13.593   5.466  0.0622 -0.1051 -0.3286
 4256W        W21104   5.316  13.081  13.813  0.0746 -0.0742 -0.1711
 4257W        W21105   7.447  17.479   0.690 -0.0678 -0.0469 -0.1303
 4258W        W21106   1.200   3.424   2.447 -0.1196 -0.0457 -0.0097
 4259W        W21107   1.927  17.579  16.085  0.1417 -0.1339 -0.1203
 4260W        W21108  14.953   7.228  13.897  0.2564  0.0489 -0.0614
 4261W        W21109  10.907   9.369  12.931 -0.2506 -0.0099  0.0771
 4262W        W21110   3.836   4.074  10.197  0.3174 -0.1481 -0.2604
 4263W        W21111   0.538   7.794   1.674  0.1480 -0.3059  0.3920
 4264W        W21112   9.584   2.305   0.576  0.0255 -0.0730 -0.2565
 4265W        W21113  17.310   0.808  11.837 -0.0584 -0.3471 -0.1269
 4266W        W21114   0.053  18.008   1.951 -0.0456  0.3339 -0.3215
 4267W        W21115   1.697  14.598  13.830  0.0245 -0.0209  0.1065
 4268W        W21116   3.403  17.066  14.557  0.1302 -0.2297 -0.0582
 4269W        W21117  17.317  15.680   5.463 -0.0875  0.0057  0.0713
 4270W        W21118   5.307  11.971  12.555  0.1573 -0.3182  0.0594
 4271W        W21119   7.798   4.259   3.820 -0.0673  0.2099 -0.0250
 4272W        W21120  11.876  11.781   4.400  0.0080  0.0259  0.2251
 4273W        W21121  12.851  11.915  13.964 -0.2908  0.1019 -0.0889
 4274W        W21122  16.771   1.037   3.520  0.0881  0.1077  0.1438
 4275W        W21123  16.782   5.503   0.915  0.0994 -0.0754 -0.0581
 4276W        W21124  17.558   5.526   4.165  0.1937  0.3870  0.1409
 4277W        W21125  14.102   9.760   2.315  0.1440 -0.0150 -0.1247
 4278W        W21126  11.214  14.091   2.356 -0.2713 -0.4262  0.2695
 4279W        W21127  10.534  15.280   0.303  0.0414 -0.2428 -0.2564
 4280W        W21128   5.988  15.437  15.792 -0.0647  0.0901  0.0055
 4281W        W21129   3.558   3.527  13.375 -0.2555  0.1293 -0.0417
 4282W        W21130   7.268  16.131  14.503  0.0370 -0.1166  0.0506
 4283W        W21131   9.499  15.482   5.216  0.0607 -0.1105 -0.1393
 4284W        W21132   7.986  16.107   3.234 -0.0314 -0.0062 -0.1097
 4285W        W21133   8.510  15.697  13.790  0.0877  0.3342 -0.0899
 4286W        W21134  15.658   1.677  14.981 -0.0965  0.3425  0.0697
 4287W        W21135   6.719  14.632   0.590 -0.0487 -0.0638  0.0127
 4288W        W21136   2.337   4.763  15.750 -0.0814 -0.0357 -0.0298
 4289W        W21137   2.116   8.798   1.939 -0.0226 -0.3347  0.0414
 4290W        W21138   7.241   2.817   2.233  0.0666 -0.0631 -0.1046
 4291W        W21139  14.559  17.531  11.955  0.0220 -0.1658  0.2932
 4292W        W21140   4.569  15.631  12.882  0.2933 -0.4847  0.1870
 4293W        W21141  17.101  10.134   4.374 -0.2387 -0.0338 -0.0748
 4294W        W21142  12.610   5.438   4.641 -0.1727 -0.1607  0.1381
 4295W        W21143  12.132   0.153  16.157 -0.0158  0.0604 -0.1225
 4296W        W21144   1.218   3.335   4.175 -0.0712 -0.0804  0.0475
 4297W        W21145   1.731  16.472  13.228  0.2439  0.0899 -0.1776
 4298W        W21146   3.617   9.847   2.023  0.1450  0.0916  0.3499
 4299W        W21147  16.947  10.166  13.343  0.2241  0.1213  0.2326
 4300W        W21148  12.688  10.108   4.828  0.1988  0.1292  0.3185
 4301W        W21149  17.156   1.955  14.554  0.0019 -0.0318  0.0522
 4302W        W21150  13.861  10.451   4.659 -0.1038 -0.0471  0.1414
 4303W        W21151   9.932   0.702   1.886 -0.0462  0.0052 -0.0166
 4304W        W21152  12.545  12.725   2.891  0.2241 -0.2307  0.2079
 4305W        W21153   6.151  17.035  14.185 -0.0674 -0.3712 -0.1703
 4306W        W21154   9.521   4.951  11.025 -0.1534  0.0390 -0.1291
 4307W        W21155  17.216   7.123  14.740 -0.0819 -0.0179  0.0855
 4308W        W21156  12.745   3.879  16.050 -0.2409  0.3298  0.0766
 4309W        W21157  12.992  10.357   4.417 -0.3415 -0.1679  0.0892
 4310W        W21158   1.127  16.679  14.138 -0.0931 -0.1624 -0.2849
 4311W        W21159   3.653   8.957  11.170 -0.1848  0.0899 -0.0254
 4312W        W21160  16.409  11.862  14.141 -0.2145 -0.0134  0.0568
 4313W        W21161   5.330   3.050   3.613  0.0094 -0.1301  0.0829
 4314W        W21162   4.129   9.084   4.541  0.0855 -0.3372 -0.2479
 4315W        W21163   7.975   4.472  15.095  0.0315  0.0767  0.3149
 4316W        W21164  11.340   6.985  12.210 -0.0088 -0.0634 -0.1765
 4317W        W21165  12.015   9.758  13.878 -0.4026  0.2728  0.0840
 4318W        W21166  12.554   6.282   5.058 -0.0226 -0.2639  0.2046
 4319W        W21167  17.668   3.785   1.020  0.1232 -0.2171 -0.2316
 4320W        W21168   7.132   2.247   5.749 -0.0929 -0.0058 -0.0351
 4321W        W21169  11.419   8.114   2.235  0.3656  0.0186  0.0070
 4322W        W21170  17.648   3.100   2.047 -0.1055 -0.0205  0.1677
 4323W        W21171  10.783   8.822  16.246  0.2844  0.0770  0.2108
 4324W        W21172  11.772   9.285  11.956  0.1862  0.1803  0.2630
 4325W        W21173   0.644  16.547  13.440  0.2075  0.1294  0.1121
 4326W        W21174   5.882  10.039   3.578 -0.3899 -0.3393  0.2381
 4327W        W21175  17.266   5.184  11.696 -0.0777 -0.0037 -0.2114
 4328W        W21176  17.967   7.330   2.409  0.1010  0.0505  0.2264
 4329W        W21177   6.440  11.080   2.623 -0.2679 -0.0231  0.0006
 4330W        W21178  16.808   7.231  14.479 -0.0822 -0.1537  0.0428
 4331W        W21179  16.500  15.549  15.368 -0.1201 -0.5544 -0.1281
 4332W        W21180   9.170  10.712  12.194  0.6159  0.0288  0.0910
 4333W        W21181  17.217   5.922   1.569  0.2193  0.2735  0.1045
 4334W        W21182  10.821   1.443   2.556  0.1666  0.0822  0.0511
 4335W        W21183   2.465   0.442   2.313  0.2899  0.4577  0.2295
 4336W        W21184   8.124  17.273  12.128 -0.4034  0.1241 -0.1354
 4337W        W21185   5.777  13.676   3.377  0.0271 -0.1524  0.0228
 4338W        W21186   9.088   0.847   2.775 -0.0866  0.2080 -0.0319
 4339W        W21187   8.623   1.553  15.789  0.0971 -0.0864  0.0345
 4340W        W21188   3.581   7.235   2.174  0.0275 -0.2992  0.3048
 4341W        W21189   8.650  17.173   2.753  0.0040 -0.0643 -0.0705
 4342W        W21190  11.554  16.054   1.926  0.0975  0.1826 -0.0941
 4343W        W21191  15.502   5.328  12.031 -0.0508 -0.0637  0.0283
 4344W        W21192  14.518   5.419   0.731 -0.0844 -0.0843  0.2300
 4345W        W21193   7.522  17.694  12.835  0.0723  0.0481  0.4766
 4346W        W21194   3.522   1.552   0.725  0.2388 -0.1816  0.2819
 4347W        W21195   2.316  17.888  15.678 -0.0987  0.0556  0.0151
 4348W        W21196   5.102   4.484   1.532  0.1096  0.1936  0.0836
 4349W        W21197   8.309  11.585  13.237 -0.1254 -0.0769 -0.0193
 4350W        W21198   2.220   1.441  13.578  0.1038 -0.3085  0.0423
 4351W        W21199  12.555   8.133   5.569  0.2032  0.1542 -0.3530
 4352W        W21200   5.918  14.939   4.416 -0.0018 -0.1376  0.1881
 4353W        W21201  10.469  16.217   4.097 -0.0535  0.0799  0.0085
 4354W        W21202  13.118  14.133  12.751 -0.1678  0.0107  0.2117
 4355W        W21203   6.884  11.469  14.164  0.1313 -0.0074 -0.1610
 4356W        W21204  17.289   5.668   2.371 -0.0233 -0.0092  0.1167
 4357W        W21205  10.187  15.628   3.471 -0.1833 -0.0850 -0.2032
 4358W        W21206   9.979   7.188   5.092  0.2876 -0.3686  0.1292
 4359W        W21207   5.620  13.780  14.773 -0.1001  0.0570  0.0375
 4360W        W21208   9.868  17.754   1.515  0.2013 -0.0132  0.1001
 4361W        W21209   7.585  13.931  13.754 -0.2362  0.2112  0.0082
 4362W        W21210  13.764  10.848  15.074  0.1645  0.2962 -0.0126
 4363W        W21211   1.052  14.294   3.384  0.1104  0.0841  0.0529
 4364W        W21212   8.960   5.832  15.530 -0.0052  0.2220 -0.3858
 4365W        W21213   7.445   2.636  12.642 -0.2473 -0.2526  0.0560
 4366W        W21214  14.369  15.785  11.568  0.0269 -0.1068 -0.0375
 4367W        W21215   1.830  11.012  14.945  0.1938  0.0523 -0.0038
 4368W        W21216   6.248  14.529  15.491 -0.1961 -0.2811 -0.1009
 4369W        W21217  17.973  10.285  12.180  0.0082  0.1832  0.0730
 4370W        W21218   0.830  15.244  15.196 -0.1391 -0.0019  0.0609
 4371W        W21219  12.231  11.523   5.365 -0.2754  0.3221  0.3196
 4372W        W21220   3.189   8.312   2.947  0.4827 -0.1871 -0.0698
 4373W        W21221  14.322   0.176   6.249  0.4038 -0.1063  0.2757
 4374W        W21222  15.040  17.407   4.326 -0.0095  0.2199  0.1678
 4375W        W21223  14.313   1.000   1.282  0.0786 -0.1143  0.2907
 4376W        W21224   6.823  15.970   1.963 -0.1752 -0.2459 -0.0256
 4377W        W21225  13.854   0.613  12.844  0.0125  0.1106  0.0151
 4378W        W21226  15.501   3.538  15.548 -0.2772 -0.0460  0.0796
 4379W        W21227   4.961   4.835  10.912 -0.2003  0.1205  0.0226
 4380W        W21228  13.547   6.882   4.432 -0.0338  0.2052  0.0389
 4381W        W21229  15.568  16.725   4.007  0.2008 -0.2456 -0.0584
 4382W        W21230   5.088  15.441   0.700 -0.3359 -0.2817  0.2436
 4383W        W21231  12.713   7.438  14.689  0.1853  0.0665  0.1313
 4384W        W21232   7.028   8.682   2.901  0.1404 -0.2290  0.0135
 4385W        W21233   6.096   2.694   0.414 -0.0839 -0.2275  0.0434
 4386W        W21234  11.774  11.038  14.139  0.3079 -0.1257  0.1777
 4387W        W21235   2.378  10.197   3.980 -0.1193  0.1585 -0.1110
 4388W        W21236  13.387   8.968   5.359 -0.1313 -0.2773 -0.0368
 4389W        W21237   4.434   9.688   0.299 -0.0677  0.2839  0.0073
 4390W        W21238   7.767   4.370  15.500  0.1562 -0.3036 -0.0873
 4391W        W21239  16.430  10.834  15.143 -0.1457  0.0152 -0.3603
 4392W        W21240  12.763   0.165   5.277  0.0170 -0.0309  0.1620
 4393W        W21241  14.732   5.281  13.352  0.0069  0.0810  0.4291
 4394W        W21242   2.152  12.364  15.219  0.1992  0.1943  0.1924
 4395W        W21243  15.605   2.140  15.059  0.3933 -0.0704 -0.2345
 4396W        W21244   7.838  15.072   5.013  0.4902 -0.4113  0.0511
 4397W        W21245   5.041  14.029   5.136  0.3514  0.1674 -0.2203
 4398W        W21246  17.193   0.830  16.008 -0.2328  0.1210  0.1568
 4399W        W21247   2.285  12.234  11.565 -0.3744 -0.0223  0.1006
 4400W        W21248   5.854   3.948   4.771 -0.3485  0.1221  0.0137
 4401W        W21249  12.413  12.863  14.546 -0.1272  0.3223  0.2218
 4402W        W21250   5.287  15.758   2.277 -0.3628 -0.1352 -0.1905
 4403W        W21251  16.132  10.402   3.637 -0.1677 -0.0716  0.3082
 4404W        W21252   5.701   0.488  13.971 -0.1255  0.1377 -0.1492
 4405W        W21253   8.816  16.497  15.004  0.3294  0.0143 -0.2421
 4406W        W21254   6.731  17.414  15.527 -0.1319  0.1351 -0.1612
 4407W        W21255   6.134   3.792   0.548 -0.1152  0.2195  0.0715
 4408W        W21256  11.952   2.342  14.008  0.1547  0.2496  0.2682
 4409W        W21257   0.555  11.651  11.319  0.0590 -0.3298 -0.1838
 4410W        W21258   8.443   8.782  12.777  0.1927 -0.2830  0.1181
 4411W        W21259  10.717   4.505  12.275 -0.4852 -0.0429 -0.1256
 4412W        W21260  12.452   1.957   3.104  0.0506 -0.1766 -0.0129
 4413W        W21261  11.600  16.532   2.202  0.0597  0.1310  0.2019
 4414W        W21262   7.062   5.705  10.680  0.0072 -0.1398 -0.0443
 4415W        W21263   5.834   3.207   4.449 -0.0924  0.0867 -0.1091
 4416W        W21264   3.522  10.020  15.706  0.2858  0.0428  0.1285
 4417W        W21265   0.704  15.368  12.700  0.1054 -0.0257  0.0302
 4418W        W21266  17.215  17.031  13.273  0.0430 -0.0364 -0.2395
 4419W        W21267   9.443   5.568  13.440 -0.2272  0.2376  0.2829
 4420W        W21268   0.754   8.129   0.295 -0.2449  0.1080 -0.0930
 4421W        W21269  13.694   0.556  14.550 -0.1282  0.0155 -0.1445
 4422W        W21270  15.494   0.390  11.809  0.1704  0.2923 -0.0055
 4423W        W21271   2.752  16.262  12.660  0.1035 -0.2458  0.1887
 4424W        W21272   9.405   3.669  13.147 -0.2823  0.1026  0.2048
 4425W        W21273   8.566   9.033   4.846 -0.0815  0.1187  0.0908
 4426W        W21274   0.985  17.014  12.008  0.0723 -0.1111 -0.2547
 4427W        W21275  14.687   8.173   0.890 -0.2180  0.0853  0.2191
 4428W        W21276  17.983  12.099   4.095 -0.1611 -0.1823 -0.0535
 4429W        W21277   6.808   4.262   0.049 -0.0879 -0.0394 -0.1042
 4430W        W21278   4.126   0.251   4.083  0.1171  0.0034 -0.0547
 4431W        W21279   1.653  12.016   0.553 -0.2723 -0.2484  0.0467
 4432W        W21280   5.542  16.271   2.442 -0.1676  0.1399  0.1792
 4433W        W21281  13.059  14.289   0.006  0.2639 -0.0971 -0.0545
 4434W        W21282  11.349   7.079   2.958  0.1036 -0.3175 -0.2806
 4435W        W21283   3.973   2.401   0.666  0.0526 -0.0730 -0.3448
 4436W        W21284  12.159  12.937  12.078  0.2502  0.1119 -0.0527
 4437W        W21285   9.607   9.997  15.913 -0.1197  0.0616 -0.1868
 4438W        W21286  17.308  17.254  12.828  0.2687 -0.1133 -0.1491
 4439W        W21287  12.200   8.403  15.509 -0.1770  0.1801  0.1886
 4440W        W21288   8.445   7.533   4.186  0.0789  0.0217 -0.1046
 4441W        W21289  10.358   0.446  10.980 -0.2528  0.0800  0.6283
 4442W        W21290  17.975  13.481  12.132 -0.3200  0.0904  0.0879
 4443W        W21291   6.605   3.121  15.083  0.4228  0.0653  0.0298
 4444W        W21292   2.058  14.502  16.051  0.2655  0.1958  0.0236
 4445W        W21293  12.621   8.324   0.472 -0.0589  0.1256  0.1097
 4446W        W21294  14.764   4.557  12.705  0.2275 -0.3133  0.4105
 4447W        W21295   4.563  11.493   3.261  0.3207 -0.1366  0.1647
 4448W        W21296  11.450   7.566  11.568  0.0511  0.0386  0.0153
 4449W        W21297   5.120  10.736   3.076  0.0183  0.0718  0.1927
 4450W        W21298  13.511   2.268   1.420 -0.0018  0.2728 -0.0838
 4451W        W21299   1.157  10.524  12.373  0.1162 -0.1237  0.1819
 4452W        W21300   6.805   4.502   1.924  0.3687  0.3282  0.0925
 4453W        W21301   8.866  10.597   4.754  0.2763 -0.2058  0.2539
 4454W        W21302   0.678   2.928   2.155 -0.0837 -0.2408 -0.0005
 4455W        W21303   9.965   7.908   4.250  0.2045  0.3372  0.1206
 4456W        W21304   2.135  17.285  14.557  0.2944  0.4952 -0.0121
 4457W        W21305  15.823   3.651  13.207 -0.0502 -0.1265 -0.2189
 4458W        W21306   6.979   6.449   4.286  0.0360 -0.2583  0.2513
 4459W        W21307   4.850  16.335   1.127 -0.2569 -0.0613 -0.4033
 4460W        W21308  14.219  15.474  11.897 -0.1610 -0.1854 -0.1970
 4461W        W21309   6.454  15.151  13.497  0.1872  0.3117  0.1297
 4462W        W21310   0.309  14.042   3.632  0.1094  0.0364  0.1923
 4463W        W21311   6.284  14.478   1.712 -0.1703  0.5043  0.0780
 4464W        W21312  13.195  11.515   0.432 -0.2235  0.0595  0.1835
 4465W        W21313  10.035  15.925   4.064 -0.1655 -0.1288  0.3127
 4466W        W21314  12.934  11.116   0.376  0.1740 -0.0165 -0.0105
 4467W        W21315  13.411   1.599  15.931 -0.2602 -0.0030  0.0052
 4468W        W21316  11.368  13.093   4.691 -0.1415 -0.3511 -0.2109
 4469W        W21317  17.616   7.047   0.237 -0.2622 -0.1249  0.1748
 4470W        W21318   6.601   4.990  14.926  0.2121  0.1534  0.3693
 4471W        W21319  12.004  11.028   4.264  0.1311 -0.0684  0.0233
 4472W        W21320  10.850   1.118   2.195 -0.1640  0.0380 -0.1904
 4473W        W21321   8.327   0.235  13.366  0.2536  0.0238 -0.1052
 4474W        W21322   7.863   3.160   3.006 -0.1898  0.0910 -0.3029
 4475W        W21323   8.650   4.739  11.419  0.1004 -0.1169  0.0657
 4476W        W21324   3.180   6.014   5.437 -0.0450  0.0296 -0.1843
 4477W        W21325  12.187  16.325  11.413  0.2755  0.0816 -0.0170
 4478W        W21326   5.861  16.195   1.656  0.1884  0.4042  0.0266
 4479W        W21327   5.487   3.638   1.136  0.1590 -0.1504 -0.0947
 4480W        W21328  17.176  11.007  13.106 -0.0239 -0.1580  0.0039
 4481W        W21329   3.349  16.863  15.937 -0.0178 -0.0903  0.0520
 4482W        W21330   7.119  16.014  10.467  0.1766  0.1059 -0.1574
 4483W        W21331   0.681  16.449  15.559 -0.1351 -0.1222 -0.0995
 4484W        W21332   5.869   7.935  16.254  0.2184  0.1199 -0.1231
 4485W        W21333  14.157   9.582  15.772  0.0325  0.3830 -0.2829
 4486W        W21334  17.859   8.311   1.511  0.0729 -0.0778 -0.0082
 4487W        W21335   5.431  12.673   1.251 -0.1875  0.4475  0.2712
 4488W        W21336  14.752  16.167   2.938  0.0199  0.2885  0.1091
 4489W        W21337  16.603   8.518  12.561 -0.0136  0.2962  0.1382
 4490W        W21338  14.187   7.950   4.443 -0.0559 -0.0644 -0.1162
 4491W        W21339   2.056  10.322   0.155 -0.0221 -0.0317  0.0963
 4492W        W21340   2.334   9.846   4.452 -0.2034  0.1845 -0.0939
 4493W        W21341   9.168  10.701  11.675  0.2366  0.0085 -0.3717
 4494W        W21342  11.668  13.109  14.564  0.1572 -0.0048  0.1706
 4495W        W21343  13.133   8.531   1.150  0.1355  0.1232  0.0676
 4496W        W21344   4.846   4.233  16.296  0.0764 -0.0728 -0.0277
 4497W        W21345   7.936  10.910   0.284 -0.0692  0.0390 -0.2574
 4498W        W21346  13.472  17.507  11.796 -0.1754 -0.2272 -0.1860
 4499W        W21347  14.489   6.937  11.707  0.1104  0.0761 -0.1893
 4500W        W21348   2.810   6.041  15.399 -0.3872  0.0003  0.0549
 4501W        W21349   6.547  12.436  12.687  0.1062 -0.0932 -0.0288
 4502W        W21350   6.515  11.751  14.316  0.0085 -0.2297 -0.2251
 4503W        W21351  10.107  12.197   1.838  0.0082  0.3451  0.1276
 4504W        W21352   9.968   8.423  14.579  0.0233  0.0847  0.0752
 4505W        W21353  14.692  17.106   1.067  0.0678  0.0361  0.1216
 4506W        W21354  10.488   6.210  14.520  0.0809 -0.1138 -0.2416
 4507W        W21355   8.144  15.349   4.699 -0.1877  0.0850  0.0650
 4508W        W21356   6.862   7.279   4.517 -0.1723  0.3075  0.0753
 4509W        W21357   8.089  10.067  12.925 -0.0657 -0.1588  0.1928
 4510W        W21358   9.181  13.191   3.133 -0.1703 -0.0363 -0.1316
 4511W        W21359  14.350   1.615  12.919 -0.0997  0.0005  0.1185
 4512W        W21360  11.357   3.391  14.541 -0.0479  0.1816 -0.2268
 4513W        W21361  11.809  17.778   4.518 -0.1214  0.0273 -0.0755
 4514W        W21362   9.874   2.129   4.194  0.1123 -0.0862  0.0100
 4515W        W21363   6.222   6.282  12.717 -0.0774  0.0447 -0.1576
 4516W        W21364  14.214  13.913   4.862  0.7668  0.0833 -0.1230
 4517W        W21365  16.732  17.209  11.636 -0.1566 -0.2630 -0.2547
 4518W        W21366  14.022   5.864   1.679 -0.3550  0.2540  0.0860
 4519W        W21367   9.021  17.513  11.814 -0.2283  0.2155 -0.1878
 4520W        W21368  13.997   4.231  13.142  0.0145 -0.1091  0.1319
 4521W        W21369   8.710  15.023  15.967 -0.1265  0.2148 -0.3282
 4522W        W21370   6.824  11.189  13.289  0.2846  0.0891 -0.0869
 4523W        W21371   5.540  10.488  15.100  0.1718  0.1321 -0.0089
 4524W        W21372   1.406   3.588  12.430 -0.0763 -0.3173  0.0017
 4525W        W21373  16.840  14.335  11.186  0.2460  0.2981  0.2015
 4526W        W21374  16.566   0.279   2.109  0.2643 -0.0532  0.0743
 4527W        W21375   0.373   5.378   4.249 -0.0384  0.0317 -0.0977
 4528W        W21376   7.695  14.602   4.874 -0.0611 -0.0131  0.1632
 4529W        W21377   0.532  13.198   5.775  0.0236 -0.0859 -0.1131
 4530W        W21378   1.217   7.436  11.946  0.2999 -0.3304  0.0040
 4531W        W21379  15.580  13.728   4.553  0.2508 -0.2193  0.2492
 4532W        W21380   0.882  14.678   5.163 -0.3438  0.0480  0.0375
 4533W        W21381   6.126  13.650  13.110 -0.0246  0.0124 -0.2596
 4534W        W21382  11.609   3.430   2.502  0.1352 -0.1318  0.0844
 4535W        W21383   1.565   6.965   5.684  0.2740  0.2349  0.2440
 4536W        W21384   2.426  12.369  16.261 -0.1014 -0.1193 -0.0408
 4537W        W21385   7.622   9.749  12.051  0.0911  0.1077  0.0707
 4538W        W21386   1.658   2.286  12.760  0.2901 -0.0729 -0.2979
 4539W        W21387  16.776  10.752   5.996  0.0064 -0.1390 -0.2743
 4540W        W21388   5.346  11.395   4.638 -0.3109  0.1404  0.2204
 4541W        W21389   8.360   8.495   0.227  0.2724 -0.1197  0.0722
 4542W        W21390  11.127  16.800  13.672  0.0004  0.1479  0.0462
 4543W        W21391  12.555   3.035  13.084  0.1164  0.2201 -0.0373
 4544W        W21392   2.537  14.824  15.569 -0.0901 -0.1589  0.0297
 4545W        W21393  14.869   0.402   3.005 -0.3354  0.0300 -0.2486
 4546W        W21394  14.873  12.575   0.248 -0.1187  0.2602 -0.1323
 4547W        W21395  11.824  17.948  10.245  0.0208 -0.0140  0.2067
 4548W        W21396   3.765   8.106  16.126 -0.1472  0.0770  0.3770
 4549W        W21397  10.518  14.279  12.818 -0.3361 -0.0417 -0.0539
 4550W        W21398  14.098   7.239  13.534 -0.0163 -0.2244 -0.2706
 4551W        W21399   6.794   4.655  12.153  0.2886 -0.0215 -0.3265
 4552W        W21400   1.112  15.696   2.143  0.1361  0.1294 -0.0066
 4553W        W21401   2.633   2.302  12.585 -0.1469 -0.1300  0.0302
 4554W        W21402  14.549  12.233   3.892  0.2182  0.2839  0.0229
 4555W        W21403  12.120  16.132  11.883  0.3824  0.0984 -0.0882
 4556W        W21404   4.040  16.529  12.951 -0.0592 -0.0905 -0.1993
 4557W        W21405  10.309   1.163  13.268  0.0353 -0.0473 -0.0578
 4558W        W21406   3.961  10.920  14.458 -0.0494 -0.2077  0.1121
 4559W        W21407  10.801   8.850   2.951  0.0867  0.1728 -0.3589
 4560W        W21408   9.978   9.069  15.123 -0.0776  0.1936  0.0977
 4561W        W21409  15.465   6.673   3.643  0.0990 -0.0250  0.2472
 4562W        W21410   8.937   8.195   3.089 -0.1312  0.2609  0.1022
 4563W        W21411  11.520   8.470   0.543 -0.1171 -0.2944  0.0016
 4564W        W21412  13.000   7.717   3.692  0.5552 -0.0577  0.0933
 4565W        W21413   1.925  14.314  11.891  0.0480  0.0404 -0.1151
 4566W        W21414   9.032   2.745   4.138 -0.1728 -0.0481 -0.3089
 4567W        W21415   2.390  12.909   2.388 -0.3488  0.0551 -0.1285
 4568W        W21416   0.078  14.704  15.999 -0.1031 -0.1240  0.0871
 4569W        W21417  16.792   6.839  11.537  0.2552  0.2542  0.2072
 4570W        W21418   8.551  12.729   0.232 -0.0952 -0.2523  0.1305
 4571W        W21419   8.899  15.982  13.744  0.2461  0.0292 -0.1267
 4572W        W21420   0.011  12.508   4.843 -0.1127  0.1517  0.3463
 4573W        W21421   3.564   6.684  14.061 -0.1532  0.1494  0.0395
 4574W        W21422  10.898  11.668  15.861 -0.0385  0.2154  0.1430
 4575W        W21423  17.339   8.309  12.116 -0.1942  0.1099  0.2514
 4576W        W21424   0.886   9.409   0.217 -0.1177 -0.0340 -0.3103
 4577W        W21425   2.218  14.648   2.387 -0.7331 -0.0911 -0.1817
 4578W        W21426   7.231  16.502  14.825  0.0046 -0.0189 -0.0759
 4579W        W21427   8.530  11.476  11.789  0.2859  0.0461 -0.3308
 4580W        W21428  15.974   9.260  14.530 -0.1083  0.2010 -0.0055
 4581W        W21429  15.396  15.092   5.860 -0.1247  0.1105  0.0435
 4582W        W21430   9.144   4.953   5.391 -0.1799  0.0466 -0.0046
 4583W        W21431   0.981  13.085   4.450 -0.1347  0.0624  0.1289
 4584W        W21432  17.008   4.434  13.032 -0.0287  0.0627  0.0887
 4585W        W21433   6.881   0.554  15.733  0.1895  0.2139 -0.1720
 4586W        W21434   3.793  11.761   2.784 -0.2423 -0.1815 -0.1544
 4587W        W21435  13.086   0.747   0.439 -0.3220  0.2882 -0.1811
 4588W        W21436  16.918   6.507  14.104 -0.0062  0.2135  0.0238
 4589W        W21437   1.201   5.817   4.422 -0.3301 -0.1695 -0.3059
 4590W        W21438  17.878   5.222  10.002 -0.2387  0.0682  0.1740
 4591W        W21439  15.568  15.851   4.657 -0.0651 -0.2307  0.1856
 4592W        W21440  11.474   0.872   4.634 -0.0410 -0.1713 -0.0037
 4593W        W21441   3.002  10.368   2.798 -0.2353 -0.0270  0.2338
 4594W        W21442   0.691   0.297   0.679 -0.0961 -0.2195  0.2152
 4595W        W21443   2.786  14.272   2.792  0.1141 -0.1909  0.0967
 4596W        W21444   3.219  10.242  14.072  0.1599  0.0944  0.1606
 4597W        W21445   9.333  12.674  12.644  0.2189  0.0414 -0.0084
 4598W        W21446   3.984  13.351  14.023  0.0038 -0.1964 -0.0023
 4599W        W21447  11.703  17.460   3.605 -0.2096  0.0470 -0.0670
 4600W        W21448   1.488   0.399  11.006 -0.2962 -0.2099  0.0379
 4601W        W21449   2.376   9.408  14.976  0.2652 -0.1200  0.0807
 4602W        W21450  17.054   1.933   3.378  0.1051  0.1014  0.0906
 4603W        W21451   2.847   7.184   4.459 -0.2567 -0.2554  0.2641
 4604W        W21452   2.617  18.034  13.383 -0.1282 -0.2029 -0.1190
 4605W        W21453   2.896   9.780  13.757  0.0516  0.2044  0.2560
 4606W        W21454   1.311   1.218  13.286 -0.1941 -0.4510  0.0387
 4607W        W21455   1.147  14.450  13.062 -0.1773  0.1984  0.2448
 4608W        W21456   8.436   1.385   4.141  0.1291  0.5080  0.2238
 4609W        W21457   8.753   2.552   3.707 -0.0800  0.0212  0.1061
 4610W        W21458   1.016   8.314   0.708  0.4629 -0.0468  0.4095
 4611W        W21459   7.873  12.420   3.193  0.0195 -0.1236 -0.0185
 4612W        W21460  11.699  16.347  12.076 -0.1187  0.0335  0.0889
 4613W        W21461   9.588  17.250   2.219  0.0992 -0.4269  0.1541
 4614W        W21462   7.294  11.832  15.729  0.3396  0.0656 -0.0367
 4615W        W21463  13.621   4.946  15.947  0.0791 -0.1507 -0.1306
 4616W        W21464  15.262   4.078  13.905 -0.1613  0.1055  0.0264
 4617W        W21465  12.568  12.807   3.998 -0.0144  0.0822 -0.1465
 4618W        W21466   9.284   7.560  13.094  0.0793 -0.3520  0.0875
 4619W        W21467   6.719  13.452   3.048 -0.0276 -0.0466 -0.0037
 4620W        W21468   8.951   4.039  12.392  0.0294  0.0637 -0.0416
 4621W        W21469  16.178   2.103  13.741  0.0051  0.2223 -0.1304
 4622W        W21470   8.391   4.376  15.852  0.0917 -0.0626 -0.2371
 4623W        W21471  17.714  13.650  15.379  0.2907  0.1298  0.0847
 4624W        W21472  14.918   4.516   1.001  0.0956 -0.4126 -0.0412
 4625W        W21473  13.657  13.086  10.522  0.3070 -0.0494 -0.2405
 4626W        W21474   2.557   0.378  14.453 -0.1302 -0.0575  0.1255
 4627W        W21475   2.557   6.767  13.996  0.0913 -0.0572  0.0971
 4628W        W21476   7.780   0.621   6.164  0.0523 -0.0654 -0.0672
 4629W        W21477   1.542   9.193  15.296  0.1544 -0.1636  0.0684
 4630W        W21478  12.235  14.689   4.397 -0.3372  0.1754 -0.2157
 4631W        W21479   1.120   3.080   2.052  0.0533  0.1294 -0.3625
 4632W        W21480  10.764  15.601  14.495  0.1819 -0.2300 -0.0553
 4633W        W21481   6.129   5.727  13.651 -0.2003 -0.3348  0.2102
 4634W        W21482  10.976  15.711  12.254  0.1437  0.0801  0.0205
 4635W        W21483   6.308   4.706   1.895  0.2137  0.1121  0.1882
 4636W        W21484   7.486   3.617   4.963 -0.2515  0.0066 -0.1265
 4637W        W21485  10.392   2.785   4.147 -0.2451  0.1760 -0.1833
 4638W        W21486   3.372   0.520  15.864 -0.0908 -0.0917 -0.1656
 4639W        W21487  15.821  14.358  14.885  0.2786 -0.0156  0.1174
 4640W        W21488   5.780   6.447  14.662  0.1039  0.1522  0.0715
 4641W        W21489   4.103  10.318  14.533 -0.2911 -0.0741  0.0229
 4642W        W21490   5.268   4.710   1.996  0.1271  0.0744  0.0405
 4643W        W21491   6.845   6.502   0.784 -0.1379  0.2013  0.1154
 4644W        W21492   8.539  10.113   4.610  0.1735  0.6806  0.1133
 4645W        W21493  15.008   0.358  13.835  0.1782  0.2886  0.2655
 4646W        W21494  10.130  13.484   4.300 -0.0436 -0.0459 -0.2082
 4647W        W21495  15.191   7.418  12.306  0.2254  0.0244 -0.0251
 4648W        W21496  17.638  17.072  12.071 -0.0637  0.0748 -0.3204
 4649W        W21497   8.574   5.428   4.869  0.0886 -0.0545 -0.0735
 4650W        W21498  10.258  11.418   0.781  0.1317 -0.0352  0.1163
 4651W        W21499  17.493  14.830  12.748 -0.3286 -0.4463 -0.0696
 4652W        W21500   5.273   1.921  11.857  0.0339 -0.1401 -0.3782
 4653W        W21501  13.797  12.055  15.990 -0.1970 -0.2163 -0.0710
 4654W        W21502   2.662  11.499  12.182  0.1020  0.0004  0.0445
 4655W        W21503  17.907  14.248   4.718  0.0979 -0.2446  0.2962
 4656W        W21504   3.263  12.218  12.232 -0.3790  0.0533  0.0002
 4657W        W21505  17.910   8.819   1.237 -0.0247 -0.2534 -0.2600
 4658W        W21506  17.939  16.254  12.268 -0.0377  0.1548 -0.0103
 4659W        W21507   9.359   2.765   5.148  0.0803  0.2161 -0.0115
 4660W        W21508   3.368   1.758   2.931  0.1141  0.1978 -0.3853
 4661W        W21509  15.898   1.366   3.043  0.2790 -0.0581 -0.0818
 4662W        W21510  15.365   2.479  15.517  0.0317 -0.2689 -0.2775
 4663W        W21511   8.892  10.102  13.638  0.4470 -0.0905 -0.1756
 4664W        W21512  14.635  10.164   1.733 -0.0786 -0.0166 -0.0134
 4665W        W21513   2.019   8.056  12.772  0.0357  0.1195 -0.1816
 4666W        W21514   9.850   6.193   3.376  0.2023 -0.0188  0.3246
 4667W        W21515   8.950   2.355  12.125  0.0913  0.1481 -0.1583
 4668W        W21516   7.108   8.769   2.115  0.0016  0.0311 -0.1237
 4669W        W21517   4.863  14.393  13.452 -0.0570  0.2881  0.1401
 4670W        W21518   7.582  17.080  16.145 -0.2250  0.0356 -0.0186
 4671W        W21519   3.261  10.170   4.261 -0.0075  0.0739 -0.1051
 4672W        W21520  17.240   6.908   4.098  0.1233 -0.3398 -0.0971
 4673W        W21521  10.490  14.171  15.700 -0.0703 -0.3745 -0.1414
 4674W        W21522  14.068   0.318   1.781 -0.3278 -0.0400  0.4657
 4675W        W21523  16.524   6.835   1.387 -0.2061  0.0764 -0.3545
 4676W        W21524   0.959  13.291  11.498 -0.0463 -0.0716  0.1404
 4677W        W21525   9.903   8.419  13.582  0.1820 -0.3018  0.1009
 4678W        W21526   8.857   2.724  14.470  0.1966 -0.3246  0.0288
 4679W        W21527   7.051  13.739  13.539 -0.2214 -0.2147  0.1717
 4680W        W21528  12.444   0.091  15.271  0.2537  0.3028  0.4794
 4681W        W21529  17.405  16.797  13.719  0.3056 -0.2184 -0.1447
 4682W        W21530   5.133   3.179  14.057  0.1543  0.1844  0.1864
 4683W        W21531  13.896   5.569  13.114 -0.1300 -0.1089  0.2644
 4684W        W21532  17.637  16.353  15.656 -0.2534 -0.0105 -0.0924
 4685W        W21533   6.416  13.768   2.132  0.2357 -0.1745  0.0013
 4686W        W21534   9.364   6.499   1.806 -0.2721  0.0081  0.1216
 4687W        W21535  17.809  11.145  11.088  0.2679 -0.0024 -0.0136
 4688W        W21536   8.178   6.601  13.445 -0.0361 -0.1194  0.1617
 4689W        W21537  11.461  11.891  14.214  0.0309 -0.0823  0.1234
 4690W        W21538  13.845  13.066   1.934  0.2001 -0.0256  0.3975
 4691W        W21539   9.617   8.285   2.094 -0.0259  0.1142  0.1603
 4692W        W21540   2.781  14.443  15.238 -0.0368  0.1047  0.0561
 4693W        W21541   9.351   1.617   2.407  0.0142 -0.2426  0.4007
 4694W        W21542   8.785  12.822  14.623  0.1622 -0.2822 -0.1478
 4695W        W21543   2.700  10.995   2.792  0.2856 -0.0605  0.2334
 4696W        W21544   7.286  13.385  12.533 -0.3203 -0.0849  0.0714
 4697W        W21545   6.242   8.722   2.609 -0.0988 -0.0226 -0.1099
 4698W        W21546   8.014   2.500  14.759 -0.0288  0.2396  0.0896
 4699W        W21547  16.260   6.536   1.043 -0.2233 -0.1351 -0.0026
 4700W        W21548  10.803   9.883   3.209 -0.1153 -0.3421 -0.0630
 4701W        W21549   8.756   4.394   3.766 -0.0075 -0.0673  0.4165
 4702W        W21550   2.808  18.027  14.869  0.0079  0.2668  0.1006
 4703W        W21551   3.003  13.015   1.950  0.4383 -0.1876  0.0642
 4704W        W21552   6.279  15.595   2.247 -0.2588 -0.4231  0.0934
 4705W        W21553  14.665  13.325  15.332 -0.0996  0.4215  0.0350
 4706W        W21554   2.816  14.383  11.002  0.1473 -0.2202 -0.2174
 4707W        W21555  17.962  11.151   1.144 -0.0979  0.0983  0.1571
 4708W        W21556   6.481   5.961  11.202 -0.1983 -0.3292  0.0063
 4709W        W21557   4.800  12.804   4.047  0.2674  0.2312  0.0219
 4710W        W21558   5.965  10.932  14.268  0.1754 -0.1497 -0.2630
 4711W        W21559  17.829   8.597  14.844 -0.0663  0.3674  0.2072
 4712W        W21560   1.784   5.397  14.697  0.0914  0.1274  0.3461
 4713W        W21561   2.729  15.656   3.107  0.0038 -0.3050 -0.1378
 4714W        W21562   1.375  13.660   3.891  0.1047  0.0523  0.0030
 4715W        W21563   8.117   8.180   4.744 -0.4682 -0.2085 -0.2156
 4716W        W21564  12.716   8.554   4.689 -0.0140 -0.1332  0.1675
 4717W        W21565   4.975   2.193   1.396  0.0271 -0.1836 -0.0216
 4718W        W21566   9.379   5.717  15.038 -0.1468 -0.1105  0.0184
 4719W        W21567  15.765  13.436  12.546  0.0455  0.1212  0.0944
 4720W        W21568  13.776  13.723   5.008  0.0383 -0.0795  0.0171
 4721W        W21569   4.164   4.928  14.901 -0.1794 -0.0993 -0.1458
 4722W        W21570   4.441   1.375   1.135  0.1655  0.2777  0.2942
 4723W        W21571   3.118   6.834   4.101 -0.0729 -0.0063 -0.0375
 4724W        W21572  15.023  15.254   4.695 -0.1516  0.1075  0.1564
 4725W        W21573  15.021  16.595   3.831  0.0139 -0.0624 -0.2262
 4726W        W21574  12.606  12.327   5.262  0.0614 -0.0814  0.1709
 4727W        W21575  16.008   5.531  15.279  0.0941 -0.0341  0.0061
 4728W        W21576   2.712   6.051  12.645  0.0695  0.0087  0.0901
 4729W        W21577   8.946   2.054  14.987  0.3732  0.1456  0.0848
 4730W        W21578   3.909   0.396  15.999 -0.1132 -0.0445 -0.3066
 4731W        W21579  14.704   4.872   1.311  0.1819  0.0463 -0.0894
 4732W        W21580   5.859   0.069  12.528 -0.3172  0.1510 -0.1024
 4733W        W21581   3.350  16.504   0.074 -0.0735  0.1229 -0.0549
 4734W        W21582   0.655  16.168  15.120  0.1498 -0.1889 -0.0487
 4735W        W21583  15.355   8.370  11.980 -0.3024  0.0744  0.1043
 4736W        W21584   8.084   9.655  15.863 -0.0657 -0.2193 -0.4731
 4737W        W21585   8.895  16.679   4.125  0.1148  0.4250  0.0598
 4738W        W21586  13.258   1.796   4.581 -0.2424 -0.1018 -0.1138
 4739W        W21587   9.397  16.361   3.399 -0.1482 -0.2540 -0.0568
 4740W        W21588   0.658  17.949   3.474 -0.0311 -0.1659  0.0444
 4741W        W21589  16.547   9.567  16.197 -0.1647  0.1447 -0.1790
 4742W        W21590  16.390   8.291  16.095  0.0096  0.1714  0.1570
 4743W        W21591  14.615   0.319  11.598 -0.0660  0.0726  0.2553
 4744W        W21592  12.418  16.758   1.507  0.3436  0.5901  0.1451
 4745W        W21593  13.145  12.547  14.797  0.1935 -0.2426 -0.1434
 4746W        W21594  17.394  16.385   0.837  0.0784 -0.0957 -0.3123
 4747W        W21595  16.228   2.028   1.862  0.3030 -0.1900  0.0076
 4748W        W21596   9.557  13.299  14.805 -0.0202  0.1056 -0.1059
 4749W        W21597   2.171   0.406  14.128 -0.3346  0.0279 -0.1965
 4750W        W21598   6.480  15.542  12.195  0.1288 -0.1478  0.0949
 4751W        W21599  11.727   7.219   4.148 -0.0360 -0.0148 -0.5429
 4752W        W21600  15.289   1.542  10.721  0.0460  0.3669  0.0858
 4753W        W21601   3.855   1.728   4.060  0.1034 -0.1611 -0.0511
 4754W        W21602  13.270  12.795  15.470 -0.3801 -0.3496 -0.1348
 4755W        W21603   6.694  16.820  15.983 -0.0377  0.0355 -0.4193
 4756W        W21604  10.849   0.401   1.624  0.4473 -0.0302  0.1846
 4757W        W21605  12.038  17.735   1.959 -0.1691 -0.1674 -0.2219
 4758W        W21606   1.197  17.339  11.711  0.0511  0.0415 -0.0595
 4759W        W21607  17.584   2.512   2.628 -0.1737  0.3615  0.3205
 4760W        W21608  14.398  13.388  13.826  0.2483  0.3421  0.2186
 4761W        W21609  14.612   9.605   5.285  0.5714  0.5728  0.2273
 4762W        W21610  11.342   1.557  11.536 -0.1453  0.1641 -0.0977
 4763W        W21611   0.380   9.314  16.313 -0.1977 -0.1628  0.1089
 4764W        W21612  14.210  17.727  14.354 -0.1016 -0.0518  0.1091
 4765W        W21613  11.721  14.033   2.477 -0.1956 -0.3660 -0.2429
 4766W        W21614   1.900  17.648   4.759  0.4704  0.3259 -0.2926
 4767W        W21615  14.212   6.078   0.102  0.1391  0.0502  0.0360
 4768W        W21616   6.803   0.590  14.664  0.3276  0.3223  0.2313
 4769W        W21617   0.601  12.858   4.170 -0.0086 -0.2728  0.2702
 4770W        W21618  17.822   1.784   4.015 -0.2965  0.1875  0.2576
 4771W        W21619   8.355  10.264   0.625 -0.2090  0.2748  0.0009
 4772W        W21620  10.586   9.972  13.448  0.2606 -0.1735  0.2112
 4773W        W21621  14.466  17.199  12.699  0.5485  0.1016 -0.0828
 4774W        W21622  10.959   0.437  13.065  0.2676  0.0784 -0.2100
 4775W        W21623  15.623  17.684  10.812 -0.0167 -0.0759  0.1330
 4776W        W21624  12.935   4.649  10.510 -0.1168  0.1747  0.2000
 4777W        W21625   3.292   5.390   2.084 -0.3465 -0.2727 -0.0107
 4778W        W21626   2.890   1.414  13.051  0.0764 -0.0901 -0.2218
 4779W        W21627  15.958   3.456  14.528 -0.0665  0.0146 -0.1500
 4780W        W21628  14.555   9.414  14.200 -0.0183  0.2374  0.1631
 4781W        W21629  14.209  13.253   2.265 -0.1603  0.0026  0.0760
 4782W        W21630  17.532   0.071   4.069 -0.0473  0.0781  0.1911
 4783W        W21631  17.947  17.093  11.070  0.2659  0.1143 -0.1803
 4784W        W21632  16.730   9.644   0.459  0.0593  0.4732 -0.0432
 4785W        W21633  12.226  10.197  15.689 -0.1831  0.2187 -0.1870
 4786W        W21634   8.295   0.757   3.247  0.2563  0.0654  0.1463
 4787W        W21635   8.030   9.559   2.292  0.1234  0.0437  0.0234
 4788W        W21636   0.300   9.868   4.638 -0.2711 -0.1227  0.2643
 4789W        W21637  10.476   7.844  15.900  0.2478  0.0218  0.0814
 4790W        W21638  13.366   2.490   3.351 -0.3284 -0.1005  0.2773
 4791W        W21639  13.697  12.646  16.227 -0.0856 -0.0364  0.0948
 4792W        W21640  16.081   1.672   1.030  0.1342 -0.0359 -0.0780
 4793W        W21641   1.822  12.577  13.480 -0.0977 -0.4362  0.0256
 4794W        W21642   5.606  17.612   0.484 -0.0678 -0.1933 -0.1402
 4795W        W21643  16.269   2.313  11.551 -0.1124  0.2897  0.0090
 4796W        W21644   0.278  16.477  12.090  0.2477  0.4050  0.3512
 4797W        W21645   3.150  14.203   0.360  0.1324  0.0903 -0.0480
 4798W        W21646   9.624  13.406  16.020 -0.0758 -0.4271  0.1017
 4799W        W21647  13.474   3.298   4.802  0.2674 -0.1798 -0.1252
 4800W        W21648   6.927   5.130   3.772 -0.0194  0.5258 -0.1081
 4801W        W21649   7.630   3.695  14.249  0.0963 -0.0729  0.0978
 4802W        W21650   7.631  10.166  15.107  0.3910  0.0945 -0.1118
 4803W        W21651   8.242   9.809   3.852 -0.0725  0.1050  0.2444
 4804W        W21652  17.297  15.322   0.659  0.3230  0.0046 -0.3811
 4805W        W21653   7.911  11.942  12.599 -0.1679 -0.2910  0.0840
 4806W        W21654  16.631   7.626   4.755 -0.1593  0.1231 -0.0355
 4807W        W21655  16.851  15.879  11.329 -0.0063  0.1919  0.3201
 4808W        W21656  13.347   2.990   0.840 -0.1682  0.0719 -0.3408
 4809W        W21657  12.456  10.557  16.024 -0.2639  0.1017 -0.0638
 4810W        W21658  12.261   4.367  13.586 -0.3611 -0.4165 -0.2173
 4811W        W21659   4.501   0.011   5.695  0.0593 -0.0851  0.0806
 4812W        W21660   3.923   6.281   4.077  0.1962  0.1677  0.0969
 4813W        W21661  17.577  10.714  12.948  0.1230  0.1355 -0.0064
 4814W        W21662   1.521   5.423  15.568 -0.1158 -0.1093 -0.1633
 4815W        W21663   4.820   7.689   2.051 -0.0728 -0.1282  0.2682
 4816W        W21664  15.397   4.875   1.817 -0.1950  0.1765  0.0942
 4817W        W21665   4.696   8.485  11.579 -0.1639 -0.0971  0.2090
 4818W        W21666   0.518   0.300  12.003 -0.0171  0.0848  0.0473
 4819W        W21667  12.161  12.929  15.969  0.1318 -0.1896  0.2676
 4820W        W21668  16.773  17.744   1.165  0.2914 -0.0171  0.0726
 4821W        W21669  13.686  10.007   5.325  0.2265 -0.1960 -0.0396
 4822W        W21670  17.124  16.134  15.725 -0.3378  0.0595  0.0132
 4823W        W21671  11.334   8.161   4.043  0.0274  0.0836  0.0090
 4824W        W21672   2.941  16.985  15.113  0.6632  0.0680 -0.0638
 4825W        W21673   8.806   4.788   3.486  0.4116  0.4335  0.3617
 4826W        W21674  10.587  10.199  15.982  0.1420 -0.2589  0.3497
 4827W        W21675  11.165  16.636   5.271 -0.1893  0.0453  0.1930
 4828W        W21676   1.659   5.390  13.536  0.1511  0.0151  0.0235
 4829W        W21677   4.110  16.455  13.437 -0.0522  0.0739  0.1639
 4830W        W21678   0.908   2.651  12.583  0.1387 -0.1437  0.1734
 4831W        W21679   1.142  13.953   1.414 -0.1762  0.0581 -0.0880
 4832W        W21680  16.141  16.424  14.632 -0.1361  0.2175 -0.4483
 4833W        W21681   5.412   2.851  13.683  0.1733 -0.0800  0.1029
 4834W        W21682   1.927   8.500  12.992  0.0648 -0.3228  0.3049
 4835W        W21683   5.490  11.015   0.901 -0.1427 -0.0096  0.1389
 4836W        W21684  16.007   6.181  14.805  0.0827  0.0659  0.0729
 4837W        W21685   1.727  10.531   3.121 -0.0783  0.0071 -0.0889
 4838W        W21686  16.794   8.455   1.813  0.0966 -0.1156  0.0237
 4839W        W21687  11.214  11.237   0.816  0.1164  0.1957  0.0238
 4840W        W21688  10.347  10.951   4.670 -0.0336 -0.2471 -0.1103
 4841W        W21689  16.107   0.978   2.767  0.3732 -0.3399 -0.1035
 4842W        W21690  10.881   6.347  13.602 -0.1296 -0.2128  0.1931
 4843W        W21691  15.585  10.008  15.521  0.0509 -0.1406  0.2565
 4844W        W21692   6.206   7.490  16.297  0.1431  0.2556  0.2030
 4845W        W21693  11.553   1.674   5.097  0.0129 -0.1664 -0.0421
 4846W        W21694  15.445  12.269   3.166 -0.1295 -0.2315  0.5645
 4847W        W21695   3.038  11.119  11.360  0.2276  0.2133  0.3617
 4848W        W21696   3.571  17.194   0.797 -0.1410 -0.0604 -0.4076
 4849W        W21697  15.639   9.288   2.040 -0.1003  0.0760 -0.1413
 4850W        W21698   3.990  14.058   2.151  0.1368  0.0390 -0.2309
 4851W        W21699   4.596  15.777  15.914  0.2345  0.1615 -0.2623
 4852W        W21700   3.821   3.176  10.447 -0.2139 -0.3487  0.1264
 4853W        W21701   9.606   8.972   1.581  0.0178  0.0959 -0.1876
 4854W        W21702   6.901   1.229  11.612 -0.0393 -0.0537 -0.0549
 4855W        W21703  14.032   5.770   3.399  0.1318 -0.0442  0.0856
 4856W        W21704  13.392  11.212  11.893 -0.0146 -0.1478 -0.5203
 4857W        W21705   1.924   0.615  11.820  0.0185 -0.1362  0.0406
 4858W        W21706   2.612   2.827   4.060  0.0253 -0.1789 -0.1567
 4859W        W21707  12.238   9.480   0.103 -0.2314  0.1620  0.2721
 4860W        W21708  13.939  15.844   3.902 -0.0387 -0.0980  0.0479
 4861W        W21709   3.158   8.479   1.368 -0.1542 -0.0745 -0.1163
 4862W        W21710   9.481   8.341   0.931  0.0885 -0.0365  0.3728
 4863W        W21711   4.178   0.406  14.210 -0.2011 -0.2153 -0.0985
 4864W        W21712  14.806   9.927  16.025 -0.1158  0.0268  0.0027
 4865W        W21713   7.874   3.760   2.909 -0.0002 -0.3944  0.1175
 4866W        W21714   9.406   3.817  12.333 -0.2853 -0.3870 -0.2344
 4867W        W21715  10.165   4.546  14.912  0.2276  0.2217  0.1341
 4868W        W21716   3.720   4.920   1.434 -0.0496 -0.1681  0.1366
 4869W        W21717   5.935   9.758   1.143  0.0509  0.1240  0.2677
 4870W        W21718   4.067  17.272  12.221  0.1905 -0.1918  0.4683
 4871W        W21719  17.226  13.165   2.000  0.1699 -0.1314 -0.0942
 4872W        W21720   7.330  10.439  14.689  0.1260 -0.2185 -0.1376
 4873W        W21721   4.837   6.727  12.509  0.0416 -0.1816  0.0726
 4874W        W21722  11.594  13.015  12.298  0.4995  0.0002  0.0591
 4875W        W21723  10.452   1.442  11.296  0.0129 -0.1064 -0.2229
 4876W        W21724  11.664  11.408   0.645 -0.2113 -0.0888 -0.0263
 4877W        W21725   3.427   6.647   4.871  0.1287 -0.0090  0.1720
 4878W        W21726  14.676  17.839  14.380 -0.1390 -0.0204 -0.2466
 4879W        W21727   2.538  13.731  11.422 -0.0179  0.0228  0.3278
 4880W        W21728  12.235   9.163   3.062 -0.1113 -0.2776 -0.1934
 4881W        W21729   6.222   4.862   1.143 -0.0998 -0.2151  0.2370
 4882W        W21730   2.948  13.845   1.114  0.2375  0.2123  0.1808
 4883W        W21731   8.301   4.116  13.194 -0.1050  0.0055  0.1763
 4884W        W21732   3.434  14.006   4.287  0.4941 -0.1176  0.1359
 4885W        W21733  15.578   7.847  11.292 -0.1281 -0.0908 -0.3997
 4886W        W21734  13.202  10.825  11.618  0.2823  0.1440  0.2652
 4887W        W21735   1.321   9.887   4.611 -0.0521  0.5368 -0.3573
 4888W        W21736  16.391  16.738  14.304 -0.0739  0.0784 -0.2893
 4889W        W21737   8.057   4.420  12.667  0.1424 -0.1591 -0.0417
 4890W        W21738  17.238   4.753  11.405  0.1711  0.4680 -0.4833
 4891W        W21739  17.463  14.678  13.194 -0.0066 -0.4790 -0.2332
 4892W        W21740   3.375   8.796   0.426  0.4492  0.1250  0.4915
 4893W        W21741   4.922  13.224  15.747 -0.1723  0.0107 -0.1446
 4894W        W21742   4.255  13.585   2.492  0.1302 -0.4746  0.1369
 4895W        W21743   1.830  14.464  12.866  0.0247  0.0846 -0.0826
 4896W        W21744   3.802   2.830  15.159  0.3310  0.0887  0.1761
 4897W        W21745  13.795  14.302   3.551  0.0183  0.0971 -0.2125
 4898W        W21746  15.446  16.922  14.260 -0.1397  0.2998 -0.0148
 4899W        W21747  17.411  12.597  16.038  0.1162  0.0313  0.0718
 4900W        W21748   9.248   0.029  12.563 -0.1267 -0.3559  0.2155
 4901W        W21749   9.487  14.772   3.552 -0.1384  0.3720  0.0583
 4902W        W21750   3.954   6.502   5.046 -0.0817 -0.0075  0.0063
 4903W        W21751   1.260   9.061   0.097  0.0546  0.1257  0.2650
 4904W        W21752  12.818   6.468  10.739  0.0474 -0.2570 -0.1885
 4905W        W21753   0.024  14.135   4.268 -0.2006 -0.0155  0.0621
 4906W        W21754   2.699  15.406   4.942  0.3786  0.0619 -0.1820
 4907W        W21755   5.091   8.754   0.721  0.0746  0.1816 -0.1998
 4908W        W21756  11.928  16.376   5.343  0.1345 -0.0824  0.2623
 4909W        W21757  12.761   5.771   0.344  0.0723 -0.0268  0.1610
 4910W        W21758   6.620  11.181   4.710  0.1158  0.2434  0.3089
 4911W        W21759  13.562  16.176   3.089 -0.0985  0.3395  0.0810
 4912W        W21760   7.908   0.726   1.156  0.0651  0.0342  0.2441
 4913W        W21761  12.231   8.079  14.552  0.3140  0.1138 -0.0339
 4914W        W21762  17.555   8.762   4.023  0.0042  0.1625 -0.0315
 4915W        W21763   6.163   1.421   1.866 -0.1858 -0.3783  0.0155
 4916W        W21764   6.290  14.252  13.131 -0.2729 -0.1532 -0.2883
 4917W        W21765   4.210  16.124  16.016  0.1119 -0.0254 -0.2090
 4918W        W21766  13.151   8.145   1.484 -0.0061  0.0727 -0.1633
 4919W        W21767   1.551   1.932  15.074  0.0262  0.2637  0.2384
 4920W        W21768   3.540   8.270   5.351  0.0821 -0.3547  0.0906
 4921W        W21769  16.004  10.100  10.498  0.0164 -0.3521 -0.2090
 4922W        W21770  10.132   5.012   5.935  0.2175  0.3767  0.0170
 4923W        W21771  11.303   3.432   0.070 -0.1564 -0.2181  0.0914
 4924W        W21772   3.679  13.585  13.705  0.2109 -0.0952 -0.2006
 4925W        W21773   3.048  14.014   2.057 -0.1511  0.1444 -0.1272
 4926W        W21774  11.527  13.773  15.401 -0.0598 -0.1176 -0.0435
 4927W        W21775  16.438  17.616   1.963 -0.2170 -0.1122 -0.0736
 4928W        W21776   4.150   2.807  13.230 -0.3193  0.1165 -0.2002
 4929W        W21777  11.659  15.654  14.359  0.1548  0.3169 -0.0020
 4930W        W21778  10.336   1.230   2.609  0.1025 -0.1681  0.0140
 4931W        W21779   8.632   1.873  14.057 -0.0926 -0.3480 -0.3262
 4932W        W21780   9.444  10.521   2.968 -0.0598  0.1488 -0.0006
 4933W        W21781   5.482   3.932   4.222 -0.4734 -0.1629  0.0786
 4934W        W21782  16.676  14.868  12.158 -0.3289  0.0801  0.0994
 4935W        W21783  14.841   8.687  12.004 -0.0701 -0.0323 -0.2911
 4936W        W21784  14.533   1.962   2.600  0.0369  0.0519 -0.0662
 4937W        W21785  14.267   5.555  11.958 -0.2442  0.0928 -0.0286
 4938W        W21786   1.702   2.813  15.606  0.0901 -0.0727  0.0833
 4939W        W21787  17.560  12.082   1.940 -0.1991  0.2011 -0.1268
 4940W        W21788   3.716   6.264   3.594 -0.1288  0.0902  0.1671
 4941W        W21789   4.790  17.361   2.018 -0.0272  0.1321 -0.0442
 4942W        W21790  11.302  16.244  15.652 -0.2575  0.0335 -0.1001
 4943W        W21791  17.208   8.749   0.086  0.1551 -0.0327 -0.3151
 4944W        W21792   9.185  17.520   4.536  0.3479  0.0480 -0.1829
 4945W        W21793  10.507  10.484   1.723  0.2704  0.0277  0.0873
 4946W        W21794   6.910  13.188  12.707  0.3363  0.0586 -0.0362
 4947W        W21795   1.661  15.739   2.432  0.0991  0.3702 -0.0040
 4948W        W21796   7.949  11.729   1.607  0.0197 -0.2737 -0.0300
 4949W        W21797   7.675   9.945  13.338 -0.0790 -0.0369  0.0394
 4950W        W21798   0.968   0.536   2.781  0.2475 -0.0812  0.3073
 4951W        W21799   1.329   9.399   1.746  0.0294  0.2630 -0.1779
 4952W        W21800   8.995  11.572  13.795 -0.2395  0.1034 -0.0636
 4953W        W21801   6.304   4.215   1.726 -0.1363  0.3298 -0.1518
 4954W        W21802  16.437  14.254  11.585  0.1498 -0.2444  0.2203
 4955W        W21803   8.585   7.473  12.557 -0.0978 -0.1029  0.0018
 4956W        W21804   0.594   6.530  14.967  0.1694 -0.1950  0.2810
 4957W        W21805   7.708   0.533  13.259 -0.0943  0.1434  0.1816
 4958W        W21806  10.394  14.774   4.090  0.1524 -0.0890 -0.0020
 4959W        W21807   4.609   4.409  15.855 -0.0032  0.0101 -0.1602
 4960W        W21808  16.383   7.484   3.381  0.0244 -0.4205 -0.0835
 4961W        W21809  14.652   8.874   3.498 -0.1165  0.3459  0.2040
 4962W        W21810   2.538   1.840  14.785 -0.0362 -0.2729  0.1521
 4963W        W21811  12.938   4.889  13.887 -0.3866 -0.0122  0.0295
 4964W        W21812  17.911   3.303  15.003 -0.1693  0.0863 -0.0994
 4965W        W21813   2.473   2.646   1.716 -0.4018 -0.0602 -0.0156
 4966W        W21814   1.811   4.449   0.602  0.0155  0.1105 -0.0982
 4967W        W21815  11.491   6.898   4.822 -0.0925  0.0229  0.1045
 4968W        W21816  17.457   6.440  15.806  0.0793  0.0002 -0.3077
 4969W        W21817  10.944   9.553  14.784 -0.1168  0.1998  0.1945
 4970W        W21818   5.128   4.333   3.021 -0.0540 -0.0906  0.1270
 4971W        W21819  11.820   6.080   1.091  0.0933  0.3061 -0.1670
 4972W        W21820  10.268   4.366   0.327  0.2016  0.1149 -0.0911
 4973W        W21821  17.086   1.728   4.875  0.0094 -0.2975  0.0392
 4974W        W21822   2.832   7.444   3.451 -0.0776  0.1682  0.0140
 4975W        W21823   6.127  14.932   3.372  0.0144 -0.4431  0.0634
 4976W        W21824   1.178  10.954   2.596 -0.0168  0.2079  0.1205
 4977W        W21825   0.409  18.093   5.239  0.2912 -0.2554  0.0242
 4978W        W21826  13.659   1.594  11.498  0.0553 -0.0912 -0.0028
 4979W        W21827  15.678  14.700  11.922 -0.0327  0.2133 -0.1603
 4980W        W21828   6.834   7.974  10.932  0.1329 -0.0073 -0.0902
 4981W        W21829   5.913   3.223  14.803 -0.2589  0.0791 -0.3153
 4982W        W21830   5.734   0.812  12.070  0.1029 -0.0812 -0.0278
 4983W        W21831   7.277   1.052  14.727 -0.0603  0.2563 -0.4024
 4984W        W21832  13.427   2.253   2.320  0.1634 -0.1574  0.0063
 4985W        W21833  11.148   2.849   3.432  0.3475  0.0736  0.0825
 4986W        W21834  16.996   2.666   0.796 -0.1291  0.2563  0.0418
 4987W        W21835  11.901   2.512  14.904 -0.0672 -0.2640 -0.0466
 4988W        W21836   3.645  10.492  12.791  0.1557  0.3896  0.1757
 4989W        W21837  17.492  16.468  13.233  0.2758 -0.1397 -0.3032
 4990W        W21838  10.452   2.625  14.542 -0.0294 -0.1325  0.3224
 4991W        W21839   1.745   7.101  14.461 -0.0505  0.1163  0.0080
 4992W        W21840  11.658  13.178  16.114 -0.0399  0.2355  0.2841
 4993W        W21841  15.590  17.236   0.755  0.1052  0.1966  0.0965
 4994W        W21842  17.403   8.938   3.217 -0.0956  0.1775  0.1073
 4995W        W21843   5.031  13.557  12.966  0.1880  0.1241  0.1386
 4996W        W21844  13.721   7.923   4.767 -0.0827  0.0094  0.2229
 4997W        W21845  12.487   2.340   0.430  0.2050 -0.1038 -0.1122
 4998W        W21846  11.469   4.383  15.196  0.0667 -0.0597  0.3966
 4999W        W21847  10.171  12.022   0.813  0.3232 -0.0635  0.3833
 5000W        W21848  17.746   3.470  16.208  0.3689  0.0811 -0.0683
 5001W        W21849   5.969  11.665   0.395  0.0423 -0.0962  0.1111
 5002W        W21850  16.654  10.064  12.956 -0.2053  0.1392  0.5075
 5003W        W21851  17.987   5.536  13.922  0.2627 -0.0750  0.2102
 5004W        W21852   8.977   4.095   2.617 -0.0699 -0.3011  0.1000
 5005W        W21853  10.865  16.068   0.829  0.0239  0.1428  0.1503
 5006W        W21854   7.831   9.101   2.608 -0.2496  0.0956 -0.4038
 5007W        W21855   8.011  18.011   2.680  0.3990  0.0209 -0.0652
 5008W        W21856   8.291  15.332  11.634 -0.0294  0.2903 -0.0695
 5009W        W21857   7.643  12.863  15.250 -0.3546 -0.0025  0.0056
 5010W        W21858  11.257  15.696   4.697  0.0323 -0.3236 -0.0501
 5011W        W21859   9.330   8.415   0.266 -0.0512 -0.0050 -0.3009
 5012W        W21860   1.423   8.191   0.223 -0.3032  0.1243  0.3403
 5013W        W21861  14.447   7.001  15.891 -0.1652  0.2527 -0.0153
 5014W        W21862   0.332   6.944  14.919  0.1027 -0.1245  0.2580
 5015W        W21863   1.016   1.699   2.137 -0.1050 -0.1316 -0.0419
 5016W        W21864   5.804   4.037   1.322  0.0099 -0.2410  0.3063
 5017W        W21865   5.824  15.984  14.838 -0.3626 -0.0873 -0.0124
 5018W        W21866  16.211  14.957  12.351 -0.2169  0.0339  0.0358
 5019W        W21867   2.153   3.036  12.543 -0.0042 -0.0513 -0.1897
 5020W        W21868  16.374  12.070   2.066 -0.2563  0.0344 -0.3834
 5021W        W21869   4.720   9.511  12.468 -0.0823  0.3506  0.1961
 5022W        W21870   0.364   0.716  15.663  0.0022  0.0145 -0.3351
 5023W        W21871   5.304   0.174  13.742  0.1455 -0.1774 -0.2806
 5024W        W21872   7.687  11.278  10.862  0.0014 -0.1411  0.0008
 5025W        W21873  11.002   0.882   3.726  0.0931 -0.0037 -0.0518
 5026W        W21874   0.934   1.844   3.222 -0.2879 -0.4406 -0.1913
 5027W        W21875   7.428   3.169   0.725 -0.0590  0.1738 -0.0818
 5028W        W21876  13.613  14.146   5.349 -0.0877 -0.3705  0.0531
 5029W        W21877   4.076  15.215   0.010 -0.2765 -0.0933  0.0754
 5030W        W21878   2.850  14.992  12.722 -0.0966  0.2661  0.2999
 5031W        W21879   1.096   3.861   0.787  0.2162  0.0648  0.0667
 5032W        W21880   3.654  10.544  14.159  0.2923 -0.4043 -0.0264
 5033W        W21881   6.759   2.772  15.503 -0.0719  0.2130 -0.0609
 5034W        W21882   0.033   9.532  13.080  0.1485  0.1066 -0.3151
 5035W        W21883   1.228   7.963  14.454  0.1823  0.2064  0.0044
 5036W        W21884   1.308  18.066  11.252 -0.0835  0.2277 -0.2191
 5037W        W21885  16.679   5.234  15.758 -0.3897  0.0907  0.0641
 5038W        W21886   7.659  10.553   4.850 -0.1664  0.1754  0.0629
 5039W        W21887   5.954  13.114  11.777 -0.1466 -0.0280  0.0984
 5040W        W21888   3.344   9.772   3.127  0.0163  0.2176 -0.1593
 5041W        W21889  12.833   6.401   0.745 -0.1615 -0.2033  0.1925
 5042W        W21890   4.988   6.360  12.121 -0.1894 -0.0484  0.2822
 5043W        W21891  17.013  10.205  14.722  0.0637 -0.0943 -0.0036
 5044W        W21892  14.450  13.741  15.413 -0.2551  0.1188 -0.0949
 5045W        W21893  12.617  13.273  14.195 -0.3366  0.1133 -0.1797
 5046W        W21894   1.181  17.968  12.299  0.0904  0.2515  0.3517
 5047W        W21895   4.797   7.671   3.437 -0.0915 -0.2474  0.2055
 5048W        W21896   0.248  12.145   4.478 -0.0570 -0.0517 -0.0723
 5049W        W21897   0.779   9.342   4.230 -0.0814  0.0521  0.0954
 5050W        W21898  15.985  14.231   0.051  0.0215  0.0859  0.1346
 5051W        W21899  10.259   5.365   2.879 -0.0664 -0.1984 -0.0134
 5052W        W21900   6.017   2.773  16.225 -0.0523 -0.1384 -0.1605
 5053W        W21901  16.449   4.098  14.646  0.0785  0.3324 -0.2335
 5054W        W21902   6.474  10.707   4.402 -0.1015  0.2569 -0.2124
 5055W        W21903  13.672  15.189   0.103  0.1487 -0.0525 -0.1543
 5056W        W21904   7.891  16.880  11.828 -0.1132  0.1102  0.3322
 5057W        W21905   1.517   6.045  13.547  0.4116  0.1866 -0.0937
 5058W        W21906  11.554  11.304  12.509  0.0162  0.0747 -0.1292
 5059W        W21907  15.613  14.338  14.280 -0.0190 -0.1186  0.0310
 5060W        W21908  13.614   8.912  15.304 -0.2310 -0.2815 -0.2308
 5061W        W21909  10.115  12.489  11.143 -0.0657 -0.0299 -0.1310
 5062W        W21910   8.828  16.799  15.978  0.2053 -0.0210 -0.2739
 5063W        W21911  12.375  14.357  16.282  0.1396 -0.2520 -0.2145
 5064W        W21912  14.996   0.283   5.464 -0.0328 -0.1766 -0.0337
 5065W        W21913   8.301  12.091  14.822  0.1390 -0.0450 -0.0345
 5066W        W21914  16.305  14.292   1.232  0.1351  0.1488 -0.0402
 5067W        W21915  16.570   4.132   3.534 -0.3098 -0.3289 -0.2066
 5068W        W21916  12.655   7.983  14.719  0.0871 -0.1180 -0.2745
 5069W        W21917   5.946  13.651  12.547 -0.0458 -0.2841 -0.0288
 5070W        W21918  13.027   3.890   1.339 -0.1826 -0.0087  0.2105
 5071W        W21919   1.608  10.337   0.870  0.1726  0.1436  0.0789
 5072W        W21920  16.094  16.821   5.234  0.1193 -0.0103 -0.0205
 5073W        W21921  10.538  15.769   0.463  0.0650 -0.0356  0.1140
 5074W        W21922  17.922  17.700  13.974 -0.1457  0.1781  0.2842
 5075W        W21923   4.102   2.679   1.084 -0.1976 -0.1167 -0.2042
 5076W        W21924   0.152  10.592  11.852  0.0211  0.2038 -0.2739
 5077W        W21925   2.535  14.144  15.708  0.1324  0.3045 -0.0454
 5078W        W21926   3.082  12.833  10.938  0.1897  0.2354 -0.0458
 5079W        W21927   6.086  14.008   3.617  0.2387 -0.3006  0.1652
 5080W        W21928   3.491   7.375   4.911 -0.2620  0.1710 -0.4698
 5081W        W21929  12.605  16.425  11.687  0.0102 -0.1198  0.1159
 5082W        W21930   6.156  16.806  11.136  0.1830  0.1013  0.2478
 5083W        W21931  13.342  10.184   2.827 -0.0454 -0.3783 -0.0650
 5084W        W21932   6.561  15.161  10.824 -0.1663  0.0242 -0.0130
 5085W        W21933  15.181  13.932   3.036  0.3385  0.0532  0.1140
 5086W        W21934  11.975  14.527   3.073 -0.2189  0.0360 -0.1820
 5087W        W21935  12.039  11.685   0.549  0.0226  0.0818 -0.2619
 5088W        W21936  14.296  13.993  13.721 -0.1434 -0.0080 -0.0742
 5089W        W21937  10.312   1.594   0.674  0.0627 -0.0152 -0.2205
 5090W        W21938   2.106  10.093   4.895  0.2299  0.3442  0.1043
 5091W        W21939   7.686  11.784  14.447 -0.1242 -0.0164 -0.0150
 5092W        W21940   5.722  17.596  12.564  0.1839 -0.1537 -0.5100
 5093W        W21941  16.970  15.748   2.027 -0.0226  0.0642  0.2391
 5094W        W21942  14.692  13.747  13.985  0.1964  0.0928 -0.0554
 5095W        W21943  13.215  15.576   5.259 -0.1634  0.0543 -0.1628
 5096W        W21944   6.266   6.023   4.622 -0.1686  0.1106 -0.1255
 5097W        W21945  10.645  11.523   3.909 -0.0062 -0.2360  0.3298
 5098W        W21946  12.632   6.424   1.579 -0.0233 -0.2259  0.1046
 5099W        W21947  12.720   5.202   3.258  0.1823  0.0042 -0.0492
 5100W        W21948   3.818   5.538   1.120 -0.1904 -0.0636  0.1676
 5101W        W21949  16.432   9.701   2.133  0.0397  0.1056  0.0284
 5102W        W21950  14.139  17.869  11.991  0.0092  0.3910 -0.1285
 5103W        W21951   7.916  10.001   1.932  0.1408  0.5109 -0.0717
 5104W        W21952   3.416  12.380  14.768  0.0250  0.0323  0.0342
 5105W        W21953   2.548   0.171   0.199 -0.1538 -0.3838  0.1241
 5106W        W21954   0.692   0.470   2.207 -0.0106  0.4427  0.1565
 5107W        W21955  12.118   6.120   0.674  0.1962 -0.3028 -0.1269
 5108W        W21956   0.976  13.403   5.942 -0.2860  0.4232  0.1664
 5109W        W21957  15.373   7.105   1.728  0.3000 -0.4511  0.1860
 5110W        W21958  14.809  13.300  10.733 -0.1606 -0.0008  0.0577
 5111W        W21959  12.773  16.961  12.780 -0.3760 -0.2656 -0.3877
 5112W        W21960  16.849   1.232   4.839 -0.0927  0.5214  0.2444
 5113W        W21961  11.789  16.204  15.799 -0.1168  0.2858 -0.1696
 5114W        W21962  15.528  17.747   3.710 -0.2986  0.0680 -0.0479
 5115W        W21963  14.978  10.011  15.563  0.2042  0.3689 -0.3453
 5116W        W21964   6.674  15.949   0.896 -0.2182 -0.1383  0.2467
 5117W        W21965   0.728  17.957  11.091  0.3936  0.0308  0.1440
 5118W        W21966  17.110  11.746  13.539 -0.0877 -0.0637 -0.2887
 5119W        W21967   9.576  17.602  14.387  0.0336  0.1828  0.0317
 5120W        W21968   2.158   6.367  15.754  0.1327 -0.0673  0.0110
 5121W        W21969   8.223  12.342  12.457 -0.0856 -0.2115 -0.0444
 5122W        W21970   9.761  15.526  11.583  0.0191  0.1177 -0.1211
 5123W        W21971   2.038   9.565   2.831 -0.0165 -0.0368  0.3020
 5124W        W21972   6.712   7.394   3.324  0.0769 -0.0406 -0.1220
 5125W        W21973  10.779   1.878   4.424  0.0092  0.2652 -0.0743
 5126W        W21974   7.031   3.787  11.616  0.0616  0.1428  0.1337
 5127W        W21975   1.736   1.851  11.731 -0.2498  0.0941 -0.0518
 5128W        W21976   4.305  14.679   1.511  0.3141  0.0115 -0.0558
 5129W        W21977  16.580  16.666   5.307 -0.0136  0.0978 -0.1710
 5130W        W21978   6.447  18.085   4.410  0.0002  0.2278  0.0613
 5131W        W21979  10.076  11.948   3.082 -0.0674 -0.0766  0.1384
 5132W        W21980  18.045   3.827  14.244 -0.2427 -0.1663 -0.2277
 5133W        W21981   9.539   4.594  15.033  0.2388 -0.0351  0.2063
 5134W        W21982  14.651  17.935   1.386 -0.0978 -0.2304 -0.0382
 5135W        W21983  10.648   4.022   4.550  0.2437 -0.0714 -0.1420
 5136W        W21984  17.451  14.357  12.528 -0.0101 -0.1179 -0.0090
 5137W        W21985   7.497   9.420   2.852  0.2177 -0.2924  0.0579
 5138W        W21986   4.767   3.803  14.665 -0.3131 -0.1800 -0.0932
 5139W        W21987   7.865  12.527   0.615 -0.3087 -0.1480  0.0006
 5140W        W21988  11.648  16.921  16.238  0.0490 -0.0675 -0.1735
 5141W        W21989  12.074   7.313   3.414  0.0648 -0.1029  0.1699
 5142W        W21990   4.447  17.984  16.123  0.1184 -0.0481  0.0909
 5143W        W21991   9.622  12.864  13.956  0.2470  0.5173 -0.0056
 5144W        W21992   9.312   9.341  14.002 -0.0526 -0.0080 -0.1442
 5145W        W21993   4.312  10.829  15.669  0.0724  0.2306 -0.0546
 5146W        W21994   5.387   0.999  12.528 -0.0096  0.1157  0.0641
 5147W        W21995   5.523  13.986   3.666 -0.0253 -0.0302  0.1655
 5148W        W21996   5.785   6.772   3.870  0.0423  0.2171 -0.0550
 5149W        W21997   2.082   0.001  15.245 -0.3064  0.1636 -0.3680
 5150W        W21998  13.376   8.920  16.164  0.0415  0.0664 -0.0238
 5151W        W21999  11.224  14.685   2.338 -0.0709 -0.3246 -0.3717
 5152W        W22000  10.976   8.634  14.922  0.1789 -0.3209 -0.0858
 5153W        W22001   4.555   7.291  14.998  0.0859  0.3133 -0.5440
 5154W        W22002   3.776   2.472   3.460  0.0335 -0.1492  0.2420
 5155W        W22003  17.441   5.645   1.116  0.0676 -0.2695 -0.3238
 5156W        W22004  16.787  11.740   0.593  0.2746  0.0851  0.2463
 5157W        W22005  17.532   1.301  13.059  0.0239 -0.0167  0.0261
 5158W        W22006   5.945  13.228  15.616  0.0333 -0.0275  0.1549
 5159W        W22007  14.009   8.045   2.456 -0.1329  0.0984 -0.2840
 5160W        W22008  16.732   8.900   3.477  0.0674 -0.1605  0.1727
 5161W        W22009  15.493   1.951   1.548 -0.0429 -0.1245 -0.2385
 5162W        W22010   7.811  11.642  11.288  0.0126  0.2809 -0.2720
 5163W        W22011   2.897   4.648   3.142  0.1334  0.1669 -0.0275
 5164W        W22012  17.462   7.573   0.910 -0.3237 -0.0860 -0.0246
 5165W        W22013   7.306   1.821  15.896 -0.2782 -0.2388  0.0916
 5166W        W22014   1.518   7.268  15.747 -0.1284  0.0089 -0.2984
 5167W        W22015   5.631   3.902   1.786 -0.0629 -0.1285  0.1779
 5168W        W22016   6.038  11.495   1.331 -0.0781 -0.1776  0.2437
 5169W        W22017  14.692  13.037   3.259 -0.1693 -0.0938  0.0022
 5170W        W22018   5.558  12.564   3.520  0.1075  0.0182  0.2069
 5171W        W22019  12.633   9.574   4.018 -0.0734 -0.1115 -0.0582
 5172W        W22020   6.317   5.874   0.510 -0.2741 -0.1538  0.4066
 5173W        W22021   6.073   7.656   4.125 -0.0087 -0.3636  0.4744
 5174W        W22022   3.418  15.407  14.758 -0.2686 -0.0518 -0.1454
 5175W        W22023  13.849   4.423  16.310 -0.0684 -0.1519 -0.2585
 5176W        W22024   4.011   1.377   0.453  0.1287  0.1163  0.0171
 5177W        W22025   2.629  12.593   1.900 -0.1311  0.3015 -0.1407
 5178W        W22026   8.569   7.047  15.276  0.2836  0.5651  0.2920
 5179W        W22027   5.157   9.277  11.440 -0.4071 -0.1346  0.0561
 5180W        W22028  17.628  16.906   0.857 -0.0780  0.1469  0.1519
 5181W        W22029   2.316   3.339   1.390  0.0938  0.1571 -0.1459
 5182W        W22030  17.200   0.489   2.908  0.0225 -0.0577  0.0452
 5183W        W22031   1.213   1.190  12.681  0.2897 -0.2445 -0.1536
 5184W        W22032  10.466  17.863   4.146  0.1277 -0.0737 -0.0673
 5185W        W22033  10.209  14.732   2.878 -0.2626  0.3994 -0.0893
 5186W        W22034   0.031   6.898  12.581 -0.0472  0.0535 -0.1862
 5187W        W22035   8.306  11.939   1.873 -0.0017 -0.0414 -0.2552
 5188W        W22036   9.186   6.517   2.337 -0.0302  0.0003 -0.0335
 5189W        W22037   4.011  13.217  16.187 -0.0162  0.0713  0.3225
 5190W        W22038  13.876   7.506  16.172  0.2163 -0.0495 -0.2091
 5191W        W22039  15.339   1.122  15.987  0.1104 -0.0304  0.3281
 5192W        W22040  16.714  17.628   3.816 -0.1945 -0.1204  0.0189
 5193W        W22041  16.204   7.684  11.499  0.1159 -0.2945  0.0413
 5194W        W22042   2.281   7.032  14.564  0.2373 -0.0288  0.0427
 5195W        W22043  16.991   2.419  10.780 -0.1999  0.0878  0.0952
 5196W        W22044  12.337  17.046   4.759  0.0365  0.1647 -0.2721
 5197W        W22045  11.489  17.805   1.952 -0.1855  0.1195  0.1514
 5198W        W22046   0.691   6.438   0.817  0.0252  0.2002  0.0211
 5199W        W22047   3.660  10.207  13.792 -0.1625 -0.1153 -0.0640
 5200W        W22048  15.251  17.864   1.387 -0.1764 -0.0764 -0.2859
 5201W        W22049   1.680  13.156   4.502 -0.0700 -0.0091  0.2838
 5202W        W22050   8.803   8.685   2.062 -0.1808  0.1084 -0.1716
 5203W        W22051   7.121   8.178  11.804 -0.2015  0.1249  0.1477
 5204W        W22052  17.491  14.709   3.950 -0.4098 -0.1226  0.1692
 5205W        W22053   9.400  14.275   0.667  0.1132  0.0735 -0.1496
 5206W        W22054   7.740   4.658   1.519  0.1759  0.2777  0.2064
 5207W        W22055  14.834   6.693   4.132  0.1067 -0.1150 -0.0022
 5208W        W22056   5.281  10.914  13.710  0.1087  0.1764  0.0403
 5209W        W22057   9.429   9.973   3.296 -0.1285  0.1084  0.0182
 5210W        W22058  10.309  15.705  10.921 -0.1046  0.2738 -0.0761
 5211W        W22059   7.174   5.886   4.759 -0.2580 -0.0278  0.1564
 5212W        W22060  17.891  17.139  16.295  0.2729  0.0587  0.2640
 5213W        W22061   5.768  11.041   4.725  0.4328  0.2479  0.0473
 5214W        W22062  15.200   5.509  11.676  0.1696  0.0524  0.1657
 5215W        W22063  14.432   5.777  13.973 -0.0464  0.0018  0.0278
 5216W        W22064   3.223  11.132   4.630  0.1759  0.2019 -0.0733
 5217W        W22065   8.535   2.527  11.531  0.0748  0.1825 -0.2456
 5218W        W22066   0.905  17.709   4.951  0.0299 -0.4189  0.1086
 5219W        W22067   7.545   4.454   5.465  0.1477  0.0947  0.0895
 5220W        W22068  17.012   0.195   0.886 -0.4200 -0.2293  0.1857
 5221W        W22069   1.978  16.057   3.735 -0.1586  0.1999 -0.0384
 5222W        W22070  13.581   7.786  13.241  0.2361  0.2097  0.0585
 5223W        W22071  12.024  10.741   4.759  0.0177 -0.3045  0.2557
 5224W        W22072  10.239  14.658  15.509 -0.1686  0.2489  0.2285
 5225W        W22073   5.528  13.656  12.233  0.0987  0.1097  0.2425
 5226W        W22074  13.787  15.386  15.563  0.1518 -0.3703 -0.1438
 5227W        W22075  18.059  13.735  13.943 -0.0073 -0.1204  0.0434
 5228W        W22076   9.351   2.305   1.010  0.1581  0.1948  0.0079
 5229W        W22077  13.234   1.038   5.115 -0.1214 -0.0273 -0.3596
 5230W        W22078   3.477   2.287   3.067 -0.1574  0.4526 -0.0221
 5231W        W22079   5.004  14.533   5.148  0.1629  0.2789 -0.1916
 5232W        W22080  11.905   3.904   2.106 -0.0959 -0.0838  0.0453
 5233W        W22081   2.357   9.563   6.140  0.1574  0.2659 -0.1692
 5234W        W22082   9.616  17.766   4.494  0.0303 -0.1064  0.0906
 5235W        W22083  15.907   5.273  16.233  0.0523 -0.2252 -0.3120
 5236W        W22084   7.089  11.146   4.825 -0.0350  0.3266 -0.1640
 5237W        W22085   4.598   9.582  16.192 -0.1552 -0.3492 -0.1227
 5238W        W22086  15.423  16.766   2.818  0.2486  0.0058 -0.1532
 5239W        W22087   6.311  15.774   4.959 -0.0446  0.2446 -0.1368
 5240W        W22088  14.834   6.500  12.713  0.0921  0.0096  0.3871
 5241W        W22089   6.683   8.670   1.608  0.0244  0.1049  0.0300
 5242W        W22090   7.587   2.342   0.191 -0.1577 -0.0251  0.2496
 5243W        W22091  13.504  15.954   5.569  0.1950 -0.1866  0.0491
 5244W        W22092   5.354  14.961  15.696  0.1748 -0.0052  0.1532
 5245W        W22093  10.313   7.605   4.353 -0.0878  0.1380  0.1421
 5246W        W22094   5.918  15.382   0.040  0.0499 -0.5388  0.0323
 5247W        W22095   4.398   7.610   2.346 -0.2774  0.1125 -0.0049
 5248W        W22096  16.328   2.291  12.072  0.1227 -0.1842 -0.0766
 5249W        W22097   5.832  10.694  11.233  0.3439 -0.2620  0.0147
 5250W        W22098   7.207   9.950  13.101 -0.1084  0.1633 -0.0833
 5251W        W22099   0.599   3.054   0.593  0.3182 -0.0265  0.1197
 5252W        W22100  14.309  15.909   1.148 -0.0421  0.1322  0.3341
 5253W        W22101   3.888   7.410  13.832  0.2094  0.2495  0.2032
 5254W        W22102   5.492   5.485   0.398  0.0884 -0.0063  0.0047
 5255W        W22103   6.391   8.653   0.309 -0.1232 -0.2566 -0.3612
 5256W        W22104   8.940   9.442   1.424 -0.0143 -0.0008  0.0156
 5257W        W22105   8.810   7.792   1.957 -0.0783  0.0235  0.0630
 5258W        W22106  17.170   6.792   0.264  0.1207 -0.3640 -0.2268
 5259W        W22107   0.055  13.624   4.392 -0.3335 -0.4533 -0.2811
 5260W        W22108   3.765  11.679  11.610  0.0657  0.0009  0.0912
 5261W        W22109  16.616  12.377   2.401  0.0612  0.0203  0.1266
 5262W        W22110   9.994  15.408  16.175 -0.1023  0.0127  0.4220
 5263W        W22111  18.004  15.949  15.540  0.0849 -0.0625  0.0369
 5264W        W22112   9.107  17.816  10.881  0.2725  0.0026  0.0383
 5265W        W22113   7.694  18.086   3.063  0.0563  0.1375 -0.0413
 5266W        W22114   3.869   1.060   2.706 -0.0457  0.0502  0.0263
 5267W        W22115   5.830   9.002   3.722  0.2912  0.2302  0.0220
 5268W        W22116   8.348   6.519  12.408 -0.0166 -0.1575 -0.0078
 5269W        W22117  11.396   0.751  13.117 -0.0434 -0.0513  0.0181
 5270W        W22118   2.094   1.564   3.813  0.1877 -0.2098  0.1080
 5271W        W22119  11.377   7.341   5.182  0.0718  0.1874 -0.1137
 5272W        W22120  17.255   8.493   2.990 -0.1293  0.3627  0.0618
 5273W        W22121   9.770  11.303   1.013 -0.0666  0.1169 -0.0203
 5274W        W22122   6.980   6.138  12.091 -0.0825 -0.1131 -0.3168
 5275W        W22123   9.986  13.558  15.313  0.0946 -0.3813  0.1253
 5276W        W22124   4.600  10.096   1.761  0.0715  0.0007  0.2840
 5277W        W22125   6.866   4.153   3.491  0.1872  0.1471  0.1756
 5278W        W22126  17.113   4.971   1.675  0.3212  0.2865  0.0180
 5279W        W22127   9.431   6.586  13.867  0.1251  0.0114 -0.0126
 5280W        W22128   3.256  11.912  15.599  0.0541  0.1465  0.1253
 5281W        W22129  14.496   2.262  12.141 -0.2287  0.3965  0.2312
 5282W        W22130   4.070  15.883  14.381 -0.0558  0.1260  0.1477
 5283W        W22131   8.931   5.837  11.184 -0.0953 -0.2397  0.1936
 5284W        W22132   7.376  12.695   0.759  0.0345  0.1123 -0.1219
 5285W        W22133   9.426   4.222  12.663 -0.0407  0.0649 -0.1446
 5286W        W22134  12.170   6.722   3.069  0.3621 -0.0094  0.0919
 5287W        W22135  17.861   8.222   3.400 -0.0074 -0.0072  0.0705
 5288W        W22136   1.927   1.146  11.131 -0.0787 -0.0345  0.1277
 5289W        W22137  12.305   3.929  15.132 -0.0759  0.0429 -0.0682
 5290W        W22138  10.334   4.175   0.829 -0.2227  0.0130 -0.4342
 5291W        W22139   0.602   9.520   1.264  0.2608 -0.0058 -0.0061
 5292W        W22140  13.879   8.400   3.392  0.3825 -0.0274  0.0780
 5293W        W22141  16.458   8.602   0.275 -0.1173 -0.2519 -0.2642
 5294W        W22142  12.677   4.644  11.999 -0.1135 -0.0240  0.1372
 5295W        W22143  17.233   5.770   3.376  0.0519 -0.1199 -0.0309
 5296W        W22144  12.517   4.535  14.912  0.0700 -0.1502  0.0344
 5297W        W22145   7.237   3.855   1.490 -0.0463 -0.2439 -0.0431
 5298W        W22146  15.677  13.257  13.274 -0.0870  0.1503  0.2244
 5299W        W22147  14.997  17.636  15.285 -0.2818  0.2624 -0.0870
 5300W        W22148   5.758   6.378  11.002  0.1994  0.0199  0.0030
 5301W        W22149  17.180   2.525   4.265 -0.0436 -0.0767  0.1324
 5302W        W22150  17.878   7.909   0.878  0.0373 -0.2174  0.0369
 5303W        W22151   4.043   1.041   1.231 -0.1234  0.2993  0.0889
 5304W        W22152  14.955   2.276  11.312 -0.0341 -0.1264 -0.0792
 5305W        W22153   8.829  18.029   0.429  0.0211  0.1940  0.0341
 5306W        W22154   0.904  15.181   5.133 -0.0981  0.1601 -0.1032
 5307W        W22155  17.129   3.928  16.324  0.0651  0.1085  0.0589
 5308W        W22156   5.934   0.067  14.189 -0.2742 -0.5925 -0.0031
 5309W        W22157   9.929  13.098  15.093  0.1200 -0.1866  0.0382
 5310W        W22158   6.981   1.047   5.228  0.0239 -0.2065 -0.0993
 5311W        W22159   3.469   1.683  13.597 -0.5299 -0.0378  0.2479
 5312W        W22160  15.074   9.393  11.987  0.2461 -0.1647 -0.0468
 5313W        W22161   6.131   0.505  12.721  0.0422  0.0080  0.1338
 5314W        W22162   9.346  15.222   2.695 -0.0181  0.1394 -0.0302
 5315W        W22163   3.690  12.680   4.649 -0.0626 -0.0169  0.1989
 5316W        W22164  10.968  12.653   1.549 -0.1608 -0.2605  0.0089
 5317W        W22165   9.896  10.354   3.899 -0.0227  0.2523  0.1249
 5318W        W22166   0.350   8.881   2.470 -0.2043 -0.0064  0.0864
 5319W        W22167   0.442   5.853  14.563 -0.3169 -0.0591 -0.0796
 5320W        W22168   1.944  16.062  13.427  0.0013  0.2988 -0.0746
 5321W        W22169  11.168   6.717   0.640 -0.0515  0.1720  0.0904
 5322W        W22170   0.562   3.255  12.740 -0.0709 -0.0680 -0.0987
 5323W        W22171   7.269   6.467   2.178 -0.2860  0.4235  0.1985
 5324W        W22172   4.821   4.465   4.520  0.1064  0.0610  0.0512
 5325W        W22173  13.119   5.076   3.666 -0.0524 -0.2525  0.3629
 5326W        W22174   9.156  13.350  14.475 -0.0442  0.0057  0.1749
 5327W        W22175   1.951  14.009  12.941  0.0441  0.1202 -0.1622
 5328W        W22176   5.492  14.431   0.746  0.2327 -0.0817 -0.2793
 5329W        W22177   8.990   0.250   1.634  0.0296  0.0309  0.3069
 5330W        W22178   2.202  15.053   2.795 -0.0102  0.0503  0.1809
 5331W        W22179  13.939  13.504  12.903 -0.0807  0.0606  0.0929
 5332W        W22180  15.142   8.702   0.378  0.2781  0.3727 -0.3867
 5333W        W22181  11.480   7.857  14.385  0.2689  0.1181 -0.1105
 5334W        W22182   6.041   1.684  14.199 -0.0808 -0.1239 -0.0204
 5335W        W22183  10.246   6.236   2.301 -0.0968 -0.0875  0.0055
 5336W        W22184  13.717  14.833   3.497 -0.0611  0.2267  0.0078
 5337W        W22185  10.597   0.059   3.589  0.2605 -0.3590 -0.1770
 5338W        W22186   0.277   4.703  14.607 -0.2201  0.1470  0.1237
 5339W        W22187   9.539   5.275  11.636  0.2270  0.1444 -0.3059
 5340W        W22188   1.662   4.683  12.692 -0.0356  0.2333 -0.0214
 5341W        W22189  11.806   1.300   1.134 -0.1398  0.0270 -0.2170
 5342W        W22190  15.043  11.922   5.046 -0.0242 -0.1156  0.2743
 5343W        W22191   5.181  17.822   3.494  0.1180 -0.1734  0.0004
 5344W        W22192  13.586   4.992  12.192  0.0302 -0.0762 -0.2178
 5345W        W22193  15.866  13.271   4.492 -0.3141 -0.3830  0.0059
 5346W        W22194  14.864   0.094  15.969  0.3395 -0.2143  0.0509
 5347W        W22195  12.491  13.276  12.287 -0.0514  0.0366  0.0757
 5348W        W22196   1.301   1.490  11.825 -0.0667 -0.0480 -0.0897
 5349W        W22197   1.050   3.332   3.426 -0.1518 -0.3119  0.1348
 5350W        W22198   5.033   0.229   4.917  0.1245  0.0686  0.0712
 5351W        W22199   4.650   5.778   4.564 -0.0226 -0.0022  0.0324
 5352W        W22200   1.798   0.704   4.363  0.3125 -0.0041 -0.1381
 5353W        W22201   1.264   5.351   4.704 -0.1299  0.0151 -0.2828
 5354W        W22202   7.087  10.156  16.021  0.0194  0.0309  0.1382
 5355W        W22203   7.425   2.812  13.113  0.0496 -0.0035  0.0388
 5356W        W22204   1.417  17.246  12.570 -0.0591  0.3024 -0.1263
 5357W        W22205   9.338   9.028  12.671  0.0902  0.2083 -0.1463
 5358W        W22206   9.992  12.063  15.041  0.0520  0.0154 -0.0029
 5359W        W22207  12.080  16.232  12.493  0.0647 -0.0685  0.1132
 5360W        W22208  12.107  11.818   4.926 -0.1234  0.0866  0.1043
 5361W        W22209   2.367   9.759   3.510 -0.1509  0.3319  0.0864
 5362W        W22210  13.121   3.222  13.925  0.0912 -0.2244  0.4508
 5363W        W22211   7.185  10.596  11.928  0.2581 -0.2474  0.2458
 5364W        W22212  17.487   5.777   2.908 -0.2553  0.2745 -0.1503
 5365W        W22213  13.587   0.656   2.674 -0.0897 -0.1313  0.3964
 5366W        W22214  11.935   6.088   2.335  0.0162 -0.0411 -0.2558
 5367W        W22215   4.051  17.793   4.777  0.0048  0.0283 -0.1836
 5368W        W22216   7.132   2.718   1.360 -0.1561  0.1619 -0.1026
 5369W        W22217   8.241   2.548  15.208 -0.2055  0.2481  0.0359
 5370W        W22218  12.460   0.009   3.907 -0.3119  0.0219  0.1659
 5371W        W22219  12.762   9.101   4.645 -0.0959  0.2618  0.1602
 5372W        W22220  14.249   3.845   2.829  0.0147  0.0393 -0.0913
 5373W        W22221   3.756   0.184  13.170  0.0336 -0.0876  0.3486
 5374W        W22222   6.133   6.660  15.717  0.0422  0.0490  0.3252
 5375W        W22223   3.046  15.995  10.954  0.2079  0.0034  0.2903
 5376W        W22224   0.499  10.634  15.873  0.1671  0.1428  0.0215
 5377W        W22225  14.787  16.183   1.523  0.2106  0.3511  0.0161
 5378W        W22226  13.900   3.585   4.695  0.1281  0.1268  0.1051
 5379W        W22227   2.077   9.416  14.124  0.1953 -0.2222 -0.0140
 5380W        W22228  13.624   6.481  11.627 -0.0624  0.1419  0.1453
 5381W        W22229  10.910   8.336  14.389 -0.1668  0.0071  0.2224
 5382W        W22230   9.589   0.623  14.059 -0.0003 -0.0185  0.2380
 5383W        W22231   8.168  10.765  13.456  0.1264 -0.0636  0.2471
 5384W        W22232   8.957  15.249   4.305 -0.1450  0.0508  0.2340
 5385W        W22233   7.348  16.757   2.801 -0.0386 -0.1872  0.0193
 5386W        W22234  15.008   7.664   2.576  0.1810 -0.2514  0.3790
 5387W        W22235  15.503   7.605   1.807  0.2732 -0.1572 -0.0872
 5388W        W22236  13.814  10.426   2.896 -0.0499  0.0234 -0.0581
 5389W        W22237  11.336   5.277   5.802 -0.0057 -0.2871 -0.1561
 5390W        W22238  15.138   8.917  11.544  0.1077  0.1636  0.3677
 5391W        W22239   7.893  13.990   3.741  0.0127 -0.1690  0.3083
 5392W        W22240  14.944  17.216   1.959  0.0152 -0.0910 -0.1191
 5393W        W22241  14.622   6.369   0.865 -0.0392  0.0571  0.1870
 5394W        W22242   5.680  12.527   2.732  0.1610  0.0348  0.2355
 5395W        W22243  13.869   4.267   1.471 -0.1680  0.1787  0.0365
 5396W        W22244   4.025  15.001  14.134 -0.0540 -0.0382  0.1610
 5397W        W22245   4.243  12.769   4.843  0.1087  0.0612 -0.4896
 5398W        W22246  13.986   7.467   0.666  0.0192 -0.0197  0.6711
 5399W        W22247   9.697  13.890  13.934  0.2344  0.1309 -0.3194
 5400W        W22248  13.725  14.626  12.057  0.1694 -0.1196 -0.1967
 5401W        W22249   8.510   8.783  16.000  0.0991  0.1404  0.2483
 5402W        W22250  10.228  17.626   1.876 -0.1962 -0.3462  0.1068
 5403W        W22251  13.969   5.389  14.138 -0.0373  0.0978  0.1899
 5404W        W22252   7.760   9.223  12.047  0.0451  0.0299  0.0700
 5405W        W22253  11.574   6.472   5.054  0.0699 -0.1644  0.1447
 5406W        W22254   9.289  13.234  12.947  0.0897  0.2682  0.1992
 5407W        W22255   2.818   1.058   3.342 -0.0966 -0.1496  0.1683
 5408W        W22256   8.515  11.117  15.406 -0.0724 -0.3214 -0.0735
 5409W        W22257   9.295  13.710   3.093 -0.0741 -0.2132  0.2537
 5410W        W22258   1.210   9.126   3.867  0.1521  0.2615  0.1328
 5411W        W22259  16.417   4.811  15.703 -0.0683  0.4248  0.1985
 5412W        W22260  15.633   1.317  11.058 -0.0255 -0.0926  0.3404
 5413W        W22261   9.905  14.016  11.572 -0.1150  0.0587  0.2209
 5414W        W22262   1.520   1.072  14.158 -0.0870  0.0836  0.2033
 5415W        W22263  14.598  14.128  15.102 -0.0359  0.0474 -0.1581
 5416W        W22264  14.004   1.940   1.239  0.0560 -0.0976 -0.0167
 5417W        W22265   3.482  13.309  13.369  0.0744  0.1593 -0.0613
 5418W        W22266  13.427   6.215  10.581  0.2109 -0.0494  0.0192
 5419W        W22267  16.132  10.721  12.429  0.0239  0.2531 -0.0756
 5420W        W22268   6.355  16.318   1.588  0.3894  0.6476 -0.1183
 5421W        W22269   9.362  16.210  14.907 -0.0590 -0.0405 -0.2193
 5422W        W22270  15.741  14.756   4.481 -0.0804  0.1402 -0.0657
 5423W        W22271  10.574  16.463  14.284  0.0299  0.0105  0.1752
 5424W        W22272   7.581   3.544  12.763 -0.3351  0.0961 -0.3507
 5425W        W22273  12.004  16.138  14.837 -0.4458 -0.0845 -0.3003
 5426W        W22274  15.048  17.473   2.673  0.3357 -0.0153  0.0101
 5427W        W22275   4.077  17.548  15.669  0.3872  0.2450 -0.0214
 5428W        W22276  14.227   6.985   4.576 -0.0519  0.1773 -0.1079
 5429W        W22277   2.734  11.821   4.129 -0.3438  0.0287  0.1113
 5430W        W22278   8.574   1.599  16.237 -0.0686  0.3270 -0.1212
 5431W        W22279   4.361  12.869  12.819  0.0068  0.2456 -0.1901
 5432W        W22280   6.374   8.271  11.635 -0.1862 -0.2003  0.2287
 5433W        W22281  11.031  10.095   4.166 -0.0839 -0.4186 -0.0317
 5434W        W22282  10.876  15.423   2.491  0.0865  0.0917 -0.0002
 5435W        W22283   7.449   5.734  13.892 -0.0967  0.1345 -0.5798
 5436W        W22284  17.037  14.924   0.432 -0.4059  0.0408 -0.1411
 5437W        W22285  13.204  16.217  14.049 -0.0454  0.0617 -0.1351
 5438W        W22286   7.782  13.366  13.378 -0.1176 -0.1048 -0.2312
 5439W        W22287   8.749   2.745  12.992 -0.0307  0.2047 -0.1446
 5440W        W22288  18.038  10.445   3.655  0.4164  0.1738 -0.1006
 5441W        W22289  12.048  15.491   6.359 -0.0246 -0.2088 -0.2243
 5442W        W22290   9.300   7.236  15.265  0.0332  0.1163  0.1203
 5443W        W22291   8.608  13.940   0.309  0.1302  0.0031 -0.0047
 5444W        W22292   7.128   0.249   1.662 -0.3850 -0.1364  0.1717
 5445W        W22293  13.267   1.558   5.911 -0.0823 -0.0854 -0.1525
 5446W        W22294   7.574  14.200  12.951 -0.3823  0.0200 -0.2785
 5447W        W22295   4.037   6.990  11.979  0.2719  0.0457 -0.1436
 5448W        W22296  10.242   0.259  15.339 -0.0076 -0.1492  0.1082
 5449W        W22297   3.342   0.945  11.010 -0.1271 -0.1615  0.0020
 5450W        W22298   3.097  17.583  15.313 -0.0686  0.2027  0.1139
 5451W        W22299  10.646  10.544  13.656  0.0229  0.0171 -0.0777
 5452W        W22300   3.593  13.963   5.677  0.2400 -0.1669 -0.2881
 5453W        W22301  13.232  17.376   0.634 -0.1053  0.2517 -0.4196
 5454W        W22302   3.880  13.734  16.174  0.1847  0.0235  0.1195
 5455W        W22303   5.151   9.652   2.885 -0.0137 -0.0662 -0.0793
 5456W        W22304   2.029   4.485   3.707 -0.3529 -0.1646 -0.0900
 5457W        W22305   7.054   5.159   4.232 -0.0607  0.0149 -0.0403
 5458W        W22306  16.714  13.785  15.642  0.0390 -0.0586 -0.2949
 5459W        W22307  12.867  17.290  13.800 -0.0327  0.0841  0.0351
 5460W        W22308   0.847  16.482   4.031  0.2906 -0.5513 -0.3271
 5461W        W22309  14.465   0.132   0.827  0.1830 -0.0398 -0.2438
 5462W        W22310  16.840  11.955   3.552 -0.1210  0.0782  0.1595
 5463W        W22311  12.332   9.826   0.521 -0.2868  0.0411 -0.1316
 5464W        W22312  10.399   7.270  13.692 -0.4525 -0.0693 -0.0487
 5465W        W22313   9.861  16.277  13.773 -0.1961 -0.0173 -0.3160
 5466W        W22314  17.897   4.026  12.771 -0.2244  0.1500  0.1433
 5467W        W22315   3.069  11.245   2.515  0.0463 -0.2963  0.3303
 5468W        W22316   3.932  16.714  15.053 -0.1201  0.2041 -0.2586
 5469W        W22317   1.406   9.220  14.716 -0.2660  0.0244  0.2240
 5470W        W22318  11.402  11.959   3.191  0.0497  0.0111  0.1537
 5471W        W22319  11.970  10.359  14.354  0.2396  0.1372 -0.1082
 5472W        W22320  10.869   6.338  15.617 -0.0377 -0.0548  0.0095
 5473W        W22321   6.336  16.658  14.562  0.0042  0.2167 -0.0349
 5474W        W22322   4.078  15.591   1.254 -0.1536  0.0048 -0.4901
 5475W        W22323   6.574   7.440   2.847 -0.1204 -0.0775 -0.1665
 5476W        W22324  13.855   2.370  14.653 -0.2128 -0.0957  0.0638
 5477W        W22325   6.400   1.224  12.649  0.1603  0.0278  0.0003
 5478W        W22326  15.479  14.369  15.194  0.1008  0.0623  0.2842
 5479W        W22327  15.245  10.357  11.643 -0.2666  0.1178 -0.0457
 5480W        W22328   2.753   1.459  12.554 -0.2343 -0.2275  0.0108
 5481W        W22329   7.789   9.509   0.889  0.1198 -0.1146  0.0722
 5482W        W22330  11.119  11.707   3.548 -0.0767  0.1835 -0.0955
 5483W        W22331  16.246  10.427   0.846  0.3543 -0.3413  0.0910
 5484W        W22332   0.911   3.865   3.444 -0.0347  0.2717  0.0499
 5485W        W22333  14.119   3.809  12.565  0.0077  0.0847 -0.1525
 5486W        W22334   6.417   2.672  15.880  0.0648 -0.1434  0.0758
 5487W        W22335   8.938   9.784  14.888  0.3468  0.0718  0.1429
 5488W        W22336  13.241   5.105  12.563 -0.0406  0.4768  0.1086
 5489W        W22337  10.803   5.293  12.019 -0.0767 -0.3260  0.1868
 5490W        W22338   0.571  14.318   2.754 -0.0646 -0.0851  0.2156
 5491W        W22339   6.263   0.278   3.970  0.1549  0.4620 -0.1447
 5492W        W22340   0.630   3.785  12.866 -0.3283 -0.2404 -0.0944
 5493W        W22341  15.221   6.008  13.520  0.0664  0.2939 -0.4568
 5494W        W22342   3.907  14.557   0.537  0.0153 -0.3095 -0.0552
 5495W        W22343   1.782  14.773  11.383  0.3608 -0.1386  0.0752
 5496W        W22344   9.360   9.640   2.825 -0.0068  0.2296 -0.1140
 5497W        W22345   3.397  13.790   2.894  0.3065  0.1033 -0.0203
 5498W        W22346  14.612   6.524   1.928 -0.1871  0.0332 -0.0610
 5499W        W22347  11.432   3.538  15.039 -0.1220  0.3056 -0.0522
 5500W        W22348   1.896  17.143  11.964 -0.1671  0.3238 -0.0161
 5501W        W22349   5.640   4.839   5.031 -0.0395  0.1012 -0.0855
 5502W        W22350  13.184   8.775   4.830  0.0813 -0.0143 -0.2003
 5503W        W22351  14.855  15.758  14.859 -0.0888 -0.0658 -0.1150
 5504W        W22352   1.640   9.635   0.830  0.1718 -0.3421  0.1457
 5505W        W22353   3.039   4.023  16.319 -0.1843  0.1471  0.1359
 5506W        W22354   9.388   0.019  13.058  0.0250 -0.2033 -0.1966
 5507W        W22355   1.750   0.772  10.722 -0.0663 -0.4125 -0.2355
 5508W        W22356  16.157  11.923  10.873 -0.1176  0.0431 -0.2436
 5509W        W22357  17.755  17.689   1.781  0.1538  0.4268  0.0847
 5510W        W22358  12.320   1.272   2.991 -0.0622  0.2553 -0.0034
 5511W        W22359   4.036  10.855   4.268 -0.2193  0.1105  0.2547
 5512W        W22360   1.730  14.956  15.137 -0.1707 -0.3601 -0.3997
 5513W        W22361   7.399  15.321  15.666 -0.4047 -0.0586 -0.1159
 5514W        W22362   6.658   1.453  12.093 -0.0832  0.1490  0.1387
 5515W        W22363   1.259   6.177  14.051 -0.4583 -0.0644  0.2364
 5516W        W22364  10.637  17.905   1.769 -0.0547  0.2147 -0.0347
 5517W        W22365   6.111   5.309   0.942  0.3104 -0.1311 -0.2270
 5518W        W22366   8.766  17.546  12.839 -0.0280 -0.1989  0.1302
 5519W        W22367  17.605   7.361   4.013  0.3200 -0.2831  0.0424
 5520W        W22368   1.392   1.724  12.690 -0.0031  0.2656 -0.3103
 5521W        W22369   0.742   8.071  14.879  0.1893  0.0626 -0.0552
 5522W        W22370  10.615   1.361  14.536  0.0742 -0.0610  0.0084
 5523W        W22371   5.543  14.648  12.384  0.0422 -0.1034  0.2658
 5524W        W22372   3.390  11.918  10.743 -0.3470  0.1179 -0.2407
 5525W        W22373  16.550   4.548  13.228  0.1232 -0.1175  0.4837
 5526W        W22374  14.890  14.852  13.377  0.1158  0.0457  0.1219
 5527W        W22375   2.111   6.629   2.353 -0.5210 -0.0213 -0.1098
 5528W        W22376   3.210   3.569  15.283  0.1192  0.1326  0.1511
 5529W        W22377  16.320  18.053   4.630  0.1239  0.1330 -0.0168
 5530W        W22378   7.823  16.139   0.362  0.3069 -0.3684 -0.0512
 5531W        W22379   5.770   2.792  12.107 -0.3358  0.2684  0.1318
 5532W        W22380   0.642   6.180   5.506 -0.3411  0.0477 -0.1801
 5533W        W22381   1.777  15.572   1.137 -0.4846 -0.2275 -0.1800
 5534W        W22382  13.192   7.632  13.779 -0.1139 -0.0236 -0.4999
 5535W        W22383  15.495  13.497   0.015  0.1363  0.0507  0.0945
 5536W        W22384  14.111   9.954  13.527 -0.0416  0.0128 -0.1433
 5537W        W22385   2.381  15.641   0.577 -0.2350 -0.1544 -0.0296
 5538W        W22386  10.463   5.971   0.920  0.1394 -0.1433  0.1441
 5539W        W22387   4.722   7.117  14.465  0.2209  0.2934 -0.0562
 5540W        W22388   5.128   9.745  13.054 -0.0764  0.1071  0.2766
 5541W        W22389   0.841  12.757   3.213  0.0955 -0.1769 -0.0299
 5542W        W22390  12.885   1.795   3.011 -0.1204 -0.0377  0.0248
 5543W        W22391   8.861  13.868  12.216  0.1706  0.0489  0.1356
 5544W        W22392   8.653  12.027   0.765  0.0339  0.0918  0.2410
 5545W        W22393   4.047   3.384  11.586 -0.1326  0.0026  0.0546
 5546W        W22394   2.793   4.828   4.659  0.0538  0.2581 -0.4794
 5547W        W22395   6.943  18.054  11.757  0.1681 -0.1574  0.1827
 5548W        W22396  11.453   5.422  11.381 -0.0009 -0.0262 -0.0933
 5549W        W22397   4.276  15.439  14.513  0.2133 -0.1103 -0.0801
 5550W        W22398   1.758  13.463  11.592  0.1516  0.0300  0.0416
 5551W        W22399  10.586  12.374   4.055 -0.1493 -0.0379 -0.3181
 5552W        W22400   4.251   9.430   1.111  0.2763 -0.1300 -0.1343
 5553W        W22401  14.434  13.600   1.453 -0.1276  0.0965  0.0521
 5554W        W22402  15.992   6.201  15.875 -0.1382 -0.1645  0.1404
 5555W        W22403   3.311  10.236  12.522 -0.0368 -0.2817 -0.2477
 5556W        W22404   5.767   0.048  16.084 -0.3236  0.0162  0.0503
 5557W        W22405  17.429   8.878  14.121  0.3761 -0.3410 -0.2769
 5558W        W22406  15.956  11.136  12.885 -0.0972  0.2621 -0.2282
 5559W        W22407   7.129   8.578  15.990 -0.0331 -0.0841  0.1397
 5560W        W22408   5.872   6.642  12.260  0.3439  0.0363  0.0296
 5561W        W22409  13.425   4.022  12.804 -0.1435  0.2542 -0.1227
 5562W        W22410  10.448  15.660   3.926 -0.2449 -0.1797  0.2150
 5563W        W22411   7.791   8.427   4.376  0.1871 -0.0910 -0.1208
 5564W        W22412   4.891  16.257   0.613 -0.1809 -0.0787  0.1421
 5565W        W22413  11.552  12.637   4.446 -0.1177  0.2020 -0.3706
 5566W        W22414   9.839   5.546  12.958  0.1486  0.3656  0.0417
 5567W        W22415  11.735  16.546  13.640 -0.1669 -0.0526  0.1667
 5568W        W22416  10.529  16.304   4.570  0.0001  0.0668 -0.1398
 5569W        W22417   5.459  17.446   1.676 -0.1629  0.1855 -0.1913
 5570W        W22418  17.184   8.451  15.365 -0.2650  0.1344 -0.1427
 5571W        W22419  16.541  15.487   4.697 -0.2746  0.0876  0.2271
 5572W        W22420   0.076   0.422  12.276  0.0425 -0.1294  0.1696
 5573W        W22421   5.355   2.267  13.787 -0.1362 -0.3011 -0.2549
 5574W        W22422  14.561  14.160   1.280  0.3475  0.0253  0.0774
 5575W        W22423   1.782   9.621   1.756  0.0899 -0.0907  0.1213
 5576W        W22424   8.467  12.535  15.534  0.3548 -0.0238 -0.3400
 5577W        W22425   2.135  17.644  14.172 -0.0426  0.1426 -0.1257
 5578W        W22426   8.720  10.137  13.184  0.2876  0.2504 -0.0700
 5579W        W22427   1.364  11.133  14.731 -0.0380  0.0191 -0.0564
 5580W        W22428   2.880   6.532  12.168  0.2021 -0.0896 -0.0911
 5581W        W22429  16.735  10.979   1.328 -0.0400  0.0862 -0.3918
 5582W        W22430  13.478   0.927  14.941  0.4924  0.1595 -0.1911
 5583W        W22431   4.440   9.718   2.606  0.1907 -0.1766  0.4379
 5584W        W22432  17.127   6.857   4.579 -0.1058  0.1282  0.2976
 5585W        W22433  17.616   6.140  11.538 -0.5231 -0.0332 -0.1617
 5586W        W22434   1.853   8.298   4.611 -0.1469  0.2668 -0.2647
 5587W        W22435   9.120  17.178  12.590 -0.1642  0.2683 -0.0219
 5588W        W22436   1.388   1.306   0.532  0.0746  0.3335  0.0461
 5589W        W22437  18.037   4.934  14.225 -0.0478  0.0458 -0.3770
 5590W        W22438   1.340   2.274  15.876 -0.0741  0.0392  0.0030
 5591W        W22439  15.421  17.249   3.521 -0.0037 -0.1978  0.0439
 5592W        W22440   1.770   8.597   1.299  0.1195 -0.1882  0.1053
 5593W        W22441   2.051   0.732  12.346 -0.0785  0.0778 -0.0633
 5594W        W22442  15.108   7.494   5.946 -0.3274  0.3088 -0.1819
 5595W        W22443   8.735  12.217  12.256 -0.1093 -0.2069 -0.1140
 5596W        W22444   1.005  11.145  12.902  0.0753  0.0355  0.2515
 5597W        W22445  16.363   5.528   1.231  0.4167  0.0108 -0.1383
 5598W        W22446  15.813   4.038  12.313  0.3090 -0.0377 -0.3249
 5599W        W22447   9.346   8.919  10.140 -0.0313  0.1800  0.1690
 5600W        W22448  13.783   7.329  11.902 -0.1634 -0.2943 -0.1151
 5601W        W22449  12.979   1.041  12.949 -0.1989  0.3367 -0.0936
 5602W        W22450   8.094   7.458  11.574 -0.0172 -0.0986 -0.2428
 5603W        W22451   2.682  17.499   3.982  0.0692  0.2219 -0.1334
 5604W        W22452  14.806   6.385  15.330 -0.3619 -0.3661 -0.0925
 5605W        W22453   6.456  13.286  12.476 -0.0285  0.0196 -0.2760
 5606W        W22454  11.538  11.148   1.728  0.0245  0.4050 -0.2236
 5607W        W22455   3.639   2.144  11.670  0.1404 -0.1072 -0.1080
 5608W        W22456   1.129   3.258  12.806  0.0850 -0.1068  0.2836
 5609W        W22457   7.774  11.962  13.102  0.0612  0.1144  0.0867
 5610W        W22458  17.032  14.928  12.979  0.2495 -0.0142  0.0480
 5611W        W22459  16.210   0.850  13.047  0.2861  0.0226 -0.1582
 5612W        W22460   7.807   0.765  11.359  0.2560 -0.1126 -0.2156
 5613W        W22461  14.795  11.431  14.549 -0.1422 -0.1128 -0.0645
 5614W        W22462  17.048   4.950  12.167 -0.1056  0.0122  0.1061
 5615W        W22463   5.518  11.418   0.287 -0.1191  0.2530  0.0061
 5616W        W22464   1.382  12.668  12.062  0.0031 -0.0531 -0.0541
 5617W        W22465   2.828   8.358  14.289 -0.1224 -0.1641 -0.2080
 5618W        W22466   4.316  12.045  11.651 -0.0316 -0.4036 -0.0055
 5619W        W22467   8.177   6.633  12.912 -0.0082  0.1198 -0.3163
 5620W        W22468   8.536  14.802  13.806  0.3460 -0.0246  0.0311
 5621W        W22469  15.550   6.569  15.696 -0.0970  0.1214  0.0828
 5622W        W22470  11.556   4.240  12.405  0.0212  0.0180 -0.1716
 5623W        W22471   7.271   4.206  11.573 -0.0589  0.1191  0.0352
 5624W        W22472  11.309   7.042  11.611  0.1368  0.1080  0.1210
 5625W        W22473   6.324   3.135   0.078  0.0626 -0.2375  0.0001
 5626W        W22474  12.790   3.034   0.526 -0.0840 -0.3075  0.1444
 5627W        W22475  15.912  12.515  15.024 -0.3881  0.0469  0.1294
 5628W        W22476  14.613   1.303   4.487  0.0109  0.3137 -0.1002
 5629W        W22477  16.223   9.507   0.316  0.1457  0.2843  0.0994
 5630W        W22478  11.445   9.673  14.752 -0.2108 -0.1831 -0.1554
 5631W        W22479  16.298   6.485  15.101  0.0107  0.1388 -0.1735
 5632W        W22480  16.839   1.457   0.839 -0.5746 -0.2323  0.1591
 5633W        W22481  11.337  13.564   4.728 -0.1682 -0.1230  0.0657
 5634W        W22482   8.050  14.068  14.557 -0.1781 -0.2891  0.0985
 5635W        W22483  14.625   7.622   4.212 -0.0707 -0.1325  0.0222
 5636W        W22484   9.061   1.180   2.341  0.1405  0.1042  0.3951
 5637W        W22485  14.096  17.579   3.346 -0.0867  0.0972 -0.0079
 5638W        W22486   9.008   8.468   0.824 -0.2643  0.1795 -0.0354
 5639W        W22487   7.032   0.607  12.351  0.1558 -0.2167  0.3925
 5640W        W22488   9.720  17.854   0.222 -0.1277  0.0008  0.1562
 5641W        W22489  15.433  14.565  16.145  0.0505  0.1069 -0.2053
 5642W        W22490  16.337  16.306   0.151 -0.0876 -0.0182 -0.3697
 5643W        W22491  17.732   2.169  11.625 -0.1432 -0.2311 -0.1357
 5644W        W22492   8.380   8.638   2.447 -0.2597 -0.1466 -0.0114
 5645W        W22493   4.052   7.603   3.078 -0.0239  0.0309 -0.2489
 5646W        W22494  12.661   6.374  13.249 -0.0032  0.0251 -0.2143
 5647W        W22495  13.161   7.655   1.175 -0.1558 -0.0788 -0.0064
 5648W        W22496  13.553   8.142  15.007  0.1703 -0.2625  0.2168
 5649W        W22497  17.179   3.670  14.624 -0.1681 -0.2321 -0.2767
 5650W        W22498  15.418  15.965  13.713 -0.2485 -0.1167 -0.2665
 5651W        W22499  16.594  13.248  14.086  0.1625 -0.0407  0.0084
 5652W        W22500   0.216  14.743   3.951 -0.0005  0.1351  0.1218
 5653W        W22501  16.412  13.124  11.706  0.4140  0.4372 -0.1197
 5654W        W22502  14.434  10.440   4.666 -0.1664  0.1389 -0.0648
 5655W        W22503   1.298  11.895  14.547 -0.1569  0.1761 -0.1118
 5656W        W22504   8.311   7.451   2.932 -0.1904  0.2850 -0.0838
 5657W        W22505   9.276  15.381   2.215 -0.0473 -0.1968 -0.1082
 5658W        W22506  16.218   4.300   0.147  0.0823 -0.1592 -0.1633
 5659W        W22507   6.471  13.287   4.732 -0.0948  0.2503  0.0885
 5660W        W22508  16.790  16.790   2.370 -0.0431  0.1017 -0.0725
 5661W        W22509   9.064   9.571   1.896  0.1255 -0.0141 -0.2076
 5662W        W22510   7.943  10.041  12.392  0.0030  0.0505  0.0993
 5663W        W22511   4.258  12.853   3.810  0.2182 -0.4881 -0.3066
 5664W        W22512   6.040   0.299   3.258 -0.1330 -0.1007  0.2310
 5665W        W22513  12.314   1.743  13.407  0.0946 -0.0424  0.2194
 5666W        W22514  10.785   7.024   1.388 -0.0098 -0.1445  0.4119
 5667W        W22515   5.332   1.010   0.701  0.3599  0.0431  0.1514
 5668W        W22516  12.618   7.903   4.062  0.2869  0.0374  0.2587
 5669W        W22517   4.983  11.727   0.357  0.0734  0.3664  0.0257
 5670W        W22518   2.385  12.164   1.822  0.0782  0.2749 -0.0179
 5671W        W22519   9.563  11.020  13.545 -0.0588  0.0489  0.1068
 5672W        W22520   7.345  13.148   1.467  0.2021  0.0066  0.0022
 5673W        W22521   4.530  12.123   3.521 -0.1196  0.1297  0.2612
 5674W        W22522  12.009  13.183  13.085  0.2030 -0.0815 -0.1075
 5675W        W22523  15.477   0.696  13.853 -0.1854  0.1179 -0.0624
 5676W        W22524   5.532   1.955   3.621 -0.3709 -0.1195  0.0207
 5677W        W22525   9.444   3.978   3.372 -0.0189 -0.1620  0.2472
 5678W        W22526  11.742  10.573   5.128 -0.2945 -0.0042 -0.1073
 5679W        W22527  16.857  17.316   2.601 -0.0962 -0.0115  0.2971
 5680W        W22528   8.428   0.003  11.484 -0.3739 -0.1967 -0.1305
 5681W        W22529   1.436   9.312  12.040 -0.1702 -0.1027 -0.3582
 5682W        W22530   0.361   2.548   0.685  0.2302 -0.0757 -0.0895
 5683W        W22531  14.905   0.573   0.723 -0.0899 -0.0550  0.0692
 5684W        W22532  17.217   8.196   1.190 -0.2412  0.0413 -0.0220
 5685W        W22533   7.915  12.507  12.909 -0.0481 -0.0115 -0.1979
 5686W        W22534  16.219   5.793   3.128  0.1055 -0.0782 -0.1646
 5687W        W22535   4.544   6.195  14.307  0.0670  0.0869  0.1482
 5688W        W22536  10.119  15.552  11.906  0.1730  0.0631 -0.1175
 5689W        W22537   8.253  11.637   2.674  0.1487  0.0427  0.0287
 5690W        W22538  11.951  16.790  13.223  0.3634  0.1822  0.0388
 5691W        W22539   6.560  11.491   3.717 -0.0520  0.0313  0.0350
 5692W        W22540   2.531  10.736  14.335 -0.4441 -0.0291  0.0333
 5693W        W22541  16.281  17.612   3.543  0.0994  0.4506 -0.0289
 5694W        W22542  11.889   5.077   3.032 -0.0564  0.1899 -0.0276
 5695W        W22543   3.042  15.199  10.757  0.2183  0.2967 -0.0579
 5696W        W22544  16.299  15.980   2.757  0.0252 -0.2232 -0.2604
 5697W        W22545  14.763  12.147   1.603 -0.4055 -0.1576 -0.0722
 5698W        W22546   5.203  12.518  12.507 -0.0053  0.3016  0.2858
 5699W        W22547  15.000   7.081  15.027 -0.1158  0.1614 -0.1051
 5700W        W22548   6.963  16.522   4.087  0.1882 -0.2333  0.0187
 5701W        W22549  10.701   0.721  12.718 -0.0698 -0.0349 -0.2120
 5702W        W22550   4.320  11.332  15.797  0.0939 -0.1578  0.2700
 5703W        W22551   9.806   2.133   3.361  0.1302 -0.1680  0.4564
 5704W        W22552  13.969   0.668  12.390 -0.0598  0.0525 -0.2114
 5705W        W22553   6.388   0.211  14.007 -0.2762 -0.1001 -0.1427
 5706W        W22554   8.272  13.345   0.757  0.1724 -0.0148  0.1234
 5707W        W22555   1.627   5.515   4.429  0.1187 -0.1158  0.1618
 5708W        W22556  13.821   6.584  15.779 -0.1668 -0.2470  0.2435
 5709W        W22557  10.763   2.786   3.748  0.0657  0.1189 -0.0761
 5710W        W22558   4.907  17.599  11.285 -0.1735  0.0867  0.3106
 5711W        W22559   5.930  13.615   0.254  0.0165 -0.0333  0.2803
 5712W        W22560  13.158  17.467   3.926  0.0811  0.2001 -0.1008
 5713W        W22561   5.887  14.764   1.622  0.1746 -0.0987 -0.1779
 5714W        W22562  12.937   5.319   4.092 -0.0709 -0.2267 -0.0299
 5715W        W22563  14.679   9.249  14.972 -0.4003 -0.0259  0.0670
 5716W        W22564  14.010   7.632  12.261 -0.3243 -0.3719 -0.1918
 5717W        W22565   5.529  17.769  14.969 -0.0721 -0.4232 -0.1037
 5718W        W22566   1.959   7.265  15.533 -0.2228 -0.0904  0.0128
 5719W        W22567   4.584   0.576  12.604  0.1638 -0.2048 -0.1271
 5720W        W22568   6.634   1.624   1.465 -0.2100  0.2743  0.0343
 5721W        W22569  15.015   4.568   1.600  0.1976 -0.2046  0.0799
 5722W        W22570   1.236  16.818   2.969  0.1713  0.1316 -0.2715
 5723W        W22571  17.731  15.714  15.081 -0.0783  0.1224 -0.2664
 5724W        W22572  12.605   4.173   4.317  0.2002  0.0737 -0.0474
 5725W        W22573   4.045   7.956   3.916 -0.0032  0.0237 -0.0691
 5726W        W22574   1.469   8.164   4.865  0.1453 -0.2571  0.0422
 5727W        W22575  14.822   3.491   0.829 -0.2519 -0.0649  0.1771
 5728W        W22576   2.776   1.813   4.949  0.2198  0.1930 -0.1155
 5729W        W22577  16.207   7.492  12.690 -0.0085 -0.1463  0.0840
 5730W        W22578  13.801  13.624  16.150  0.2147  0.3091 -0.0610
 5731W        W22579  15.971   0.992   0.057 -0.1654  0.0045 -0.1555
 5732W        W22580   6.243  17.750  12.688  0.0060 -0.1834 -0.2146
 5733W        W22581   1.372   5.732   2.724 -0.2017  0.1040  0.2117
 5734W        W22582  10.240   4.922   2.036  0.3716 -0.1529 -0.0284
 5735W        W22583  11.587  16.824  14.439  0.2473  0.2594 -0.1146
 5736W        W22584   9.478   1.474   1.604 -0.0090  0.1629  0.2708
 5737W        W22585   0.660   4.001   3.884  0.1122 -0.2779 -0.2622
 5738W        W22586   9.246  18.035  13.597 -0.3120  0.1929  0.1754
 5739W        W22587   6.340  18.069   1.153 -0.2414  0.1608  0.0230
 5740W        W22588  12.599   7.018  15.943 -0.2383  0.0678 -0.2532
 5741W        W22589   5.136  10.816   2.096 -0.0052 -0.2629  0.0809
 5742W        W22590   5.274  13.185   1.102 -0.3163  0.2996  0.0674
 5743W        W22591  14.822  14.633  12.052 -0.2097  0.1388  0.1648
 5744W        W22592   0.560  14.731   2.472  0.1335  0.0509 -0.4739
 5745W        W22593   6.350   9.126  12.721 -0.0459 -0.3863 -0.1896
 5746W        W22594  13.051   0.047  12.109  0.1977  0.3144  0.1618
 5747W        W22595   0.253  11.413  11.778  0.0096  0.1762  0.2686
 5748W        W22596  17.264   8.658   4.525  0.1582  0.3105  0.0543
 5749W        W22597  13.279  13.205  15.842  0.3616 -0.1050  0.1675
 5750W        W22598  11.472  14.932  14.824  0.1917 -0.1927 -0.2652
 5751W        W22599   0.477  10.966  11.836  0.1143 -0.2146 -0.2239
 5752W        W22600  12.817   6.519   3.108 -0.2118  0.1774 -0.4306
 5753W        W22601  10.253  17.351  14.593  0.1720 -0.1358  0.4740
 5754W        W22602  10.228  15.179  15.624  0.3458  0.3165 -0.1707
 5755W        W22603  14.425   9.573   4.825  0.2962 -0.4316  0.2071
 5756W        W22604   0.154   4.989   4.529 -0.1912  0.0092  0.1003
 5757W        W22605  11.871  16.242   5.881  0.1377 -0.0743  0.0728
 5758W        W22606  15.716   5.628   4.400  0.0417 -0.1267 -0.3794
 5759W        W22607   8.701   0.835  15.415 -0.0540 -0.0743 -0.2125
 5760W        W22608   5.856  17.188   1.836  0.0956  0.2531 -0.1648
 5761W        W22609   9.592  12.433   5.243  0.1022  0.0800  0.1226
 5762W        W22610   2.964  12.993   0.592 -0.2785  0.0052  0.0833
 5763W        W22611  15.119   5.857  16.093  0.0719 -0.0478 -0.0072
 5764W        W22612  16.058   5.746  13.082 -0.2319  0.1265  0.4707
 5765W        W22613   1.284  10.859  13.150  0.2972  0.4735  0.1662
 5766W        W22614  13.575  14.014  13.041 -0.1287 -0.1744  0.0655
 5767W        W22615  16.654   7.356   1.887 -0.2227  0.1245 -0.2874
 5768W        W22616   6.050  15.738   6.030 -0.0755  0.3447  0.0194
 5769W        W22617  17.761   1.134  11.239 -0.0780  0.2833 -0.4818
 5770W        W22618   4.147  17.774   3.678  0.1042  0.3908 -0.0026
 5771W        W22619  13.474   0.742  15.396 -0.0421  0.2588 -0.0645
 5772W        W22620   9.113  16.111   5.692 -0.4713  0.1675  0.2164
 5773W        W22621  14.561  10.144  13.487  0.1456  0.2265 -0.0392
 5774W        W22622  10.944   3.223  11.391  0.1159  0.1118  0.0254
 5775W        W22623   2.544  11.730   2.033  0.2852  0.0848 -0.1335
 5776W        W22624  10.884   6.992   4.397  0.1056  0.0483 -0.1363
 5777W        W22625  16.170   9.932  15.925  0.1728  0.0326 -0.0375
 5778W        W22626  11.252   6.582  14.178  0.3938 -0.3473  0.0732
 5779W        W22627   1.661   1.977  13.121 -0.1437  0.2863 -0.1477
 5780W        W22628  14.828   0.007   5.035 -0.2530  0.3036  0.1846
 5781W        W22629  12.212  11.235  12.857 -0.0048 -0.0504  0.0320
 5782W        W22630  16.299   2.894  12.807  0.2698  0.3182  0.3586
 5783W        W22631   7.827  10.443   3.902  0.1496  0.0289  0.2228
 5784W        W22632  14.192  12.305   4.200  0.2018 -0.2087  0.1301
 5785W        W22633   1.985  10.008  14.539  0.2218 -0.2945  0.4257
 5786W        W22634  16.219   7.287   4.720  0.1661 -0.0742  0.4595
 5787W        W22635  11.955  18.006  15.270 -0.2099 -0.1709  0.0070
 5788W        W22636  18.086  10.583  10.599 -0.0091 -0.4710 -0.2539
 5789W        W22637   3.421  13.942  14.573 -0.3101  0.0535 -0.0880
 5790W        W22638   8.114  10.963   5.388  0.0965  0.2249  0.2347
 5791W        W22639   5.724  15.089  15.979  0.2322 -0.1769  0.1320
 5792W        W22640   0.121  11.379  12.936 -0.1321  0.0150 -0.2848
 5793W        W22641   5.389   4.878   2.992  0.1005 -0.2345 -0.0998
 5794W        W22642  10.110  15.541  14.482 -0.5410  0.0885  0.0446
 5795W        W22643   7.330  13.112   5.011 -0.2780  0.2261  0.1689
 5796W        W22644  11.142   3.494   0.843  0.1642  0.2547 -0.2175
 5797W        W22645  18.055  15.238  13.398 -0.1004 -0.0606  0.0748
 5798W        W22646  11.523   1.006   5.129  0.2063 -0.2287  0.2197
 5799W        W22647   8.884  15.349   2.517 -0.1935  0.2277 -0.0255
 5800W        W22648   5.625   1.072   3.580 -0.0165  0.0355  0.1367
 5801W        W22649  14.876  14.941   1.873  0.0231  0.1180  0.1536
 5802W        W22650   8.794  11.246   3.299 -0.0040  0.2344  0.0547
 5803W        W22651  16.413  10.095  14.681 -0.2029  0.0575 -0.2090
 5804W        W22652   4.860   7.329   4.289 -0.1344  0.2596  0.0807
 5805W        W22653   3.246   4.553   1.541 -0.2360 -0.0856 -0.1267
 5806W        W22654   8.422  12.992   4.826  0.0193 -0.0347 -0.2304
 5807W        W22655   5.104  16.722   1.327  0.2253 -0.1288 -0.4087
 5808W        W22656   9.855   4.649  12.052 -0.1651  0.3039  0.2224
 5809W        W22657   1.103  13.693  14.733 -0.3712  0.0077 -0.1359
 5810W        W22658  16.077   1.611  10.986  0.0419  0.0694 -0.3174
 5811W        W22659  17.771  12.657  13.645  0.0285  0.0903 -0.1758
 5812W        W22660   1.424  15.795   1.346  0.0664  0.1270 -0.0214
 5813W        W22661   5.861   2.489  13.661  0.2000  0.0468  0.0593
 5814W        W22662  12.782   6.783   1.245 -0.2157 -0.0792  0.1863
 5815W        W22663  14.773  12.064   0.172  0.3511  0.1105  0.2008
 5816W        W22664  11.779   3.880  12.786  0.0775  0.0682 -0.2786
 5817W        W22665  15.606  13.863   2.108 -0.1158 -0.1654  0.3079
 5818W        W22666   5.487  14.180   4.877  0.1782  0.2581  0.2685
 5819W        W22667  12.201   3.361  15.924 -0.0958 -0.0990  0.0406
 5820W        W22668  10.622   3.486  11.743  0.0391  0.0075 -0.1599
 5821W        W22669  17.782   6.832  13.054  0.0966  0.2130 -0.0705
 5822W        W22670  14.779   0.285   4.201 -0.0130  0.1629 -0.4243
 5823W        W22671   4.767   7.567   0.029  0.0239 -0.1490  0.0151
 5824W        W22672   2.489   7.225  11.806  0.0358  0.3584 -0.4171
 5825W        W22673   7.205  11.886   4.254 -0.2377  0.0162 -0.1010
 5826W        W22674   1.798  10.699  13.904  0.3711 -0.0171  0.0248
 5827W        W22675   8.165   7.184  10.948 -0.1386  0.1003  0.2997
 5828W        W22676  16.552   0.590  11.886 -0.0817 -0.1230 -0.0547
 5829W        W22677  10.105   1.157   0.061 -0.3943 -0.1368  0.1762
 5830W        W22678  17.157   4.278  15.984  0.0490  0.1885 -0.0513
 5831W        W22679  10.818   6.759  12.204  0.1741 -0.1759  0.2163
 5832W        W22680  14.883  10.597  13.579  0.1640 -0.2709  0.0066
 5833W        W22681   1.717  12.402   0.861 -0.1137 -0.0643  0.3745
 5834W        W22682   6.336   2.159   3.241 -0.1582 -0.0152 -0.0378
 5835W        W22683   7.033   2.668  11.876 -0.1449 -0.1436  0.1464
 5836W        W22684  15.704  13.387  15.463 -0.2337 -0.0395 -0.0856
 5837W        W22685   7.987  10.650  11.388  0.1242  0.1576  0.1570
 5838W        W22686   3.190  15.320  13.039 -0.1772  0.1775 -0.2159
 5839W        W22687   2.426  13.727  14.543 -0.1878  0.3467  0.0160
 5840W        W22688  10.863   7.095  16.245 -0.4386 -0.1110 -0.2161
 5841W        W22689   2.273  10.717   4.627  0.0956 -0.2676 -0.1318
 5842W        W22690  14.069  15.942   2.157 -0.1674 -0.0838  0.0825
 5843W        W22691   4.581  11.273  12.716 -0.0310  0.0374  0.1332
 5844W        W22692  13.146   5.832  15.016 -0.0694 -0.0437 -0.0377
 5845W        W22693  16.045  11.933   4.654  0.1264 -0.2376 -0.1988
 5846W        W22694  17.908   6.140  15.970  0.2091  0.0539 -0.2382
 5847W        W22695  15.055  16.919   2.514 -0.1973 -0.2260 -0.0829
 5848W        W22696   6.063  12.851   9.903 -0.5148 -0.4238  0.0314
 5849W        W22697  15.639   5.688  11.646  0.2255  0.1981 -0.1347
 5850W        W22698   9.482   2.408   4.255  0.2153 -0.0642  0.1418
 5851W        W22699   3.356  16.267   5.320  0.0379 -0.0202  0.0095
 5852W        W22700   0.793  10.046   5.121 -0.1036  0.0779  0.0556
 5853W        W22701   8.445   4.904  11.829 -0.5521  0.0813 -0.0244
 5854W        W22702   1.894   9.615   2.323  0.2848 -0.1551  0.3464
 5855W        W22703   2.211   0.641  13.273  0.3274 -0.3701 -0.0148
 5856W        W22704   2.757   8.301  13.377  0.1757  0.0927  0.1996
 5857W        W22705  17.348   3.367   2.485  0.0003  0.1354  0.1971
 5858W        W22706  12.202  12.498  14.858 -0.3206  0.1118 -0.3169
 5859W        W22707  13.446   3.178   2.054 -0.0251 -0.0190  0.1116
 5860W        W22708   6.267   8.935   2.164  0.0398 -0.0091  0.3034
 5861W        W22709  17.824  15.749  12.510 -0.0943 -0.3680  0.1573
 5862W        W22710  11.416   2.398  11.141  0.0742  0.3587 -0.2803
 5863W        W22711  11.718   4.206  15.932 -0.0171  0.3463 -0.4524
 5864W        W22712   7.166   8.394  13.595  0.0047  0.0287  0.0468
 5865W        W22713   3.739   0.642   1.591 -0.2274 -0.0730 -0.1089
 5866W        W22714   5.462   1.501  14.728  0.1296 -0.0089  0.1329
 5867W        W22715   8.417  11.944  15.277  0.2396  0.0647 -0.2898
 5868W        W22716  13.530   3.610   1.714  0.1685 -0.1068 -0.0154
 5869W        W22717   9.406   4.288   2.908  0.1094 -0.0194  0.0484
 5870W        W22718  16.061   0.426   4.714  0.0685  0.1566  0.1191
 5871W        W22719   1.079  14.794   4.591 -0.1986  0.3728  0.3042
 5872W        W22720  12.503   2.494  12.115  0.0975  0.0629 -0.0121
 5873W        W22721   3.494  10.142  14.426  0.2696 -0.2099 -0.1305
 5874W        W22722  13.338   4.438   0.340 -0.3772  0.3016 -0.2673
 5875W        W22723   1.004   7.513   3.920 -0.0752  0.0538 -0.0228
 5876W        W22724   6.192  13.813  16.174  0.1520 -0.1109 -0.1633
 5877W        W22725   5.266  12.290   4.445  0.0567 -0.0202 -0.1882
 5878W        W22726   3.832  14.670  15.079  0.3129 -0.0748  0.1493
 5879W        W22727  12.251  12.877   5.121  0.1174 -0.0063 -0.0055
 5880W        W22728  10.117   8.614  14.050 -0.0968 -0.1638 -0.0448
 5881W        W22729  15.668   4.903  12.381  0.0393 -0.1392 -0.0080
 5882W        W22730  11.293   3.700   3.960 -0.0677  0.0060  0.1649
 5883W        W22731  10.956   4.911   4.005  0.0258  0.1481 -0.2016
 5884W        W22732  15.120  11.867  10.617 -0.1684 -0.0542  0.0132
 5885W        W22733   9.324   0.273  15.459  0.0423 -0.3208  0.4223
 5886W        W22734  16.265  16.030  12.993 -0.2418  0.4567  0.1890
 5887W        W22735   0.175  17.899  15.178  0.1079 -0.0624  0.1933
 5888W        W22736   7.795   3.830  11.869  0.2005 -0.2010  0.0217
 5889W        W22737   8.548  15.657   0.159  0.2818 -0.0842  0.2945
 5890W        W22738  18.081   5.724   1.969  0.2705 -0.1408  0.2906
 5891W        W22739   0.866  11.296   3.658 -0.1377  0.1588  0.2590
 5892W        W22740   8.222  16.517  11.120 -0.4513  0.1267 -0.1312
 5893W        W22741   5.262  14.436  11.947  0.1492 -0.2599  0.1165
 5894W        W22742   2.293  15.280   4.198  0.2443 -0.3967  0.1573
 5895W        W22743  12.956   3.688   3.594  0.1163  0.1156  0.2609
 5896W        W22744  15.748  16.237   1.404  0.0063  0.0675  0.0483
 5897W        W22745   3.503  13.127   5.016  0.1112 -0.0478 -0.0912
 5898W        W22746  12.258  10.442   0.208 -0.0701 -0.2480  0.0189
 5899W        W22747   6.355   3.813  12.218 -0.0914 -0.1070  0.2453
 5900W        W22748   5.508   0.545   0.179 -0.2253 -0.4668 -0.1211
 5901W        W22749   8.162   9.731  13.381  0.1147  0.2706 -0.1111
 5902W        W22750  17.186   2.069  13.587 -0.0879 -0.0274 -0.2353
 5903W        W22751   8.465   7.477   1.821 -0.0605  0.2027  0.1934
 5904W        W22752  16.865  10.958  11.729  0.2883  0.2433  0.1079
 5905W        W22753   3.707   8.890  15.002  0.4614 -0.0862  0.1120
 5906W        W22754   6.798  13.793  12.649 -0.2178 -0.1960 -0.1301
 5907W        W22755  14.445  16.834   4.945 -0.0722 -0.4049 -0.0122
 5908W        W22756   9.259  11.884  15.561  0.2801  0.2021 -0.0183
 5909W        W22757   0.145   5.305   2.141 -0.0518 -0.3021 -0.1533
 5910W        W22758   6.551   4.073   3.006  0.0015  0.2462 -0.1756
 5911W        W22759   0.787   5.718  15.018 -0.0274 -0.0697  0.2080
 5912W        W22760  17.861   2.980   1.187 -0.1468  0.2022  0.0483
 5913W        W22761   3.194  12.937  15.894 -0.2519  0.0142 -0.0662
 5914W        W22762   4.786   2.998   0.646 -0.0201  0.1353  0.1270
 5915W        W22763   5.200  16.804  14.205  0.0186  0.0358  0.2649
 5916W        W22764   9.717  16.720   0.913 -0.1275  0.3482  0.0997
 5917W        W22765  13.759  15.318   2.714 -0.0523  0.0331  0.6888
 5918W        W22766   5.835  17.190   3.184  0.2418 -0.0622 -0.0476
 5919W        W22767  12.748  14.432   5.025  0.0891 -0.2392  0.1361
 5920W        W22768  10.251  16.256  13.393  0.0470  0.0604 -0.0899
 5921W        W22769  14.436  13.285  15.759  0.4300 -0.1108 -0.3546
 5922W        W22770  11.415  16.552  13.284 -0.1392 -0.1334  0.3481
 5923W        W22771  10.864   7.973   1.375 -0.2640 -0.0867  0.0612
 5924W        W22772  10.053  14.693  12.087  0.1437 -0.3573 -0.2335
 5925W        W22773   0.346  12.191   1.650 -0.2870 -0.3306  0.1396
 5926W        W22774  15.585   0.889   0.695  0.2339 -0.4679  0.2824
 5927W        W22775  16.790   4.109   1.302 -0.3028 -0.1401 -0.0081
 5928W        W22776  15.560  11.093   1.894  0.2497  0.0102  0.0778
 5929W        W22777   5.807   8.966  13.468 -0.1321 -0.1352  0.1578
 5930W        W22778   1.594   4.862   0.836  0.1344  0.2897 -0.1745
 5931W        W22779   6.321   7.891  14.981 -0.0185 -0.2186 -0.2409
 5932W        W22780  12.027  14.525  15.562  0.3188 -0.2025 -0.2939
 5933W        W22781  11.077  10.578  12.146 -0.3156  0.0731  0.0225
 5934W        W22782   1.747   2.473  13.913 -0.1398  0.5985  0.2879
 5935W        W22783   2.968  11.218  12.541  0.2488 -0.1295  0.2227
 5936W        W22784   0.780   2.663   2.794  0.0330  0.1874  0.0462
 5937W        W22785  10.297   0.689   0.750  0.0688 -0.1589 -0.2837
 5938W        W22786   8.317   8.964  11.401 -0.3099  0.0995  0.0536
 5939W        W22787  17.061   4.431   0.385 -0.0498  0.1524  0.1306
 5940W        W22788   7.005   8.749   5.451 -0.1894 -0.3916 -0.0386
 5941W        W22789   3.182  17.461   3.967 -0.1229 -0.0039 -0.1456
 5942W        W22790   7.552   2.769  14.544 -0.1712 -0.0001 -0.0963
 5943W        W22791  18.061   8.679  15.323 -0.2843 -0.2384 -0.0330
 5944W        W22792  17.403  13.894  12.824 -0.0966 -0.3687  0.0279
 5945W        W22793   4.306  14.672   0.089 -0.0138 -0.0683 -0.0311
 5946W        W22794  12.673  11.572   6.323  0.0234  0.4843 -0.1967
 5947W        W22795  14.822   3.219   2.329 -0.1365  0.1315  0.1972
 5948W        W22796   2.862  10.927   1.186  0.3599  0.1619 -0.1180
 5949W        W22797   6.242  15.350  15.318 -0.0044  0.1346  0.1054
 5950W        W22798   7.647  11.509   4.243 -0.0029 -0.3025  0.0611
 5951W        W22799  11.714   2.363  11.554  0.1226 -0.0822  0.2004
 5952W        W22800   8.339  12.903  12.448  0.1988  0.2361  0.1623
 5953W        W22801  17.134   3.967   4.197 -0.2804  0.4191  0.1292
 5954W        W22802  15.658   3.651   1.916 -0.0735  0.1831  0.2052
 5955W        W22803  10.932   9.965   0.556 -0.0908 -0.3924  0.0760
 5956W        W22804   8.621   0.931  14.922 -0.0811  0.4233 -0.1221
 5957W        W22805  13.894   2.990   4.704 -0.0577 -0.1376 -0.2031
 5958W        W22806   9.761  15.848   0.262  0.0223 -0.0955  0.0768
 5959W        W22807  11.332   8.804  15.898  0.0449 -0.0660 -0.3327
 5960W        W22808   0.447  14.856  14.238  0.1398  0.1798  0.1572
 5961W        W22809  15.510   6.485   1.706  0.0306  0.0084  0.1825
 5962W        W22810  15.749   7.446  11.587 -0.1615  0.1258 -0.0562
 5963W        W22811   5.864  12.313   3.148 -0.1557 -0.1677  0.2557
 5964W        W22812   8.793   1.705   4.072  0.2751 -0.2965  0.2821
 5965W        W22813   7.922  16.075  12.634  0.0537 -0.1139 -0.1724
 5966W        W22814   2.251   4.869   0.878  0.1767 -0.0981  0.2577
 5967W        W22815   6.091   7.029  14.899  0.0533 -0.2168  0.1527
 5968W        W22816   7.893  15.258   3.417 -0.1055 -0.1449 -0.2535
 5969W        W22817   3.853  17.870  14.771 -0.0017 -0.0333 -0.3489
 5970W        W22818  11.530   9.428  13.781 -0.0440  0.0205 -0.4015
 5971W        W22819  13.354  17.851   1.370 -0.2627  0.0958  0.1043
 5972W        W22820   9.647   9.378  15.316 -0.0090  0.3847  0.0117
 5973W        W22821   7.131   4.621  11.315  0.0403 -0.0425 -0.0357
 5974W        W22822   5.819   1.138  11.693 -0.2140 -0.3188 -0.0123
 5975W        W22823   9.180  13.375   3.709 -0.0189  0.1900  0.1283
 5976W        W22824  12.463   6.893  11.450 -0.0395 -0.4123 -0.1672
 5977W        W22825   6.233  17.107   5.230 -0.0272  0.1374  0.0168
 5978W        W22826  16.091   6.800  13.221  0.1819  0.3072  0.0371
 5979W        W22827   5.603   2.841  15.978  0.1942 -0.0231 -0.2774
 5980W        W22828   1.785   2.618   3.384 -0.0531 -0.0733  0.1285
 5981W        W22829  12.556  11.404   0.579  0.1324 -0.0696 -0.2245
 5982W        W22830   7.718   7.583  11.949  0.0654  0.1514 -0.0931
 5983W        W22831   4.570   6.123  15.506  0.0466 -0.1864  0.2924
 5984W        W22832   0.718  16.566   3.515  0.1383  0.1946  0.0288
 5985W        W22833   6.007   4.100  11.881  0.1200  0.0430 -0.0654
 5986W        W22834  14.509   8.788  13.257  0.1954  0.0870 -0.0005
 5987W        W22835   7.014  13.576  13.089  0.1476  0.1244 -0.0905
 5988W        W22836   2.012   9.612  15.510  0.0348  0.1824 -0.0882
 5989W        W22837   2.673   6.675  15.605 -0.0270  0.3586 -0.4020
 5990W        W22838   8.772  10.530   0.807  0.1340  0.2685 -0.1736
 5991W        W22839  10.767   0.307  13.542 -0.0501 -0.2330  0.2310
 5992W        W22840   2.495   0.807   3.693 -0.1911  0.0653  0.0670
 5993W        W22841   1.517   3.127   0.192 -0.2075  0.0457  0.2582
 5994W        W22842   5.086  17.637  11.784 -0.0219  0.0861  0.0999
 5995W        W22843  17.068  11.885  12.089 -0.1834  0.1699  0.0616
 5996W        W22844  16.964   4.126  15.546 -0.0077  0.1884 -0.2941
 5997W        W22845  15.631  10.420   3.555  0.1290 -0.0160 -0.1778
 5998W        W22846   4.688   8.096   0.041  0.0150  0.1477  0.0644
 5999W        W22847  12.697   4.532  11.453 -0.2544 -0.1557 -0.0848
 6000W        W22848  13.843   4.231  12.634  0.1205  0.0724 -0.0689
 6001W        W22849  14.293   2.534   3.361  0.0688  0.1424  0.0093
 6002W        W22850   5.967  15.258   0.601  0.1485  0.0051 -0.2823
 6003W        W22851  13.808  15.708  13.814  0.1097 -0.0122 -0.0229
 6004W        W22852  14.674   1.976  12.675 -0.0259 -0.1811 -0.0760
 6005W        W22853   3.764   7.599   5.340  0.1143 -0.3130  0.0899
 6006W        W22854  13.347  12.096   4.646 -0.1745 -0.0859 -0.1016
 6007W        W22855   3.001   7.351  14.052 -0.1116 -0.1797 -0.1847
 6008W        W22856   6.690  14.971   0.132  0.0373 -0.3641  0.0326
 6009W        W22857   9.677  11.864   3.569  0.0963 -0.3686  0.1373
 6010W        W22858   3.809   5.769  15.251  0.1550  0.0504  0.0743
 6011W        W22859  11.621  15.119  13.337  0.1393 -0.1668 -0.0950
 6012W        W22860   6.805   5.046   4.659  0.2392 -0.1490 -0.1449
 6013W        W22861  17.292  16.420   3.519  0.2536 -0.0274 -0.2511
 6014W        W22862  16.142   3.036   1.560 -0.0445  0.0047  0.0928
 6015W        W22863  11.950   8.897   3.609 -0.1213  0.2083 -0.0900
 6016W        W22864   2.850  10.710  11.620 -0.1110 -0.0883  0.0334
 6017W        W22865  16.014   4.378   0.589  0.2485 -0.2061 -0.0400
 6018W        W22866   0.530  13.831  13.929 -0.0719  0.1884 -0.0457
 6019W        W22867  10.787   1.663  11.736  0.0373  0.4775  0.1210
 6020W        W22868   8.173  12.270  15.803 -0.0133  0.0616  0.3672
 6021W        W22869  12.983   6.048   1.751 -0.2377  0.1072 -0.0679
 6022W        W22870  11.499  15.912  11.888 -0.0481 -0.2879  0.3910
 6023W        W22871  13.325   7.812  16.242  0.2187 -0.0948  0.0472
 6024W        W22872   1.902   0.817   2.135 -0.0422  0.0896  0.0829
 6025W        W22873   1.289  11.648   3.734 -0.0764  0.0687  0.0195
 6026W        W22874  10.789  13.790   0.841 -0.1551 -0.3987 -0.0674
 6027W        W22875  14.078   9.532  13.864 -0.0056  0.2569 -0.0762
 6028W        W22876  17.045  16.612   5.463 -0.1767  0.2838 -0.0426
 6029W        W22877   5.460  13.763  13.291 -0.2037 -0.3124  0.1001
 6030W        W22878   7.589   4.577  11.464 -0.1734  0.2517 -0.0086
 6031W        W22879  17.440   3.390  11.441 -0.0348  0.0242  0.3603
 6032W        W22880  17.880   6.881   2.632  0.2019  0.4072  0.0899
 6033W        W22881   7.460   9.474   0.515  0.0212  0.3014 -0.2232
 6034W        W22882   7.063  14.872   1.092  0.0214 -0.2545 -0.2353
 6035W        W22883   1.585   8.716  12.176 -0.0631 -0.1654  0.1989
 6036W        W22884  14.180   3.280   4.344  0.0189 -0.1840  0.2488
 6037W        W22885  10.329  10.790   2.544  0.2879  0.1616 -0.0217
 6038W        W22886   3.043   1.633   3.832 -0.1335  0.1326  0.2200
 6039W        W22887   1.627  13.621  13.960 -0.0573 -0.0968 -0.0540
 6040W        W22888  10.809  15.445   5.123  0.0145  0.0913  0.2544
 6041W        W22889  16.653  17.733  15.848 -0.0165  0.0237 -0.2816
 6042W        W22890   0.930   8.353  13.138  0.2035  0.2479 -0.2231
 6043W        W22891   7.460  11.611   1.483 -0.1367  0.0583  0.3863
 6044W        W22892   1.578   5.556  12.633  0.2680  0.2431 -0.0824
 6045W        W22893  16.797  17.844  15.360  0.0961 -0.0309 -0.1529
 6046W        W22894   6.763   9.212   3.342  0.5198  0.1413  0.1336
 6047W        W22895  15.406   2.997  15.405  0.2750  0.1495 -0.2591
 6048W        W22896   6.161   3.519   5.047 -0.2196  0.3145  0.1865
 6049W        W22897  15.718  17.564  11.648  0.5623 -0.2471 -0.1846
 6050W        W22898  14.244   8.195   0.591 -0.2266 -0.2667 -0.2988
 6051W        W22899   1.440  17.556   5.100 -0.2188  0.0959 -0.2145
 6052W        W22900   0.814  11.890   2.798 -0.0073 -0.0318  0.0257
 6053W        W22901  10.127  16.799   1.206 -0.0028  0.0072 -0.1540
 6054W        W22902  12.205  11.732   1.025 -0.0101  0.0309  0.0657
 6055W        W22903   4.050   1.941  11.559  0.1232 -0.3817 -0.1836
 6056W        W22904   5.525   3.272  14.441  0.4306  0.0578 -0.1185
 6057W        W22905  15.051   3.462  11.492  0.0094 -0.2693  0.0981
 6058W        W22906   5.673   6.860  15.673  0.1514  0.2254 -0.1741
 6059W        W22907  16.683   4.568  11.379  0.1529  0.0172  0.2444
 6060W        W22908   8.149  10.982   2.269  0.2669  0.1563  0.0048
 6061W        W22909   9.633  10.819  11.957  0.3298 -0.0505 -0.1590
 6062W        W22910  14.216  16.026  15.462  0.4328  0.2396 -0.0525
 6063W        W22911  14.698  16.272   1.051 -0.1715 -0.1451  0.1048
 6064W        W22912  13.620  12.264   5.081  0.0788  0.0832  0.1274
 6065W        W22913  16.508  12.369  12.950 -0.2133 -0.1210  0.1060
 6066W        W22914   9.312   8.983  14.384 -0.3827 -0.1837 -0.1228
 6067W        W22915  16.127  14.021   3.875  0.0628  0.2891 -0.1305
 6068W        W22916   1.468  17.551   0.918 -0.0571 -0.1944 -0.1020
 6069W        W22917   2.179   9.035   3.953 -0.1423 -0.1385  0.0237
 6070W        W22918   5.539   6.147   0.218  0.1515  0.1447  0.0328
 6071W        W22919   9.694   0.878  11.471 -0.1635  0.2419  0.2275
 6072W        W22920   5.480   5.753   3.078  0.1059  0.1784 -0.2543
 6073W        W22921   1.633   8.031  12.120 -0.0565  0.1220 -0.1704
 6074W        W22922   8.305  10.118   2.812 -0.3017  0.1404  0.0968
 6075W        W22923   8.140  15.584  16.174 -0.0454 -0.0208  0.2824
 6076W        W22924   6.998  16.966  11.399  0.1900 -0.1884  0.1204
 6077W        W22925   8.739   0.999   3.283 -0.2691 -0.0830  0.0476
 6078W        W22926   6.819  11.833   1.349 -0.1905  0.1146 -0.1648
 6079W        W22927   6.689  15.158   2.173 -0.2089  0.3985  0.0755
 6080W        W22928   5.723   1.660   4.542 -0.1373  0.0187  0.1994
 6081W        W22929  16.282  12.427  12.028  0.4803  0.0671 -0.0538
 6082W        W22930   7.651   2.980   0.098  0.0366  0.3605  0.2028
 6083W        W22931  12.380  17.831   1.576 -0.0336 -0.1783  0.3437
 6084W        W22932   8.955  11.984   5.142  0.1391 -0.0822 -0.1484
 6085W        W22933   4.115  14.530  15.490  0.0601 -0.0043  0.0650
 6086W        W22934  17.624   9.580   4.009  0.0505  0.0288  0.1456
 6087W        W22935  10.456  12.285  14.928  0.1509 -0.0636  0.0850
 6088W        W22936  10.129   8.161   0.088  0.0197  0.0740  0.1962
 6089W        W22937  10.733  13.023  15.676  0.0342  0.1617  0.1288
 6090W        W22938   5.937  12.296  13.192 -0.1721  0.1794  0.0556
 6091W        W22939  15.045  16.702   1.031 -0.0077 -0.0533  0.4837
 6092W        W22940   9.752   6.707  14.915 -0.0721 -0.1125  0.0742
 6093W        W22941  17.718  14.910  13.595  0.0994 -0.0147 -0.0180
 6094W        W22942  17.488  12.480   0.734  0.0618  0.3187  0.1476
 6095W        W22943  12.677  11.846  13.479  0.1205  0.2345 -0.1847
 6096W        W22944  12.854  17.033   5.149 -0.2187 -0.2046 -0.1001
 6097W        W22945   9.701   5.298   0.236  0.2386  0.1699  0.0598
 6098W        W22946   3.965   5.360   3.490  0.2230 -0.0585 -0.0512
 6099W        W22947   0.397  13.314   0.299  0.1607 -0.1630  0.4128
 6100W        W22948  12.541  11.486  14.017 -0.0333  0.1486 -0.0166
 6101W        W22949  16.091   0.578  11.022 -0.0877 -0.1795 -0.0634
 6102W        W22950  13.231  15.895  14.469  0.1051  0.2639 -0.0821
 6103W        W22951  15.041   2.229  11.885  0.1326 -0.0498 -0.1046
 6104W        W22952  14.482  14.583   1.721 -0.3099  0.6084  0.1082
 6105W        W22953  16.359  11.592   5.652 -0.0688  0.0629  0.1280
 6106W        W22954   6.508  12.905   0.984 -0.0780 -0.1545 -0.0263
 6107W        W22955   7.533  13.388  12.956 -0.1895  0.3134 -0.0092
 6108W        W22956   8.805   7.947   0.566  0.3642  0.3670 -0.0567
 6109W        W22957   1.927  12.160  13.264  0.0226 -0.0472  0.1564
 6110W        W22958  15.042  15.772   4.813  0.0776  0.2185  0.2589
 6111W        W22959   1.154   5.116   1.105  0.2457 -0.3341 -0.0168
 6112W        W22960  10.388  13.045   0.333  0.1352  0.1317  0.3129
 6113W        W22961  10.720   4.349  13.613  0.1299 -0.0803 -0.0549
 6114W        W22962  12.442  13.534   5.101  0.2571  0.4008 -0.2027
 6115W        W22963  16.914   1.765  12.453 -0.1377 -0.3193  0.1586
 6116W        W22964  17.652  15.231  11.813  0.2077 -0.1421  0.1033
 6117W        W22965  10.012   0.783   1.242  0.1122  0.5199  0.1279
 6118W        W22966   5.187  10.437  14.276 -0.1318 -0.0905 -0.2263
 6119W        W22967  17.729   5.002   4.602  0.0296  0.1471 -0.0698
 6120W        W22968   7.439   1.872  11.986 -0.0854 -0.1968  0.1575
 6121W        W22969  11.800   9.310  16.271  0.2662 -0.1270  0.1083
 6122W        W22970   1.977   7.134   1.261 -0.2114  0.1478  0.0259
 6123W        W22971   4.508  16.560  15.142  0.0050  0.0706 -0.1313
 6124W        W22972  12.952   8.556   2.808  0.0157  0.0655  0.1665
 6125W        W22973   5.620   5.344  15.962  0.1767  0.3512 -0.1423
 6126W        W22974   3.747   8.841   4.336 -0.0898 -0.1658 -0.0050
 6127W        W22975  17.056  11.469  12.526 -0.1774 -0.1155 -0.0761
 6128W        W22976   5.707   3.415   4.875  0.0195 -0.1041 -0.2663
 6129W        W22977  18.075   1.489   3.052  0.3988  0.0847  0.0019
 6130W        W22978   0.909  14.845  14.515  0.2122  0.0473  0.2229
 6131W        W22979  17.293   1.245   2.649 -0.2167  0.1871  0.1161
 6132W        W22980   3.126  11.900  11.166  0.0529  0.0790 -0.1997
 6133W        W22981  12.328   7.358  13.119 -0.2394  0.1001 -0.1140
 6134W        W22982   9.439  13.478   0.617 -0.0789 -0.0027 -0.0876
 6135W        W22983   6.569   6.923  15.845 -0.0725  0.3715 -0.0229
 6136W        W22984   6.304   6.045  14.021 -0.2679  0.3904  0.1366
 6137W        W22985   5.709  17.044  12.512  0.1139  0.0433  0.1284
 6138W        W22986  11.886   9.798   0.783  0.3302  0.2382 -0.0426
 6139W        W22987   1.761  16.574  11.098  0.0164 -0.0593  0.0643
 6140W        W22988   6.121   9.135  11.476  0.2466  0.0933  0.3325
 6141W        W22989   6.456  16.060  14.895  0.0490  0.0620  0.0946
 6142W        W22990   0.926  14.653   2.738 -0.2802 -0.1714 -0.2537
 6143W        W22991   8.356   9.210   2.605  0.0204 -0.0643  0.0284
 6144W        W22992   6.586   1.941   3.837 -0.0606  0.4013  0.0870
 6145W        W22993   9.752  15.243   5.707  0.0554 -0.0936  0.4680
 6146W        W22994  16.185  16.604   2.958  0.1354  0.4916  0.0402
 6147W        W22995   4.707  17.579   1.563  0.0325  0.1027 -0.1186
 6148W        W22996   7.507   9.943  16.008 -0.1679  0.0202 -0.0872
 6149W        W22997   6.811  13.776   4.065  0.1681  0.0738 -0.0029
 6150W        W22998  16.477  13.731  14.202  0.0120  0.0712  0.3048
 6151W        W22999   5.741  16.462  10.383 -0.1791  0.1654 -0.0175
 6152W        W23000  11.123   4.751   4.432 -0.1247  0.0040  0.2172
 6153W        W23001   0.434  16.162   3.621  0.1012  0.0518 -0.1426
 6154W        W23002  14.058   9.923  12.163  0.4432 -0.1183  0.2297
 6155W        W23003   9.727   7.843   0.862 -0.0733  0.1054  0.0567
 6156W        W23004  16.421  12.167  15.150  0.1921  0.0852 -0.3027
 6157W        W23005  13.849  11.564  13.956 -0.1366  0.0087  0.0027
 6158W        W23006  12.066  13.977  14.011 -0.0657  0.4512  0.1886
 6159W        W23007  15.986   5.480  13.842  0.1583 -0.1722  0.1466
 6160W        W23008   2.267  12.840  13.472  0.0955  0.0438 -0.0535
 6161W        W23009   5.961   9.242  13.081  0.0199 -0.2326 -0.1341
 6162W        W23010  14.610  17.978  12.564  0.2399  0.0278  0.0325
 6163W        W23011  12.883   8.536   1.808  0.0271  0.0172  0.2787
 6164W        W23012   1.856   3.585   3.945  0.0224  0.0883  0.1420
 6165W        W23013  11.930   0.440  15.354 -0.3066 -0.0296 -0.2200
 6166W        W23014  14.221  11.681   2.385  0.1674  0.2835  0.0576
 6167W        W23015   0.964   6.738  13.474 -0.3370  0.1955 -0.2026
 6168W        W23016   2.409  11.799   1.430 -0.1793 -0.0421  0.1310
 6169W        W23017  17.137   0.665   0.857  0.1513  0.0548  0.1077
 6170W        W23018   1.850   5.681  15.165  0.1651  0.0396  0.0478
 6171W        W23019  13.697   9.246  13.131  0.1461  0.1437 -0.3919
 6172W        W23020  17.973  14.691  12.582 -0.0994 -0.1662 -0.2425
 6173W        W23021  10.780   3.742  15.777  0.0064  0.3619  0.2150
 6174W        W23022  16.846   2.238  12.244 -0.1543 -0.3816 -0.1423
 6175W        W23023   5.077  16.788  15.938  0.0318 -0.0805  0.1078
 6176W        W23024  13.578   4.927   3.431  0.0452 -0.1630  0.0825
 6177W        W23025   7.229  14.884   0.586  0.0336 -0.0615  0.3856
 6178W        W23026   4.031  15.791   3.748  0.0639  0.1552  0.3693
 6179W        W23027  10.389   5.363   1.722  0.0243  0.0501 -0.0422
 6180W        W23028  12.373   1.001   3.452  0.1605 -0.1237  0.2386
 6181W        W23029  14.194   9.121   0.092  0.2869  0.2959  0.1722
 6182W        W23030   0.421   7.767   0.260  0.0365 -0.1594  0.1411
 6183W        W23031   4.203  13.250   3.417 -0.1469 -0.4457 -0.2810
 6184W        W23032   8.767  17.245  11.516  0.0364 -0.0266  0.3557
 6185W        W23033  13.601   6.934   3.143 -0.2789 -0.1362 -0.1506
 6186W        W23034  12.708   3.528  12.815 -0.2377 -0.1679 -0.2533
 6187W        W23035  14.634  14.102   2.404  0.4093 -0.0079  0.0062
 6188W        W23036   0.541   1.296  12.110  0.1010  0.1990 -0.0753
 6189W        W23037  12.231   1.620  11.803 -0.1654  0.1550  0.2898
 6190W        W23038  13.377  10.694  12.112 -0.1741 -0.3567  0.1583
 6191W        W23039   4.071  10.515  16.256  0.1468  0.1173  0.3195
 6192W        W23040  13.296  17.417   4.890 -0.1093  0.4785  0.0557
 6193W        W23041   5.175  11.540   3.568  0.1391  0.1396  0.2732
 6194W        W23042   6.360  13.981  13.556  0.0037 -0.3360 -0.0284
 6195W        W23043   5.680   4.663   2.264  0.0878  0.3256 -0.5875
 6196W        W23044   5.508   9.348  15.789  0.3742  0.4548 -0.3100
 6197W        W23045  14.939   1.724   4.135  0.0064 -0.2160 -0.0647
 6198W        W23046   9.573  11.178  10.954  0.0486  0.2349  0.0993
 6199W        W23047  12.602  13.919  13.366 -0.0402  0.0555  0.0416
 6200W        W23048  15.452  17.896  15.341  0.0081  0.1664 -0.0236
 6201W        W23049   9.540  11.198   2.072  0.2010  0.1088 -0.3849
 6202W        W23050  12.300   2.827   3.054  0.0127  0.0922  0.0443
 6203W        W23051   0.424  12.304   4.073  0.3025 -0.2123  0.2218
 6204W        W23052  15.239   4.961   1.378 -0.1126 -0.2153  0.0555
 6205W        W23053   9.108   1.052  14.997  0.2288 -0.1042 -0.0989
 6206W        W23054   7.504   7.802   0.784 -0.1366  0.1982  0.0165
 6207W        W23055   2.930  17.365   4.419 -0.1303  0.0852 -0.0699
 6208W        W23056  17.195   6.734   5.739  0.2387  0.0625  0.0129
 6209W        W23057   6.408  17.519  12.183 -0.1508 -0.2234  0.3943
 6210W        W23058  11.216  15.330   4.309 -0.0822 -0.0243  0.1455
 6211W        W23059   1.338   8.536  11.749 -0.0097  0.3414  0.4677
 6212W        W23060   1.238  12.615  16.149  0.2584 -0.3680  0.4531
 6213W        W23061   9.535  15.907   4.192  0.0399  0.1074 -0.0754
 6214W        W23062   3.020  15.982   1.358  0.0369  0.0420  0.0970
 6215W        W23063  14.458   6.972   2.882  0.0216  0.1483 -0.1409
 6216W        W23064   0.696   3.373  15.489  0.0148 -0.0131 -0.1285
 6217W        W23065   8.353   0.946   3.770  0.0845 -0.0173  0.0624
 6218W        W23066   8.280   1.639  12.276  0.0550  0.0411  0.1792
 6219W        W23067  17.372   2.115   3.944 -0.1591 -0.1237 -0.2052
 6220W        W23068  16.958   9.054   4.672 -0.0664 -0.3162  0.2318
 6221W        W23069   2.539  15.978   1.524  0.0213  0.1287  0.0492
 6222W        W23070   1.546   9.189  11.200 -0.0585 -0.1810  0.1713
 6223W        W23071   1.314  15.851  12.423 -0.1434  0.2453  0.2874
 6224W        W23072  16.529  17.160   0.227  0.0099  0.1147  0.4773
 6225W        W23073   3.292  12.466   1.417 -0.0891 -0.1527 -0.3598
 6226W        W23074   5.405   1.430   2.620 -0.0949  0.0039 -0.1653
 6227W        W23075   6.481  17.258  14.634 -0.0092 -0.0560 -0.0088
 6228W        W23076   4.476   0.603   1.019  0.3577 -0.0269  0.0565
 6229W        W23077  16.047  14.390   2.802  0.3360 -0.0527 -0.0984
 6230W        W23078  13.542  11.347   3.627 -0.1473  0.0678 -0.0134
 6231W        W23079  16.662  16.657   1.095  0.1216  0.2179  0.4699
 6232W        W23080  15.710  11.609   0.581 -0.0336  0.1189 -0.1332
 6233W        W23081   6.435  10.734   5.458 -0.3902 -0.2876 -0.0964
 6234W        W23082   0.475  17.369  12.919  0.1805  0.0571 -0.1432
 6235W        W23083   2.698   0.404   1.849 -0.1642 -0.0290 -0.2572
 6236W        W23084  11.759   3.955   0.679 -0.0759  0.6588 -0.0806
 6237W        W23085   1.610   3.280  15.515 -0.1756 -0.0403  0.0568
 6238W        W23086   4.317   5.007   5.019 -0.1129 -0.1544 -0.0468
 6239W        W23087   8.671  17.589   3.115  0.1333  0.1817 -0.1977
 6240W        W23088  11.067  17.757   2.693  0.0774  0.3504  0.2731
 6241W        W23089  17.267   1.560   0.005  0.2793  0.0369  0.1196
 6242W        W23090  14.787   3.166   1.238 -0.3422  0.4636  0.1783
 6243W        W23091   1.683  13.855  15.034 -0.1704  0.2467  0.2036
 6244W        W23092   6.782   1.005   0.578 -0.0070 -0.0729  0.0663
 6245W        W23093   7.298  15.154   4.226 -0.3481 -0.1587  0.0535
 6246W        W23094  11.772  11.336  11.885 -0.0147 -0.0008  0.0226
 6247W        W23095   2.285   5.999   3.484  0.2010  0.1832 -0.1297
 6248W        W23096   7.800   8.287  11.294  0.1450  0.0120  0.0692
 6249W        W23097   0.329   1.158  10.236  0.4332 -0.1192  0.2672
 6250W        W23098   5.039  15.520  12.655  0.0595  0.2328  0.1296
 6251W        W23099   7.795   5.075   0.545 -0.0298 -0.1842  0.1796
 6252W        W23100   3.246  15.812  12.894 -0.0621 -0.1545  0.0749
 6253W        W23101  13.880  17.560   2.064  0.1458  0.2770  0.2216
 6254W        W23102   8.178  10.486  12.578  0.1054 -0.2989  0.1159
 6255W        W23103   4.964  11.602   4.350 -0.2467 -0.2413  0.0759
 6256W        W23104   6.622   5.955  12.688  0.0253 -0.1474 -0.0134
 6257W        W23105   0.656   1.741   1.799  0.0509 -0.0740  0.0718
 6258W        W23106  11.253   1.896   2.515  0.0632 -0.3403  0.1983
 6259W        W23107  10.268   3.869   5.051  0.0551  0.2109  0.1468
 6260W        W23108   1.459   4.943  11.185 -0.1542  0.0686  0.3701
 6261W        W23109  15.688   6.026  13.746  0.1122  0.0892 -0.0668
 6262W        W23110   9.764  16.279   0.506  0.0489  0.0107 -0.2886
 6263W        W23111   1.142   4.700  12.794  0.1079  0.2345  0.2482
 6264W        W23112  14.948   1.105   4.993  0.0598  0.0035  0.1066
 6265W        W23113   3.330   1.147  12.993 -0.0419  0.2298  0.0409
 6266W        W23114  11.877  14.260  16.141  0.0961 -0.0705  0.2227
 6267W        W23115   2.970  15.996   5.055 -0.1488  0.0542  0.1126
 6268W        W23116  11.204  10.529   4.380 -0.0814 -0.0768  0.1422
 6269W        W23117  15.635   4.517  13.210 -0.3351  0.1209 -0.0846
 6270W        W23118  16.342  16.342   3.510  0.0398  0.1081  0.0358
 6271W        W23119  12.463   6.014  13.937  0.1824 -0.1482  0.0301
 6272W        W23120  15.392   5.166  15.304  0.3332  0.1311  0.1516
 6273W        W23121   7.659  13.374   5.312  0.3062  0.0908 -0.1805
 6274W        W23122  11.718  15.371  12.031  0.1649 -0.2693 -0.0655
 6275W        W23123  17.199   5.504  14.678  0.0315 -0.2332  0.1814
 6276W        W23124  16.748  13.714   3.323 -0.1291 -0.0922 -0.0052
 6277W        W23125  12.918  12.976  14.440  0.1847  0.1447  0.0395
 6278W        W23126  10.626  15.580  15.557  0.0121 -0.3153 -0.0681
 6279W        W23127   9.630   8.208  16.025 -0.0505 -0.1030 -0.0729
 6280W        W23128  14.090   4.726   2.165 -0.0259  0.2057 -0.1608
 6281W        W23129   2.189   6.414  13.714  0.0620  0.1789 -0.0344
 6282W        W23130  15.499  11.502  15.355 -0.2264 -0.3374 -0.2319
 6283W        W23131  15.180   4.152  12.413  0.0029  0.2408 -0.0022
 6284W        W23132  10.629  14.695   3.163 -0.2983  0.0750 -0.1161
 6285W        W23133   1.386   1.852   3.540  0.2031  0.0880  0.2583
 6286W        W23134   3.491   4.288   9.933  0.0208  0.1269  0.0138
 6287W        W23135  13.048   3.757   2.750 -0.1301 -0.0309  0.1367
 6288W        W23136   5.037   2.460  13.299  0.0778 -0.1860 -0.4786
 6289W        W23137  16.416  14.123  16.016  0.1394 -0.1735 -0.1387
 6290W        W23138  16.816   1.727  11.337 -0.0636 -0.2683 -0.0089
 6291W        W23139  12.137   7.229  15.847  0.0517  0.0470 -0.1061
 6292W        W23140   2.714   6.588  13.515  0.0570  0.0122 -0.0118
 6293W        W23141  12.017   3.341   0.232 -0.0589  0.4420 -0.0103
 6294W        W23142  15.211   2.260   3.535 -0.0045  0.1438  0.2015
 6295W        W23143   0.755   1.802  12.462  0.0239 -0.2166 -0.0532
 6296W        W23144   1.993  15.384  16.017 -0.1035  0.2170  0.1677
 6297W        W23145  15.638  14.811  15.096  0.3217 -0.2599 -0.2583
 6298W        W23146  10.639  15.141   2.120  0.1073  0.0594  0.3277
 6299W        W23147  17.182  15.670  15.857  0.1649  0.0641  0.2158
 6300W        W23148  14.098  13.721  14.074 -0.0718  0.2369 -0.1421
 6301W        W23149   1.361  11.274   4.788 -0.0981  0.1701 -0.0906
 6302W        W23150   7.525  18.023   1.636  0.2385  0.1267  0.1252
 6303W        W23151   8.682  10.611  15.738 -0.2630 -0.2433 -0.0418
 6304W        W23152   1.998   6.732   0.364 -0.0477 -0.2024  0.0953
 6305W        W23153  16.752  10.571  15.471 -0.0449 -0.3261 -0.0064
 6306W        W23154   5.917   1.908  11.271 -0.0575 -0.0553 -0.2256
 6307W        W23155   0.375  10.128  11.627 -0.3879 -0.1998  0.0745
 6308W        W23156  17.490   7.465   2.240  0.3371 -0.0014  0.3615
 6309W        W23157   4.916   2.213  14.745 -0.1008 -0.0493  0.0358
 6310W        W23158  14.298   6.649  13.472  0.3552  0.2236 -0.5106
 6311W        W23159   2.104  13.260  11.959 -0.3403  0.1721  0.0428
 6312W        W23160  15.151   9.411  11.504  0.2746 -0.0157  0.1916
 6313W        W23161  17.248   8.638  15.936 -0.1282  0.2571 -0.2351
 6314W        W23162   3.083  17.749   3.157  0.1602  0.1784 -0.0769
 6315W        W23163   3.729  16.233  13.176 -0.4710 -0.1747 -0.1721
 6316W        W23164   2.325   2.847  13.824  0.0099  0.0210  0.0774
 6317W        W23165  13.418   8.577   2.096  0.0776 -0.0834  0.3751
 6318W        W23166   4.249  12.848  14.881  0.0930 -0.1703 -0.2269
 6319W        W23167   4.747  14.816  14.958 -0.1169 -0.0735  0.0597
 6320W        W23168  14.667   0.333  14.170  0.0093 -0.0856 -0.0943
 6321W        W23169   0.176  14.913   2.198 -0.0392 -0.0229  0.3201
 6322W        W23170   0.266   1.614   4.424  0.0463  0.0203  0.0890
 6323W        W23171  17.593  13.080   4.169  0.0573  0.1983  0.2289
 6324W        W23172  15.529   3.001  14.934 -0.1915 -0.0842  0.0848
 6325W        W23173  15.194   8.638  14.556 -0.0876  0.0943 -0.0925
 6326W        W23174  13.462  17.435  12.493 -0.1372  0.0853  0.2531
 6327W        W23175  17.745  12.675  10.959 -0.2821  0.1736 -0.0096
 6328W        W23176   9.564   6.396  11.343  0.0932 -0.1842 -0.2313
 6329W        W23177   3.057  10.552   5.170  0.1915  0.0535  0.0243
 6330W        W23178  15.205   4.745  12.566 -0.5825 -0.3925 -0.1119
 6331W        W23179  11.385   5.917  14.215  0.1142  0.1212  0.0039
 6332W        W23180  15.873  16.622   3.575 -0.1541  0.1153 -0.0919
 6333W        W23181   3.633  14.733  11.180 -0.1375 -0.2471 -0.0298
 6334W        W23182  14.328   3.453   3.402  0.0511 -0.0686  0.0150
 6335W        W23183  11.655   2.957  13.275 -0.0777  0.2134 -0.0395
 6336W        W23184   9.995   3.317  12.880  0.2059  0.0889  0.1695
 6337W        W23185  17.765  11.084  15.607  0.1489 -0.0337  0.0765
 6338W        W23186   0.491   9.724   4.033  0.0103 -0.0094  0.3103
 6339W        W23187   5.879   3.771  12.233  0.5866 -0.0041 -0.2440
 6340W        W23188   5.603  11.531   0.958 -0.0705  0.0767 -0.0652
 6341W        W23189   6.173  14.085  14.434 -0.0832  0.0019  0.1167
 6342W        W23190  16.403  13.227  12.895  0.1518 -0.0087  0.0253
 6343W        W23191  13.473   5.318   0.093  0.1183 -0.0985  0.0739
 6344W        W23192   3.950  16.553   3.034  0.2999  0.2397 -0.1735
 6345W        W23193   9.912   8.903  12.762  0.1234 -0.0119  0.1632
 6346W        W23194   1.183   0.627   3.286  0.0614 -0.1024  0.1387
 6347W        W23195   5.998   6.072  15.067 -0.0085 -0.1931 -0.1862
 6348W        W23196  10.304   9.517   2.448 -0.2006 -0.0927 -0.0257
 6349W        W23197  14.389   0.465   3.192 -0.0644 -0.1243  0.0358
 6350W        W23198  16.077  12.881  14.716 -0.0369 -0.0079 -0.4428
 6351W        W23199  16.895   2.428  15.738 -0.2511  0.1015 -0.1671
 6352W        W23200   9.894   9.163   5.100  0.3417  0.1710 -0.3008
 6353W        W23201  11.393  15.360   2.268  0.0198 -0.2887 -0.0995
 6354W        W23202   5.675   3.285  13.938 -0.1809  0.0386 -0.0492
 6355W        W23203   5.062   3.313   3.205 -0.2865 -0.0638  0.1423
 6356W        W23204  14.333   5.888  11.544  0.1439  0.1152 -0.0201
 6357W        W23205   3.656  14.157  16.061  0.0553 -0.0114 -0.1464
 6358W        W23206   7.412   0.938  13.421  0.2359 -0.2558  0.3134
 6359W        W23207   3.744   3.407   0.572 -0.0979  0.3093 -0.2696
 6360W        W23208   2.813   7.833  14.592  0.3757 -0.0649 -0.1784
 6361W        W23209   9.893  12.418   3.202 -0.1616 -0.3225  0.0570
 6362W        W23210  14.421   4.774   3.759  0.1135  0.3294  0.0030
 6363W        W23211   6.158  11.932  15.317  0.1101  0.1567  0.0985
 6364W        W23212   9.830   4.418   0.784 -0.0864  0.2659  0.1107
 6365W        W23213   0.726   1.682  11.911 -0.0609  0.1439 -0.0783
 6366W        W23214  15.966  13.688   4.188 -0.0730 -0.0922 -0.2050
 6367W        W23215  16.241   8.354  12.989  0.2201 -0.0231 -0.0455
 6368W        W23216   3.541   7.165  15.729  0.1401 -0.3394 -0.2179
 6369W        W23217  10.800  12.059  16.192  0.0803  0.2384  0.1219
 6370W        W23218   9.775  17.169  12.153  0.1479  0.1040 -0.0844
 6371W        W23219   1.524  15.723   1.887 -0.2939 -0.2325  0.0216
 6372W        W23220   7.551  15.839  13.698  0.1189 -0.0493  0.0722
 6373W        W23221   5.560   7.302  13.359  0.1364  0.0151 -0.0748
 6374W        W23222  14.217   6.437  11.658 -0.2346  0.1157  0.2368
 6375W        W23223   4.233   0.480  11.943  0.3092 -0.3472  0.1724
 6376W        W23224  16.504   1.646   4.325  0.3357  0.0421 -0.2573
 6377W        W23225   9.091   2.893   0.713  0.0711  0.1629  0.0893
 6378W        W23226   2.089   9.615  12.505  0.1382  0.1668  0.0817
 6379W        W23227   8.519  10.585  13.001  0.0548 -0.0528 -0.3294
 6380W        W23228   6.821   1.459   0.873  0.1473  0.0687  0.0048
 6381W        W23229  15.402   6.443  13.697  0.1622 -0.4664  0.1988
 6382W        W23230  13.933   7.387   4.656 -0.2727  0.0908  0.3201
 6383W        W23231   5.327  12.228  15.595 -0.1122  0.0868 -0.0959
 6384W        W23232  12.409   0.858  13.346 -0.0340  0.4184 -0.1024
 6385W        W23233   1.694   0.315  14.394  0.3225 -0.0143  0.2099
 6386W        W23234   2.392   5.240  12.286 -0.0862 -0.2862  0.3689
 6387W        W23235  15.162   2.692   2.988  0.1227 -0.0300  0.2431
 6388W        W23236  14.583   8.157   4.209  0.1720  0.1756  0.1969
 6389W        W23237  13.625  16.612  12.433 -0.2414 -0.0263 -0.0286
 6390W        W23238  15.778  16.940  14.655 -0.3443  0.0512  0.2963
 6391W        W23239   4.288   1.586  12.864 -0.1379  0.0728 -0.1991
 6392W        W23240   2.340   6.189  14.774 -0.0464 -0.2795  0.0272
 6393W        W23241  17.399  12.336  12.083 -0.1121 -0.0175  0.0746
 6394W        W23242  16.780  14.848  15.742 -0.1090  0.3992 -0.0139
 6395W        W23243   1.310   5.516   3.186  0.2705 -0.2115 -0.1664
 6396W        W23244   1.245   1.724   5.729  0.1545  0.0488  0.3516
 6397W        W23245   4.139  15.811  15.582  0.1529  0.3781 -0.1201
 6398W        W23246  13.121   7.453  11.162 -0.0689 -0.0082  0.0904
 6399W        W23247   8.768  10.542  12.501  0.2744  0.0408 -0.0140
 6400W        W23248  17.633  14.211   1.123 -0.0809 -0.1658  0.1855
 6401W        W23249  12.856   6.146  11.140 -0.0132 -0.0031 -0.2744
 6402W        W23250   3.883  17.696  13.041 -0.1626  0.2057 -0.0378
 6403W        W23251   4.551  12.020   1.220  0.3609 -0.3976  0.0033
 6404W        W23252  12.038   0.385  14.883 -0.0786 -0.4988  0.0734
 6405W        W23253  12.391  15.190  14.645  0.0184 -0.3027  0.0115
 6406W        W23254   1.711  10.049   2.161  0.3145  0.4253  0.1291
 6407W        W23255   4.858   7.747  12.748  0.0880  0.1797  0.0782
 6408W        W23256  11.204  11.872   0.659  0.1786  0.2703  0.1140
 6409W        W23257   5.166  14.000   3.995  0.0632 -0.0039 -0.0861
 6410W        W23258   9.972  16.279   4.918 -0.0290  0.1108  0.0701
 6411W        W23259   6.927  10.879   5.442 -0.0574 -0.1446  0.2734
 6412W        W23260   6.253   4.685  13.214 -0.1822  0.0614 -0.4836
 6413W        W23261  16.499   2.678   3.463  0.0695  0.0602  0.0517
 6414W        W23262  10.971  15.570   0.860  0.2144 -0.1078  0.1236
 6415W        W23263  10.610   0.385  15.667 -0.2296 -0.3567  0.1086
 6416W        W23264  14.951  15.195   2.965  0.1587  0.0942 -0.0301
 6417W        W23265  16.134  15.810  15.504  0.3850 -0.2328 -0.1219
 6418W        W23266   7.659  15.959   4.642 -0.2219  0.3986  0.1265
 6419W        W23267   4.944  11.047  16.015 -0.1364 -0.0178  0.1155
 6420W        W23268  14.082   9.139   3.482 -0.2537  0.1358 -0.1528
 6421W        W23269   5.944   3.224   5.388  0.2530  0.3036 -0.1660
 6422W        W23270   3.204  15.025   2.186 -0.3633 -0.1363 -0.1004
 6423W        W23271   8.155   6.993  12.489  0.2083  0.3933 -0.0596
 6424W        W23272   4.220  13.899  10.988  0.1952  0.2061 -0.1270
 6425W        W23273   3.300  11.410  11.931 -0.2811 -0.1959 -0.1179
 6426W        W23274  16.864  16.062  14.050  0.1596  0.0854 -0.1236
 6427W        W23275   4.260  17.568   2.104  0.2013  0.1710 -0.1227
 6428W        W23276  18.036  15.341  15.461  0.0525 -0.2493 -0.2211
 6429W        W23277  10.649   7.450  14.174  0.1299  0.1230  0.1662
 6430W        W23278  11.521   5.374   0.886 -0.1780  0.1087 -0.2513
 6431W        W23279   4.489  11.600  14.414  0.0581  0.0336 -0.0686
 6432W        W23280   4.952  11.906  12.975 -0.0693  0.0777  0.2871
 6433W        W23281  10.948   6.463  12.967  0.1477 -0.2659  0.0119
 6434W        W23282  11.072   7.821  13.397  0.0142 -0.0964  0.0823
 6435W        W23283   4.989  16.444  12.728 -0.0067  0.1155 -0.0055
 6436W        W23284  12.320   0.974  14.006 -0.1784  0.2232  0.2141
 6437W        W23285   9.565   5.399   3.717 -0.2494  0.0908  0.0680
 6438W        W23286  16.499  16.755  16.216 -0.2308 -0.0568 -0.0327
 6439W        W23287   6.039  16.721   1.605  0.0268 -0.0015 -0.1321
 6440W        W23288   9.768  16.460  14.781  0.0195  0.0132  0.3526
 6441W        W23289   0.818  17.880   3.948  0.1804  0.1732  0.0286
 6442W        W23290  11.628  11.424   2.352  0.0858  0.0097 -0.0205
 6443W        W23291  10.008  16.108  12.888 -0.0240  0.2088 -0.3582
 6444W        W23292  16.480  14.139  12.832 -0.3225 -0.0318 -0.3489
 6445W        W23293   9.499  14.235  10.823  0.2917 -0.0001 -0.2258
 6446W        W23294   5.465   1.030  15.706  0.0945 -0.0190  0.1948
 6447W        W23295  14.782   4.173   1.405  0.3539  0.0866  0.0670
 6448W        W23296  14.680   0.280  15.117 -0.5095 -0.0410  0.1473
 6449W        W23297   5.676  12.753  12.529  0.0930 -0.1224  0.3004
 6450W        W23298   5.964   6.485   4.327  0.2346 -0.2025 -0.1770
 6451W        W23299  10.534  12.916  16.138 -0.1966  0.3688 -0.0895
 6452W        W23300   4.739  13.383   2.495  0.1014 -0.1621 -0.0435
 6453W        W23301   2.006   2.528   0.802  0.5556 -0.2527  0.0571
 6454W        W23302  17.619   5.745  14.496  0.0632  0.0224 -0.2016
 6455W        W23303  13.721  10.615  10.843 -0.2125 -0.1163 -0.1808
 6456W        W23304   7.360   2.963   1.775  0.0393  0.0439  0.1463
 6457W        W23305  17.216  17.701  13.069  0.0484  0.0832 -0.0362
 6458W        W23306  15.090  13.552   4.346  0.0204  0.1884  0.1436
 6459W        W23307  16.967  12.536   5.118 -0.0654  0.0854  0.2836
 6460W        W23308   1.605   6.349   3.354 -0.2365 -0.2042 -0.1203
 6461W        W23309  12.002   1.362  13.977  0.0133 -0.0703 -0.0098
 6462W        W23310   9.796   7.420   4.256  0.4072 -0.0308  0.0088
 6463W        W23311  10.320   9.748   3.302  0.2253 -0.1354 -0.0507
 6464W        W23312   8.588   2.621  12.466  0.0957 -0.1964 -0.0880
 6465W        W23313   2.575   4.337   1.708 -0.1117 -0.0901  0.0690
 6466W        W23314  10.288   8.825   4.826  0.3999  0.0380 -0.1303
 6467W        W23315   5.448  15.673  13.260  0.2394  0.1836 -0.1524
 6468W        W23316  10.731   4.724  13.273  0.0554 -0.3965  0.2133
 6469W        W23317   1.474  15.532  14.635  0.2603  0.1628 -0.0763
 6470W        W23318  11.017   0.903   1.099  0.1357 -0.0247 -0.0974
 6471W        W23319   9.171   4.900  11.401  0.0341  0.3220 -0.2492
 6472W        W23320   5.538   0.638  11.109  0.2384 -0.0554  0.1047
 6473W        W23321   5.858   1.391  15.005 -0.0049  0.4802 -0.2835
 6474W        W23322   5.477   4.415   1.186  0.1896 -0.0423 -0.0488
 6475W        W23323  15.592   3.344  12.836  0.0980 -0.0520  0.1287
 6476W        W23324  14.900  14.015   0.649  0.1814  0.0645 -0.0451
 6477W        W23325   8.106   5.353  13.189  0.3029  0.2053  0.0671
 6478W        W23326   0.845  10.238  15.802  0.1682 -0.0089 -0.4484
 6479W        W23327   9.167  14.545  12.681 -0.1960  0.2256 -0.2258
 6480W        W23328  10.369   9.397  11.894 -0.1142 -0.0239  0.1570
 6481W        W23329  13.489   5.935   1.697 -0.2073 -0.0845 -0.0359
 6482W        W23330   5.395   8.957   2.120  0.1958 -0.0614 -0.1092
 6483W        W23331   9.575   0.303  13.687  0.0161  0.1376 -0.0199
 6484W        W23332   8.517   2.684  11.975 -0.2120  0.2649 -0.3073
 6485W        W23333  17.783  15.938  10.687 -0.0046  0.2834 -0.2198
 6486W        W23334  15.423  17.350  11.158 -0.1439  0.2559 -0.1528
 6487W        W23335  15.277  17.103  13.350 -0.2673  0.2207 -0.1235
 6488W        W23336   9.705   3.495   2.024  0.2557  0.2365 -0.0054
 6489W        W23337  14.110  17.217   1.646  0.3350 -0.0125  0.1477
 6490W        W23338  16.315   3.671  11.562 -0.1759  0.0868  0.1185
 6491W        W23339  15.133   1.017   0.454 -0.0976  0.3637 -0.2639
 6492W        W23340  13.981   0.224   3.352  0.2625  0.0342  0.1892
 6493W        W23341  16.520  14.585  16.213 -0.1729 -0.3141 -0.2810
 6494W        W23342  14.508  13.477  14.844 -0.4251  0.1891  0.3533
 6495W        W23343  10.426   9.268   0.074 -0.1070  0.1805 -0.1042
 6496W        W23344  14.157  15.441   1.365 -0.1557  0.0630  0.0114
 6497W        W23345   5.506   2.787  12.898  0.2435 -0.3031 -0.1977
 6498W        W23346   1.713   5.051  12.265  0.0141  0.0628  0.0491
 6499W        W23347   0.616   8.321   3.564 -0.1228  0.1586  0.3491
 6500W        W23348   8.828   2.049   3.655 -0.3080  0.3437  0.3604
 6501W        W23349  11.912   3.943  11.187 -0.1751 -0.0763  0.0780
 6502W        W23350   0.206  15.865  10.822 -0.1052  0.1138  0.2011
 6503W        W23351   6.040   1.146  14.095 -0.0594  0.1739  0.0593
 6504W        W23352  14.854   9.754  15.061  0.0806 -0.1942  0.1802
 6505W        W23353   0.312   0.780   2.011 -0.2109 -0.1986 -0.2377
 6506W        W23354  10.063  15.191   1.281 -0.1016 -0.1009  0.1460
 6507W        W23355   6.927  15.728   0.537  0.2010  0.0312  0.1127
 6508W        W23356   5.655   8.940  14.043 -0.0196  0.1204 -0.4009
 6509W        W23357  16.862   2.984   4.038  0.0526  0.3051  0.1626
 6510W        W23358  15.373   6.199  15.408  0.1671  0.1566 -0.2413
 6511W        W23359   7.737   8.109   2.208 -0.1939  0.0141  0.1885
 6512W        W23360  12.262  13.524   3.320  0.0535  0.2613 -0.0041
 6513W        W23361  13.053  13.552  14.148  0.2667  0.0832 -0.0946
 6514W        W23362   1.616   6.496   2.392 -0.0619 -0.0390  0.1954
 6515W        W23363  15.526  11.559   1.678  0.0669  0.3290 -0.1075
 6516W        W23364  16.478  13.134   5.232  0.1231 -0.0534  0.0804
 6517W        W23365   4.674   1.703  16.312  0.0196 -0.3289 -0.2439
 6518W        W23366  13.063  12.428   3.613 -0.1367  0.0738 -0.0715
 6519W        W23367   0.844   6.352   2.820 -0.2296 -0.1186 -0.0528
 6520W        W23368  13.929   7.833  13.612 -0.0662 -0.1867  0.0443
 6521W        W23369   7.233  10.234   0.565  0.2746  0.2027 -0.1246
 6522W        W23370   3.540   5.326   1.594 -0.1684  0.5395 -0.3355
 6523W        W23371  16.605  17.877  11.168 -0.2032  0.1348 -0.1184
 6524W        W23372   8.199  16.273  13.064  0.4570 -0.1542  0.0481
 6525W        W23373  14.275   2.501  12.536 -0.0771 -0.1246  0.4687
 6526W        W23374   3.890  11.592  14.669 -0.1706  0.1145  0.1020
 6527W        W23375  17.954  11.707  13.267 -0.3679 -0.1914 -0.3035
 6528W        W23376  16.376   3.606   3.587  0.3167  0.0158 -0.0707
 6529W        W23377   6.983   7.263   3.712  0.4221  0.0441 -0.1180
 6530W        W23378   2.422  15.372   3.465 -0.0026 -0.1183 -0.1118
 6531W        W23379   6.790  15.706  14.029 -0.2346  0.1251 -0.0698
 6532W        W23380   4.275  13.122   2.411 -0.1348 -0.1732  0.1730
 6533W        W23381   2.643  12.724   4.840  0.2379 -0.1122  0.0220
 6534W        W23382   4.545  12.727   1.056  0.0354  0.0808 -0.2296
 6535W        W23383   5.047  15.420  13.525 -0.3507  0.0449 -0.0930
 6536W        W23384  16.767  10.196  14.281 -0.2924  0.0585 -0.1166
 6537W        W23385   7.547   3.146  12.347 -0.0700  0.0699  0.0211
 6538W        W23386   1.382   0.724   0.161  0.0146  0.0150  0.2745
 6539W        W23387  10.241  13.183  11.956 -0.1976  0.0468 -0.0067
 6540W        W23388   6.190  10.975   3.047  0.4788  0.0015  0.1954
 6541W        W23389  17.364  13.499  14.531  0.1133 -0.2507 -0.3428
 6542W        W23390   6.067  11.381   3.915  0.1526 -0.1049 -0.3073
 6543W        W23391   8.158  17.477  13.567 -0.0413  0.2512 -0.0734
 6544W        W23392  15.770   6.984  15.314 -0.1987 -0.0325 -0.1543
 6545W        W23393  12.162  17.236   1.641  0.0916 -0.1785 -0.1712
 6546W        W23394   4.844   0.987   0.846 -0.3005 -0.1579  0.2023
 6547W        W23395  14.330   4.092   1.517  0.2451 -0.0727 -0.0672
 6548W        W23396   2.493   3.377   4.381  0.3798 -0.1234  0.2943
 6549W        W23397  14.211   1.012  12.129 -0.1885  0.0434 -0.1284
 6550W        W23398  14.012   4.795  12.344  0.0014 -0.2908  0.2195
 6551W        W23399  14.728  17.876   4.188 -0.2528 -0.0616  0.0507
 6552W        W23400   7.296  13.938  12.582  0.1859 -0.2486  0.0738
 6553W        W23401   3.404   0.501   1.237  0.2476 -0.1639 -0.0505
 6554W        W23402  15.884   9.071  13.997  0.2079  0.1759  0.1588
 6555W        W23403  14.638  16.073  15.247 -0.0072  0.1455  0.5019
 6556W        W23404   9.924  16.976  11.626 -0.1801  0.0604  0.4177
 6557W        W23405  14.624  10.101   4.393 -0.2005  0.1302  0.1942
 6558W        W23406  12.970  13.358  12.488 -0.1113  0.2251  0.0625
 6559W        W23407  13.687  13.814   2.567 -0.1242  0.3168 -0.1884
 6560W        W23408   5.394   4.122  15.080  0.1628 -0.0783  0.0233
 6561W        W23409  15.700  15.916  13.314 -0.0035 -0.0378  0.0371
 6562W        W23410  15.788  17.091   1.591  0.0680 -0.0302  0.3418
 6563W        W23411   4.952   3.662   0.946 -0.0932  0.2266  0.1052
 6564W        W23412   4.194   3.271   0.776 -0.1615 -0.0094  0.1470
 6565W        W23413  11.368  13.919   1.359  0.2808 -0.1427 -0.0942
 6566W        W23414  11.989  15.528   4.030  0.0511 -0.1110  0.0405
 6567W        W23415   7.675   4.008   1.281  0.1505  0.1212  0.1693
 6568W        W23416   8.514   5.277  14.935  0.2555  0.2208  0.0934
 6569W        W23417   4.347   6.228   0.571 -0.1395 -0.3375 -0.1998
 6570W        W23418   1.153   0.826  15.460  0.0363 -0.2579 -0.3570
 6571W        W23419   1.453   0.132  13.516 -0.2021  0.2243  0.4114
 6572W        W23420   3.667  17.431   4.203  0.4916 -0.1532 -0.2682
 6573W        W23421  11.691   6.686  16.220  0.0850 -0.4866  0.2901
 6574W        W23422   8.989   5.236  15.907  0.1599  0.0456  0.0500
 6575W        W23423   9.084  10.529  13.260  0.2109  0.0435  0.2381
 6576W        W23424   6.939   3.158   0.777  0.2459 -0.0327 -0.1200
 6577W        W23425   7.224  18.030   4.782 -0.1283 -0.1717 -0.1897
 6578W        W23426   4.231  14.957   0.963 -0.1277  0.1640  0.1797
 6579W        W23427   2.313  16.887   2.528 -0.0841  0.1765  0.0463
 6580W        W23428  13.014   9.964  11.733  0.1117  0.1996 -0.3601
 6581W        W23429  17.999  12.834  11.321  0.1099  0.2280  0.2314
 6582W        W23430   5.764  14.973  11.082  0.0756 -0.0803 -0.2966
 6583W        W23431   4.614   2.435  12.964 -0.2743 -0.1546 -0.1074
 6584W        W23432  14.614   5.875   3.089  0.0832  0.0757 -0.1106
 6585W        W23433  17.605  15.313   5.588 -0.1519 -0.2234  0.2609
 6586W        W23434   7.435   8.779  12.579 -0.0861  0.1997 -0.1045
 6587W        W23435  10.620  11.479  12.081  0.0944  0.0592  0.0072
 6588W        W23436  17.415   4.125   2.879  0.1074 -0.1855  0.2022
 6589W        W23437   6.952   9.373  10.102  0.2875 -0.0810 -0.0974
 6590W        W23438   1.945  11.943   1.055 -0.1190  0.1513  0.0690
 6591W        W23439  18.066  12.313  13.318  0.3524  0.1174  0.4986
 6592W        W23440  15.906   9.959   0.123 -0.0293 -0.2137 -0.2611
 6593W        W23441  18.034   7.570  11.968 -0.1895  0.0186 -0.1465
 6594W        W23442   2.259  16.046  15.001 -0.0764  0.1005  0.2209
 6595W        W23443  17.311  12.627   4.324 -0.3247 -0.1358 -0.2341
 6596W        W23444  11.895   7.139  13.545  0.1320 -0.0524  0.1176
 6597W        W23445   0.487  15.407   0.369 -0.1367 -0.1729  0.3604
 6598W        W23446   6.859   9.184  11.905  0.1601 -0.0308 -0.0009
 6599W        W23447   0.850   4.461  16.286 -0.2703 -0.3030 -0.1597
 6600W        W23448   7.274   8.103   4.636  0.0650 -0.1284 -0.0724
 6601W        W23449   4.020  16.904   4.699 -0.0021  0.0444  0.3502
 6602W        W23450   5.678   7.237   4.842  0.2781  0.0693  0.2163
 6603W        W23451   5.300   4.578  15.297 -0.0558 -0.1020 -0.0918
 6604W        W23452   9.285   1.454  14.716 -0.1384 -0.2857  0.3126
 6605W        W23453  10.762  12.213  11.584  0.2658 -0.0326 -0.0299
 6606W        W23454   1.044  16.037   4.884 -0.1501 -0.1239  0.1658
 6607W        W23455   7.581  13.149  12.144  0.0148 -0.1775 -0.1605
 6608W        W23456   6.543  12.481  13.167  0.2509  0.0964 -0.1064
 6609W        W23457  15.804   9.114   2.476  0.1427  0.2255  0.2517
 6610W        W23458  16.353   3.401  12.657  0.1721  0.1644  0.0427
 6611W        W23459   0.977  11.029  12.088 -0.0139 -0.0366 -0.0893
 6612W        W23460   5.215   9.825  12.411 -0.1384  0.2214  0.1702
 6613W        W23461  13.165  16.046  15.770 -0.1188  0.1301 -0.0922
 6614W        W23462   8.017  16.593  13.860 -0.2581 -0.0941 -0.1440
 6615W        W23463   2.798   6.406   5.131  0.0319 -0.0693  0.0904
 6616W        W23464  10.301   3.248  12.398 -0.0694  0.0618 -0.1245
 6617W        W23465  16.582   8.704  14.573  0.1319  0.0610 -0.1766
 6618W        W23466  16.146  15.987   0.499 -0.3368 -0.0013 -0.0873
 6619W        W23467   2.599   5.263  15.782  0.1368 -0.1135 -0.4579
 6620W        W23468  16.758   8.544  15.773  0.1993 -0.1282  0.1381
 6621W        W23469   1.129  11.765  15.512 -0.2014  0.2134  0.2509
 6622W        W23470  16.181  12.299  11.159 -0.1321  0.2378  0.1541
 6623W        W23471  10.188   8.356   3.709  0.0784 -0.1007 -0.3511
 6624W        W23472   3.916   0.820  11.446 -0.0914 -0.0209 -0.2404
 6625W        W23473   3.523  13.831   2.095  0.0269 -0.0763 -0.1811
 6626W        W23474   3.449   5.716   5.120 -0.2362  0.2519  0.0057
 6627W        W23475  11.850  13.620   1.069 -0.0977 -0.0966 -0.1243
 6628W        W23476  13.186   3.906  12.365  0.2201  0.2110 -0.0495
 6629W        W23477   4.289   2.500  11.116  0.0652 -0.2082  0.1720
 6630W        W23478   1.449  14.572  11.810 -0.2980  0.2019 -0.5508
 6631W        W23479  12.135   4.347   0.890 -0.2130  0.0710  0.1194
 6632W        W23480  17.382   4.155   0.703  0.3544  0.2404 -0.2303
 6633W        W23481   4.003  16.311   0.931  0.0838  0.0234  0.0539
 6634W        W23482  13.362   0.569   0.922  0.2589 -0.1063 -0.1107
 6635W        W23483  11.407   2.544  15.744 -0.0610  0.5161 -0.0496
 6636W        W23484  12.306  12.803  15.250  0.1678 -0.2197 -0.1251
 6637W        W23485   3.880  14.682  14.523  0.2836  0.2457 -0.0258
 6638W        W23486   1.518   6.256   4.531 -0.0604  0.2135 -0.0842
 6639W        W23487   8.729  18.033  12.434 -0.0037 -0.0869 -0.0931
 6640W        W23488   2.132   6.218   2.611 -0.1317 -0.0917  0.0168
 6641W        W23489  16.553   2.708  11.850  0.0436  0.0401  0.1055
 6642W        W23490  14.742  11.178  11.931 -0.2636 -0.3261  0.4195
 6643W        W23491   6.840  10.328  12.174  0.1061  0.1050  0.0154
 6644W        W23492   2.647  17.237   3.187 -0.1897  0.0098  0.0915
 6645W        W23493   5.099  14.901  16.194 -0.0162 -0.0097  0.1968
 6646W        W23494  15.145  17.145  16.144 -0.0476 -0.4235  0.1352
 6647W        W23495   5.675  15.256  14.942  0.1745 -0.1220 -0.0901
 6648W        W23496  16.939   4.804  14.871 -0.0352 -0.0721 -0.0009
 6649W        W23497  12.698   8.220   3.629 -0.1892 -0.1486  0.1330
 6650W        W23498   6.607   6.953  14.907  0.1912  0.2296 -0.1937
 6651W        W23499  10.623   4.519  12.824  0.0321 -0.0656  0.3000
 6652W        W23500   4.098  14.415   6.201  0.4611 -0.1349  0.3795
 6653W        W23501   2.932   5.450   2.510  0.2497  0.0428  0.0453
 6654W        W23502   1.285   9.430   0.532 -0.4555 -0.1623 -0.4118
 6655W        W23503   3.518   1.786   4.411 -0.0824 -0.1552 -0.0449
 6656W        W23504   3.315   7.164  15.240  0.0596  0.2594  0.0950
 6657W        W23505   4.809  13.808  15.310 -0.0852  0.3211 -0.1171
 6658W        W23506   9.008   2.431   3.247  0.0163  0.3230  0.2275
 6659W        W23507   8.254   7.214   3.868 -0.1889 -0.2366  0.2819
 6660W        W23508  11.218   7.136   0.316 -0.1411 -0.2488  0.2445
 6661W        W23509  11.662   0.319   1.625 -0.1841 -0.1471  0.1772
 6662W        W23510   2.488   9.024  14.073  0.0652 -0.1327  0.1166
 6663W        W23511  13.757  17.341  15.655 -0.1201  0.1871 -0.1608
 6664W        W23512   8.080   3.887   6.034  0.0428 -0.1921  0.0244
 6665W        W23513   0.213  12.493   0.519  0.1648  0.1774  0.1136
 6666W        W23514   4.255  11.696   3.617 -0.1843  0.0327  0.1531
 6667W        W23515  16.063   0.770  11.776 -0.2527  0.1155  0.2428
 6668W        W23516   4.171   6.944  13.474  0.1997 -0.3289  0.1727
 6669W        W23517  11.237  14.076   4.907 -0.0093  0.0781  0.1814
 6670W        W23518   5.874   7.492  10.868  0.1175  0.1415  0.2655
 6671W        W23519   4.586   9.174   3.733 -0.0092 -0.1222  0.0018
 6672W        W23520   9.468   4.528  11.669  0.3533 -0.1902 -0.1151
 6673W        W23521  16.778  16.697   0.381  0.4093 -0.0581 -0.1615
 6674W        W23522   1.030   5.214  14.918  0.0416 -0.1017  0.1139
 6675W        W23523  11.776   1.059   0.554 -0.0081  0.0020 -0.0020
 6676W        W23524   3.019   5.859  13.895 -0.0708 -0.0774  0.1152
 6677W        W23525   1.689   8.260   3.835  0.1437 -0.1064 -0.1469
 6678W        W23526   6.328   4.173   0.109  0.2800  0.4444 -0.0996
 6679W        W23527   8.605  11.982   3.235 -0.0372 -0.0714 -0.2004
 6680W        W23528  10.072  17.827  14.790  0.0366  0.2036 -0.0737
 6681W        W23529   5.136   9.920  14.527 -0.1579  0.4129  0.2911
 6682W        W23530  12.276   5.141   1.255 -0.0797  0.1842 -0.2753
 6683W        W23531   1.481  12.069  16.243  0.2163 -0.4167 -0.2001
 6684W        W23532  16.464  12.049   1.560 -0.0389  0.4387  0.1395
 6685W        W23533   9.958  11.740  15.861  0.1253  0.3228  0.0367
 6686W        W23534  11.763   7.939  11.435 -0.0459 -0.0095 -0.1063
 6687W        W23535  15.636   7.781  14.261 -0.3376  0.0755 -0.3249
 6688W        W23536   1.995   4.309   5.210  0.1201  0.0657 -0.0452
 6689W        W23537   5.019  10.554   3.992 -0.1499 -0.1687 -0.4233
 6690W        W23538  11.962   2.215  14.500 -0.1511 -0.4287 -0.0904
 6691W        W23539  16.096   3.156  15.133 -0.1047 -0.0657  0.0125
 6692W        W23540  13.371  11.359  16.301 -0.0914 -0.0287 -0.0994
 6693W        W23541  10.575  12.647  11.209 -0.2299  0.3535  0.0372
 6694W        W23542   8.318  17.455   0.088  0.3389 -0.1608  0.3787
 6695W        W23543  15.269  12.112  12.920  0.1467  0.1676  0.3079
 6696W        W23544  17.340   2.504  12.515  0.1237 -0.3690  0.0244
 6697W        W23545  16.364   8.416  15.518  0.0670 -0.1706 -0.1596
 6698W        W23546   2.903   6.707   2.835 -0.1179 -0.0364  0.1543
 6699W        W23547   1.949  13.300   0.534  0.0293  0.0879  0.0278
 6700W        W23548  18.006  17.131   2.233 -0.1969 -0.1164  0.1291
 6701W        W23549   3.646  11.409  14.304 -0.0981 -0.1086  0.1323
 6702W        W23550   9.141   9.449  13.549 -0.1636 -0.0572  0.0275
 6703W        W23551  14.422   3.891  15.173  0.1185 -0.1200 -0.2055
 6704W        W23552   2.299   1.377  10.898  0.1050 -0.1466  0.1175
 6705W        W23553   6.368   7.414  13.145 -0.4083 -0.1775  0.3945
 6706W        W23554   5.003  10.269  11.168 -0.1216 -0.0330 -0.0096
 6707W        W23555  13.529   5.165   0.599  0.1998  0.2132 -0.3905
 6708W        W23556   8.399  14.551   5.562 -0.1174 -0.1823  0.0215
 6709W        W23557   1.772   4.378   0.072  0.1331 -0.1930 -0.2427
 6710W        W23558   0.848   4.251  11.178 -0.4738 -0.1821  0.2237
 6711W        W23559   6.962  14.191   3.348 -0.0596  0.1246  0.0828
 6712W        W23560  12.916   3.158   3.594  0.0540 -0.0126 -0.3035
 6713W        W23561  16.421  11.015   4.312  0.0784  0.3073 -0.1040
 6714W        W23562  11.312  10.979   2.113 -0.1727  0.2135  0.4883
 6715W        W23563  10.092   5.176   3.667 -0.1823  0.1269 -0.1509
 6716W        W23564   7.918  16.977   0.655  0.1225  0.3128 -0.0659
 6717W        W23565  11.783   5.583  12.517  0.2106  0.1382  0.1632
 6718W        W23566   9.021   7.672   0.240 -0.0400  0.0048  0.0112
 6719W        W23567   3.200  10.138  13.559 -0.0456  0.0413  0.0560
 6720W        W23568   0.619   4.080  14.689 -0.0988  0.1353  0.0484
 6721W        W23569   1.448  10.990  15.365 -0.2181 -0.0320  0.1686
 6722W        W23570   2.353  14.055   3.620  0.3661  0.1898 -0.2948
 6723W        W23571  14.797   5.399   1.179  0.4933  0.1374  0.1849
 6724W        W23572   1.780  11.449  12.537  0.1011 -0.0757 -0.1172
 6725W        W23573   6.445  13.841   2.650 -0.1054  0.0114 -0.2718
 6726W        W23574   1.685   2.589   0.125  0.0187 -0.0306  0.0872
 6727W        W23575   5.233  11.409  13.850 -0.1113  0.0293  0.1085
 6728W        W23576   8.837  17.032   4.484 -0.1808  0.1677 -0.1107
 6729W        W23577   8.641  13.582   2.623  0.2881 -0.0212 -0.0797
 6730W        W23578   5.469   1.883   4.110 -0.3783 -0.5555  0.1145
 6731W        W23579  14.003   1.185  12.867  0.0659 -0.0325  0.1718
 6732W        W23580   9.820  10.566   0.733 -0.2283 -0.0835 -0.3283
 6733W        W23581   7.461   5.382  14.272  0.0398 -0.1040 -0.1368
 6734W        W23582   3.856   8.429   4.018  0.2326 -0.0319  0.2203
 6735W        W23583   2.188  12.761   2.843  0.1062  0.1270 -0.3707
 6736W        W23584   9.356   7.550  12.298 -0.2259  0.0133  0.3637
 6737W        W23585   8.627  11.891  13.469 -0.0351  0.1279 -0.2415
 6738W        W23586   8.374  16.528   2.378  0.2019  0.1567  0.0993
 6739W        W23587   0.484   2.001  14.331  0.1735  0.3458  0.0492
 6740W        W23588   0.882   8.452  14.524 -0.0877 -0.0592  0.2458
 6741W        W23589   9.039   6.736  15.972  0.0426  0.1895  0.0200
 6742W        W23590  17.247  11.973  11.534  0.1266 -0.0052 -0.0844
 6743W        W23591   6.778  10.077  13.309  0.0547  0.1053 -0.0766
 6744W        W23592  15.518   3.499   4.231 -0.1196 -0.3836 -0.2286
 6745W        W23593  14.848   3.228  13.670 -0.2967  0.0853 -0.0490
 6746W        W23594  17.043  12.170   0.838 -0.1889 -0.1508 -0.0015
 6747W        W23595  15.854  12.819  15.884  0.0294 -0.1851 -0.1259
 6748W        W23596   5.206   6.951   5.209  0.1662  0.0827  0.0566
 6749W        W23597   4.261  17.466  12.682  0.2128 -0.3717  0.0113
 6750W        W23598  15.108   5.320  15.710  0.0747  0.1350 -0.0853
 6751W        W23599  12.662  13.734   1.390  0.1820 -0.1643 -0.1156
 6752W        W23600   7.519   0.177   2.052 -0.0030  0.1355 -0.0372
 6753W        W23601  17.201   1.681  15.281 -0.1602 -0.1051 -0.6230
 6754W        W23602   3.530  14.288   1.898 -0.0171  0.2178 -0.2007
 6755W        W23603  18.035   6.000   3.726 -0.2613 -0.1557  0.3260
 6756W        W23604   8.110  13.789  15.550  0.0506  0.0461 -0.3560
 6757W        W23605  10.131   2.916  14.856 -0.2023 -0.0909  0.0564
 6758W        W23606  13.776  12.047  12.834 -0.0158  0.4419 -0.2101
 6759W        W23607   6.383   3.064  12.958  0.2531 -0.1721  0.2091
 6760W        W23608   0.424  16.520   4.907  0.1925  0.0921  0.3403
 6761W        W23609  16.860  15.759   4.464  0.0646  0.0161 -0.1561
 6762W        W23610   5.015  13.599   0.778  0.0499  0.2566 -0.1571
 6763W        W23611   7.231  14.795   1.565  0.0727  0.2500  0.1241
 6764W        W23612  13.572   3.353  16.195  0.0635 -0.0907 -0.0649
 6765W        W23613  13.707  12.162   4.148 -0.3070 -0.0952  0.2273
 6766W        W23614  17.709  15.856   0.233 -0.2865  0.1706  0.2108
 6767W        W23615   6.362  13.549  15.237  0.2498  0.3502  0.4074
 6768W        W23616   1.733  17.650  11.762  0.1700 -0.0446 -0.1341
 6769W        W23617  15.088   9.258  15.317 -0.0590  0.0955 -0.0336
 6770W        W23618   6.980   2.796  11.402  0.0252 -0.2950 -0.1613
 6771W        W23619   2.253   0.845   5.060 -0.0281  0.2113 -0.0322
 6772W        W23620   1.659   0.713  11.330  0.3534  0.5269 -0.0887
 6773W        W23621   4.671  11.243  12.219 -0.3486 -0.1570  0.2975
 6774W        W23622  11.998   2.884   3.917  0.0921  0.0504  0.0181
 6775W        W23623  12.134  14.138  15.309 -0.1136 -0.1315  0.0745
 6776W        W23624   9.254  11.680   0.137  0.2884  0.1089 -0.2140
 6777W        W23625  10.609   1.170   5.237 -0.0547  0.3145 -0.0062
 6778W        W23626  11.308   1.691   4.350 -0.0835 -0.0030  0.0632
 6779W        W23627   0.788   8.036  15.516 -0.0539 -0.0157  0.3292
 6780W        W23628   9.291   7.708   1.870 -0.0013  0.3756  0.1187
 6781W        W23629  15.106  11.806  13.601  0.1237 -0.0793 -0.1657
 6782W        W23630   4.539   4.028   1.006  0.3565 -0.0270 -0.1913
 6783W        W23631   2.012   4.770  13.080 -0.1961 -0.0963 -0.0419
 6784W        W23632  11.182  17.189  12.584 -0.2426  0.3921  0.2392
 6785W        W23633  10.279   2.640  11.707 -0.4265  0.0789  0.0376
 6786W        W23634   5.079   0.780  13.078 -0.3086 -0.3066 -0.1464
 6787W        W23635  11.212   6.073  13.311  0.0040  0.0845  0.2180
 6788W        W23636   7.485  13.411   2.299 -0.0043  0.1757 -0.1281
 6789W        W23637   6.324   2.354   1.855  0.1397 -0.0158 -0.0457
 6790W        W23638   2.541   5.745  14.399 -0.1252  0.1448  0.0765
 6791W        W23639  14.089  17.892   0.096  0.0404  0.0791 -0.4149
 6792W        W23640  10.285  16.376  14.710  0.0974 -0.0193  0.0575
 6793W        W23641   3.416   2.030  14.288  0.4561  0.2099  0.4093
 6794W        W23642   7.139   2.424   3.593 -0.0169  0.0998  0.0833
 6795W        W23643  16.748  16.477  15.853  0.0843  0.1437 -0.3643
 6796W        W23644   9.857   0.028  10.481 -0.2644  0.1653  0.0597
 6797W        W23645   6.320   8.825  14.592 -0.2008  0.1342  0.2240
 6798W        W23646  15.733   4.047   2.798 -0.2093 -0.1497  0.1833
 6799W        W23647   5.577   7.105  14.611  0.2567 -0.0815  0.0804
 6800W        W23648  14.135   4.248   1.967  0.1488 -0.2756 -0.0257
 6801W        W23649  16.410   3.332   2.352 -0.1236 -0.3085 -0.1890
 6802W        W23650   2.365   4.033   3.259 -0.0320  0.0630 -0.1781
 6803W        W23651  17.025   2.664   5.029 -0.0702  0.1116 -0.2824
 6804W        W23652  17.724  11.583   2.030 -0.3608 -0.0037 -0.4738
 6805W        W23653   3.632  15.785  11.753  0.1982 -0.0845 -0.2755
 6806W        W23654  17.573   7.297   2.716 -0.2734  0.1202  0.1795
 6807W        W23655   2.566  10.123  14.088  0.0590 -0.1468  0.1654
 6808W        W23656  18.096  12.676  12.636 -0.3252  0.1056 -0.2172
 6809W        W23657   1.409   6.638  10.226  0.0077  0.2802  0.0028
 6810W        W23658  10.710   0.486   2.796 -0.3850 -0.2504 -0.3126
 6811W        W23659  15.897   3.704  14.105 -0.1738 -0.0537 -0.0070
 6812W        W23660  10.215   0.876   6.145  0.0052  0.0849  0.2924
 6813W        W23661   9.627  11.291  12.721 -0.2742  0.1168 -0.1416
 6814W        W23662   9.652   4.424   0.305 -0.0230 -0.0460  0.0666
 6815W        W23663   6.925  13.458   0.270  0.0502  0.0010  0.2260
 6816W        W23664   2.814  15.074   3.521 -0.1260  0.1121 -0.0316
 6817W        W23665  17.574   8.456   2.609  0.1710 -0.0863  0.3044
 6818W        W23666  15.224   8.097  15.898  0.0495  0.0523 -0.0433
 6819W        W23667   5.082   8.917   2.547  0.2555  0.1631  0.0155
 6820W        W23668  12.430  17.188  12.338  0.0090  0.3330 -0.0397
 6821W        W23669   9.552   8.171  11.597 -0.0401 -0.2854 -0.1755
 6822W        W23670  14.494   6.555  15.683 -0.0446  0.1324  0.1663
 6823W        W23671  10.092   3.618   5.848 -0.1656 -0.2850  0.3310
 6824W        W23672   0.294   4.498   4.734  0.0627  0.2742  0.0373
 6825W        W23673  11.648  14.375  11.644  0.1698  0.1585  0.0470
 6826W        W23674  13.872  12.787  13.504  0.1953 -0.0202  0.1255
 6827W        W23675   4.388   4.564   4.765  0.1398  0.2745 -0.1154
 6828W        W23676   0.615   0.912   3.681 -0.0313  0.0026  0.1891
 6829W        W23677   8.246  16.860   3.557 -0.1467 -0.4120 -0.0181
 6830W        W23678  13.686   3.302   1.254 -0.0026  0.0465  0.1458
 6831W        W23679  16.989   5.322  13.475  0.1219 -0.0499  0.0908
 6832W        W23680   6.967  16.684  13.387  0.1574 -0.1026  0.0756
 6833W        W23681  15.068   4.855   5.265 -0.1666  0.1162  0.2149
 6834W        W23682   6.025   9.950   3.081  0.1090 -0.2007  0.1273
 6835W        W23683  13.511   9.294   2.937 -0.0454 -0.0057  0.0357
 6836W        W23684   4.949  11.171  15.272 -0.0744  0.0362  0.0767
 6837W        W23685  14.479   9.226  15.516  0.1939  0.1370  0.4308
 6838W        W23686   9.810   8.180   0.520  0.3474  0.2691 -0.2708
 6839W        W23687  14.465  14.577  12.499  0.2550  0.1527 -0.1504
 6840W        W23688   5.112  16.025  14.865  0.1911 -0.0330  0.1463
 6841W        W23689   6.830   1.675  10.562  0.0614 -0.0403  0.1048
 6842W        W23690   4.045  13.218  15.197  0.2232 -0.1929 -0.4473
 6843W        W23691   4.650   3.151  12.817 -0.2889 -0.4950  0.1810
 6844W        W23692  12.569   0.395   3.123 -0.0518  0.3165  0.0815
 6845W        W23693   4.845   8.708  15.705  0.0427  0.0702  0.0099
 6846W        W23694   6.233  13.286   0.811 -0.1110 -0.2039 -0.0140
 6847W        W23695  13.441   1.200  15.634  0.0722  0.1830 -0.2044
 6848W        W23696   2.919  17.823  12.364 -0.1722  0.4560 -0.0347
 6849W        W23697  10.177   4.427  15.627  0.0523 -0.1597 -0.1243
 6850W        W23698   8.336  11.291  12.268 -0.0295  0.0671  0.2263
 6851W        W23699  10.712  10.564   2.801 -0.0604 -0.1533  0.1376
 6852W        W23700   1.276   9.257   2.926  0.0038  0.0287 -0.0070
 6853W        W23701   1.764  12.003  14.328  0.1202  0.0963 -0.0146
 6854W        W23702  17.579  10.453   2.745  0.2199 -0.0573  0.0416
 6855W        W23703  17.277   7.739  16.105 -0.4313  0.0279 -0.1092
 6856W        W23704   0.364   5.311   4.872  0.0762  0.0504 -0.2905
 6857W        W23705   0.629  13.876  16.277  0.2606  0.0216 -0.1420
 6858W        W23706  13.946  13.592  15.606 -0.2886 -0.1131 -0.3468
 6859W        W23707   8.174   2.221   1.322 -0.1894  0.1258 -0.1298
 6860W        W23708  13.749  13.850  13.584 -0.1856 -0.0470  0.0688
 6861W        W23709   4.870  15.330  11.907  0.1881  0.1161  0.1124
 6862W        W23710  17.039  13.531   2.898  0.1710 -0.1588  0.2019
 6863W        W23711  13.700   0.151  12.625  0.0690  0.0255  0.2185
 6864W        W23712   9.341  13.821   0.053  0.1197  0.0996  0.0401
 6865W        W23713  14.640   1.657   0.224  0.0526 -0.2578 -0.0623
 6866W        W23714   1.177  12.922   1.497 -0.1664  0.0301 -0.0787
 6867W        W23715   8.734   6.195   4.477 -0.3400  0.0766 -0.1324
 6868W        W23716   4.629   7.960   4.468  0.0166  0.2550  0.0601
 6869W        W23717   4.169  16.751  12.507  0.1538 -0.0388  0.2104
 6870W        W23718   3.766   2.609   1.622 -0.0066 -0.0612 -0.2628
 6871W        W23719   0.825   3.480  11.479  0.2944 -0.2096  0.0618
 6872W        W23720  12.454   6.080   4.584  0.0771  0.3320 -0.4112
 6873W        W23721   4.630   7.577  14.177 -0.1224  0.2745 -0.2871
 6874W        W23722  17.689   8.413   2.123 -0.3783  0.0542  0.3452
 6875W        W23723   0.140  16.463   1.345  0.1334  0.1206  0.0267
 6876W        W23724  15.313  14.391   3.328  0.1077  0.0353  0.0318
 6877W        W23725   5.409   3.201  10.650 -0.0124  0.1812 -0.3322
 6878W        W23726  15.278   9.257   0.363 -0.0409 -0.0984  0.1797
 6879W        W23727   8.247   3.633  15.370  0.2049 -0.1890  0.0026
 6880W        W23728   9.015  14.248   1.861  0.0367  0.0606 -0.2322
 6881W        W23729  15.664  15.448  12.997 -0.0702  0.0663 -0.1062
 6882W        W23730  15.055   5.313   2.562 -0.0042 -0.4472 -0.0145
 6883W        W23731  16.188  10.133   2.885  0.0785  0.0070 -0.3996
 6884W        W23732   6.449   0.801   2.887  0.2019 -0.1208 -0.2324
 6885W        W23733  17.759  16.291   4.801 -0.2383  0.1258 -0.2265
 6886W        W23734  12.636   0.483   0.377 -0.1672 -0.0697 -0.0389
 6887W        W23735   1.820  13.631  14.609 -0.0886  0.0025  0.1127
 6888W        W23736  12.054  12.710   4.724 -0.0901 -0.0066 -0.0160
 6889W        W23737  10.494  14.844  11.897  0.2775 -0.1078 -0.0610
 6890W        W23738   2.685   4.575  15.470  0.2617 -0.0486 -0.2038
 6891W        W23739   6.772   0.119  14.444  0.0913 -0.1020  0.3851
 6892W        W23740  15.732   2.049  14.211 -0.0362 -0.0247  0.2785
 6893W        W23741   3.954  11.071  12.405  0.0459  0.0278 -0.2513
 6894W        W23742  14.990   6.413   3.606  0.1117  0.0091  0.2873
 6895W        W23743   4.773   0.129   2.826 -0.1573  0.2272  0.0364
 6896W        W23744   9.563  14.265  14.863  0.0848  0.3227  0.2039
 6897W        W23745  17.010   6.685  14.581 -0.2940  0.3413  0.0045
 6898W        W23746   8.477   0.305   5.093 -0.1924  0.0231  0.3548
 6899W        W23747   2.458  17.847  12.186  0.0351 -0.0737 -0.1798
 6900W        W23748  16.574  12.765  13.247 -0.3264 -0.1133  0.0769
 6901W        W23749   9.344   8.923  11.768 -0.2377 -0.3387 -0.2245
 6902W        W23750   1.459  12.760  13.203  0.0118  0.1828 -0.0482
 6903W        W23751  14.521   8.739   3.980 -0.0219 -0.1206  0.0236
 6904W        W23752   8.731  10.207   2.605 -0.0559 -0.2377  0.0264
 6905W        W23753   7.839  10.301   1.384 -0.1022 -0.1391 -0.1555
 6906W        W23754   4.907   9.948   5.362 -0.3227 -0.1733 -0.1019
 6907W        W23755   2.835   5.880   2.238  0.3876  0.2036 -0.1080
 6908W        W23756  11.134  15.840   1.221 -0.1511 -0.3118  0.0560
 6909W        W23757   0.438  10.480  12.797  0.1029  0.0129 -0.2266
 6910W        W23758   8.229   0.371   1.548 -0.2179 -0.3460  0.1466
 6911W        W23759  12.306   5.282  15.509  0.1916 -0.3418 -0.1082
 6912W        W23760   2.204   0.551   4.656 -0.2892 -0.3843  0.3232
 6913W        W23761   6.199  15.551   3.505 -0.4487 -0.0840 -0.3710
 6914W        W23762   5.535   3.685   0.067  0.0541  0.1284 -0.1094
 6915W        W23763   0.833   6.199   0.413 -0.2099  0.0520  0.0098
 6916W        W23764  12.990   0.778  10.860 -0.1609 -0.0632  0.0132
 6917W        W23765   9.028   6.406  15.586 -0.0247 -0.0589  0.1484
 6918W        W23766   8.132   9.751  11.976  0.3479  0.0816  0.2661
 6919W        W23767   3.924   9.825  12.866 -0.1528  0.2206 -0.1568
 6920W        W23768  10.554   4.511   3.302 -0.0221  0.4236  0.0949
 6921W        W23769   6.144  15.131  12.111 -0.0853  0.1303  0.1517
 6922W        W23770   6.806  17.599   3.051 -0.1440 -0.0520  0.3350
 6923W        W23771   8.004   5.464   1.539 -0.2533 -0.1211 -0.0781
 6924W        W23772  12.599   1.549   2.646  0.0813  0.0297  0.1112
 6925W        W23773  15.171   3.363   3.217 -0.2106 -0.1257 -0.2313
 6926W        W23774  10.076   0.687  13.926 -0.1138  0.0529  0.1446
 6927W        W23775   7.240  12.168  10.890 -0.1795 -0.0145 -0.6431
 6928W        W23776  14.365  14.239  14.338 -0.1482  0.0911  0.0200
 6929W        W23777  10.521   7.191  15.364 -0.0795 -0.0054  0.1168
 6930W        W23778   9.260  15.256   3.485  0.2588  0.2302 -0.0447
 6931W        W23779  17.814  13.610  13.495 -0.2057 -0.0826 -0.2153
 6932W        W23780   6.778  14.144   0.387  0.2170 -0.2645  0.0453
 6933W        W23781   0.595   1.662  15.214  0.0562  0.1066 -0.1375
 6934W        W23782  11.039   5.786   4.491 -0.1002 -0.0915 -0.0909
 6935W        W23783  10.538  16.696  12.444 -0.0637  0.1481  0.0489
 6936W        W23784   7.912   8.852  14.627  0.0481 -0.0025  0.2864
 6937W        W23785   1.284  12.876  14.539 -0.1044  0.1775 -0.1931
 6938W        W23786   5.134  15.792   5.024  0.1031 -0.1723  0.1150
 6939W        W23787   7.975   6.463  11.222 -0.0891 -0.3000 -0.0541
 6940W        W23788   5.838  10.049   4.560  0.0188  0.1916 -0.2348
 6941W        W23789   7.425   0.120   0.035  0.3330  0.1862  0.2237
 6942W        W23790  15.606   2.850  12.836  0.0075  0.0935  0.0737
 6943W        W23791   3.556   9.614   3.620 -0.0206  0.2762 -0.0157
 6944W        W23792   1.903   0.471  12.876  0.0763  0.1221  0.4208
 6945W        W23793  16.509  16.862  15.608 -0.1205 -0.4607 -0.0108
 6946W        W23794   1.613  10.364  12.080  0.0761  0.0372  0.6643
 6947W        W23795   3.230   1.898   0.461  0.1421 -0.3050 -0.0485
 6948W        W23796  14.541  14.079  11.267 -0.0817 -0.3825  0.0535
 6949W        W23797  10.864  16.614   0.803 -0.1091 -0.2732  0.1494
 6950W        W23798   2.099   4.101   1.893 -0.0911  0.2415  0.0158
 6951W        W23799   1.693   5.178   1.207 -0.0219  0.1231  0.2915
 6952W        W23800   8.753   5.735  15.050 -0.0798  0.1842 -0.1126
 6953W        W23801  16.235  14.176   4.837  0.1290  0.4893 -0.0389
 6954W        W23802  12.111   6.159  13.650  0.0122  0.0360  0.0687
 6955W        W23803   8.381   5.414   0.075  0.2404 -0.1446  0.4024
 6956W        W23804  11.377  11.174  11.546  0.2985  0.2039 -0.0996
 6957W        W23805  17.595  14.233   4.174 -0.0021 -0.0007 -0.2490
 6958W        W23806   1.079  16.457  12.013  0.2830  0.0671  0.2988
 6959W        W23807  10.950   2.673  12.573 -0.2201  0.0399 -0.1213
 6960W        W23808  16.205  11.335  14.035  0.2631  0.2962  0.0956
 6961W        W23809  10.642  17.657  11.791  0.0876 -0.3382  0.0088
 6962W        W23810  18.023   3.363  15.572 -0.2192  0.0558  0.0538
 6963W        W23811  16.406  17.756  13.068 -0.0199  0.4012 -0.0481
 6964W        W23812   5.802  18.065   4.938  0.0666 -0.3409 -0.3623
 6965W        W23813  13.411  16.647   4.130  0.1846 -0.0595  0.2820
 6966W        W23814   6.193   0.209   2.458  0.1177 -0.1530 -0.1295
 6967W        W23815   1.623   2.494  15.069 -0.0877  0.1346 -0.0595
 6968W        W23816  15.470   0.557  14.355 -0.1746 -0.1687 -0.1945
 6969W        W23817  16.524   5.566  16.171  0.2010 -0.1178 -0.4253
 6970W        W23818   0.569   7.333  16.298 -0.2813  0.0948  0.0896
 6971W        W23819   0.459   6.211  14.222  0.1248 -0.2878  0.1681
 6972W        W23820   8.387   1.856  11.814 -0.1415 -0.1420 -0.0235
 6973W        W23821  11.007   3.257   3.734  0.1014 -0.0339  0.1223
 6974W        W23822  16.917  12.429   3.179  0.2536 -0.2002 -0.1765
 6975W        W23823  15.847  16.659  15.078 -0.1201  0.1677  0.1366
 6976W        W23824   6.121   7.216  13.610  0.1106 -0.2587 -0.2157
 6977W        W23825   7.089   7.684   4.681 -0.1488  0.1757  0.1491
 6978W        W23826   6.787   1.516   4.591  0.0034 -0.0522 -0.2085
 6979W        W23827   6.684   2.629   2.374  0.1401  0.2058 -0.0681
 6980W        W23828   2.945   7.919  15.773  0.1489 -0.2103  0.3450
 6981W        W23829   2.997   7.942   1.968 -0.2822 -0.0173 -0.1247
 6982W        W23830  18.001  11.061   2.932  0.0862  0.2120 -0.3130
 6983W        W23831  12.237  12.972  14.038 -0.3630 -0.0935  0.2158
 6984W        W23832   3.736   6.431   0.420  0.0065 -0.0753  0.1206
 6985W        W23833   7.513   4.734  15.184 -0.2163  0.0345  0.0698
 6986W        W23834   3.630  15.575  12.280  0.1944  0.1361  0.1877
 6987W        W23835   1.861   5.929  12.154 -0.2008 -0.3933  0.1483
 6988W        W23836   0.540  12.415   0.178 -0.2585  0.1785  0.0098
 6989W        W23837  16.556  12.922  12.243  0.1262 -0.1961  0.4080
 6990W        W23838   7.476  10.596   3.117 -0.2017 -0.1436  0.0824
 6991W        W23839   8.033   3.689   4.521  0.0833  0.1959 -0.0040
 6992W        W23840  13.213  16.854   1.276  0.0894  0.2632 -0.2311
 6993W        W23841   8.213  17.266   2.490 -0.2460 -0.1657  0.1100
 6994W        W23842   5.659   6.293   2.653  0.0387 -0.0917 -0.1935
 6995W        W23843  10.905   5.577   2.077 -0.1520  0.2736 -0.1429
 6996W        W23844   7.026   5.127  14.384  0.0486  0.0160 -0.0758
 6997W        W23845   6.006   9.457  11.928 -0.0164 -0.1337 -0.0529
 6998W        W23846   3.758  10.881   2.547 -0.1861 -0.1769 -0.0641
 6999W        W23847  13.824   0.282  14.158  0.2832 -0.1572 -0.0439
 7000W        W23848  10.690   5.687  14.324  0.1066 -0.2164  0.1205
 7001W        W23849  14.399  12.585   5.494  0.0777  0.1902  0.0913
 7002W        W23850  12.087  12.088   0.257 -0.1775  0.0424  0.2630
 7003W        W23851  15.956  10.713  16.033 -0.2234 -0.1590  0.1092
 7004W        W23852   4.168   7.504   1.456  0.2066 -0.1212  0.3936
 7005W        W23853   7.524   1.580   2.280  0.1228 -0.0789 -0.0755
 7006W        W23854  10.574   9.229   0.549  0.0339 -0.1620  0.5656
 7007W        W23855   5.348   8.775   0.335 -0.0120  0.1004 -0.0350
 7008W        W23856   4.884  10.943   4.227  0.1444  0.1639 -0.2606
 7009W        W23857   0.065  14.343   1.184 -0.1949  0.2099 -0.2042
 7010W        W23858   2.893   7.303   0.862 -0.1227 -0.0813  0.0504
 7011W        W23859   2.525   1.144  13.295  0.2323 -0.0129 -0.3053
 7012W        W23860   3.223  14.149   2.592 -0.2823  0.0503 -0.1391
 7013W        W23861  10.536   2.106   3.029 -0.0599  0.3606  0.1858
 7014W        W23862   9.509  12.032   0.456  0.0142  0.4035  0.0883
 7015W        W23863  12.983   2.575  16.312  0.0342 -0.2065  0.1998
 7016W        W23864   3.914  13.175   4.705  0.1240  0.0047 -0.0784
 7017W        W23865  10.066  10.148   1.296  0.1288 -0.1660  0.2234
 7018W        W23866   9.633  13.550  12.725 -0.1296  0.1587  0.0666
 7019W        W23867   6.286   4.821  12.379  0.0919 -0.0295 -0.1446
 7020W        W23868   9.113   0.337  13.928 -0.3078 -0.1881 -0.1302
 7021W        W23869   4.997  17.907   2.389  0.1931  0.0263 -0.2125
 7022W        W23870  15.225   3.350   1.519  0.4223  0.1595 -0.0410
 7023W        W23871  15.289   9.691  13.468 -0.0431  0.3788  0.0023
 7024W        W23872   3.797   4.075  11.368  0.4117 -0.1454  0.1361
 7025W        W23873   0.198   7.863  12.826  0.3399 -0.0522  0.2652
 7026W        W23874   3.540   4.167   2.555 -0.2303  0.1438  0.1087
 7027W        W23875  12.711   0.747   4.252  0.2203 -0.1016  0.0316
 7028W        W23876  17.752  15.478  15.831 -0.1116 -0.0011 -0.0610
 7029W        W23877  15.418   7.039  12.647 -0.1202 -0.0254 -0.2541
 7030W        W23878   5.046  16.673   3.139  0.0400  0.0353 -0.0395
 7031W        W23879   5.121  11.651   1.109 -0.2604  0.2603  0.0996
 7032W        W23880   1.319   2.190  14.048  0.1762  0.1340  0.0516
 7033W        W23881   4.520  12.493   2.395  0.3183 -0.2409  0.0208
 7034W        W23882   1.579   0.482  15.966  0.2506  0.0423 -0.1440
 7035W        W23883   2.330   0.479   1.238  0.1404  0.3149 -0.0719
 7036W        W23884   1.320   6.233  14.527 -0.0851 -0.0394  0.4132
 7037W        W23885  17.415   7.596  14.346  0.0164  0.2520  0.0716
 7038W        W23886   0.330  12.212  15.013  0.1286 -0.0334  0.1030
 7039W        W23887  12.025  16.984   0.299  0.2546 -0.2575  0.1962
 7040W        W23888  15.125   9.408  14.843  0.1794  0.1038 -0.1650
 7041W        W23889   0.467   4.083  16.025 -0.1474 -0.0860  0.1973
 7042W        W23890   4.050  16.905   1.624 -0.1294 -0.0613 -0.1810
 7043W        W23891   2.935  17.938   0.436 -0.1551  0.1475 -0.3997
 7044W        W23892  10.681   9.570   3.602  0.0667  0.1135  0.1835
 7045W        W23893  16.022  15.524   4.576  0.1174 -0.1262 -0.0240
 7046W        W23894   8.246   6.753  16.028 -0.0563 -0.1277  0.1158
 7047W        W23895  14.532   7.618   5.228 -0.1273  0.1119 -0.1762
 7048W        W23896  17.201   9.503  11.635 -0.0834 -0.0023 -0.1693
 7049W        W23897   6.672   2.558  13.761 -0.0988 -0.0548  0.1710
 7050W        W23898   5.253   3.680   2.131  0.0925 -0.0722 -0.4166
 7051W        W23899   9.259   0.991  11.353 -0.0897  0.1139 -0.1632
 7052W        W23900  14.734   3.086  11.715  0.2109  0.0501 -0.1670
 7053W        W23901   5.836  15.481   1.285  0.1080 -0.1030 -0.1311
 7054W        W23902  13.659  13.880  12.552 -0.1495 -0.3245 -0.0391
 7055W        W23903   0.753  12.266  13.865 -0.0409 -0.2381 -0.1379
 7056W        W23904   0.391   5.886  11.889  0.1175 -0.1951  0.2812
 7057W        W23905   6.400   0.975   1.984 -0.2840 -0.1523  0.0542
 7058W        W23906   3.622  14.137   0.667 -0.0750 -0.0437 -0.1209
 7059W        W23907   2.812   3.873  15.396 -0.1244  0.0388 -0.3001
 7060W        W23908   5.185   8.193  10.572 -0.3022 -0.3587 -0.0267
 7061W        W23909   6.719  16.000  15.501 -0.0873  0.1212  0.2229
 7062W        W23910   2.720   2.467   3.760  0.0039  0.1076  0.0581
 7063W        W23911   1.978   2.777  16.085  0.0185 -0.2415 -0.0248
 7064W        W23912   0.559  14.294  13.631 -0.2863 -0.1099  0.0249
 7065W        W23913   3.823   9.900   4.080 -0.0373  0.1168  0.0349
 7066W        W23914   8.742  11.465   2.729 -0.0158 -0.2104 -0.1418
 7067W        W23915   5.396  10.328   2.445  0.1166  0.0512 -0.1514
 7068W        W23916   7.639  15.342  16.109  0.1333 -0.1620  0.2207
 7069W        W23917   0.257  12.794   1.927  0.2551  0.1892  0.1404
 7070W        W23918   8.000  11.117  11.185  0.1901  0.3692 -0.0499
 7071W        W23919   9.689   4.058   2.121  0.0349 -0.1899  0.0403
 7072W        W23920   4.311   3.177   0.314  0.0133 -0.2389  0.1227
 7073W        W23921   0.829  11.630   5.319 -0.0127  0.0981  0.2483
 7074W        W23922  16.573   5.371   5.688 -0.3215  0.1270 -0.1624
 7075W        W23923  14.935  17.967   0.995  0.1978 -0.1569 -0.0444
 7076W        W23924   4.095   6.058   2.618  0.0171 -0.0557 -0.0241
 7077W        W23925  15.011  15.113   1.429 -0.2954 -0.2083  0.0856
 7078W        W23926  11.108   6.515   4.269 -0.0231 -0.1709  0.1369
 7079W        W23927  12.745   1.450  14.484  0.0001 -0.0963 -0.1110
 7080W        W23928  15.888  17.207  11.280 -0.1294  0.1788 -0.2459
 7081W        W23929  17.196   7.633   1.308 -0.2787 -0.3086 -0.1423
 7082W        W23930  16.379  17.545   3.065 -0.0252 -0.3768  0.0320
 7083W        W23931   3.378  12.785   0.905 -0.0877  0.1601  0.3843
 7084W        W23932   8.831   5.844  12.074  0.2092  0.4537 -0.2271
 7085W        W23933   4.023   3.642   0.226 -0.1285 -0.0892 -0.0145
 7086W        W23934  14.570   0.862  11.720  0.0171  0.2307  0.0685
 7087W        W23935   8.228   8.854   0.555  0.2149 -0.2005 -0.0404
 7088W        W23936   4.631  12.213  14.172  0.1102  0.0721 -0.1209
 7089W        W23937  11.613   2.759  13.934  0.1631  0.1566 -0.0809
 7090W        W23938  11.536   1.249  13.866 -0.1170  0.2453 -0.0906
 7091W        W23939  14.728   0.810   4.419 -0.0558 -0.0791  0.2985
 7092W        W23940   5.190   7.888   3.738  0.1232 -0.1528  0.1699
 7093W        W23941  13.556   2.492  12.235 -0.1313 -0.0403 -0.1112
 7094W        W23942   4.561  14.343   1.172  0.2474 -0.2747 -0.0203
 7095W        W23943  15.447  16.758   0.654  0.1317  0.0280 -0.0043
 7096W        W23944   2.761   2.752   5.772 -0.0898 -0.0603  0.3730
 7097W        W23945   3.503   0.791   2.946 -0.0030 -0.0920  0.2126
 7098W        W23946   9.041   1.778   1.431  0.0872  0.1514 -0.0816
 7099W        W23947  15.328   1.122  13.606  0.3521  0.0747 -0.3121
 7100W        W23948   7.290   4.720   0.396  0.0181  0.1257  0.0137
 7101W        W23949   0.034   6.274  11.902 -0.0421 -0.1455 -0.0400
 7102W        W23950   6.900  16.109  13.599 -0.2527 -0.1265 -0.0452
 7103W        W23951  17.328  17.497   1.490  0.2606 -0.1298  0.3300
 7104W        W23952   0.835  11.780   3.365  0.1316  0.0556 -0.1277
 7105W        W23953   0.295  14.953  12.534  0.0105 -0.0524  0.2549
 7106W        W23954  17.553  18.031  15.017 -0.2194  0.0997  0.1315
 7107W        W23955  16.753   2.140   3.011 -0.0342 -0.0311 -0.4188
 7108W        W23956   2.659   0.788  12.202  0.0545  0.2101 -0.2135
 7109W        W23957  14.850   5.588  14.194  0.2866  0.1263  0.2512
 7110W        W23958   5.589   8.450   3.555  0.1024  0.0891  0.1707
 7111W        W23959   9.005  16.094  14.599  0.2307 -0.0132 -0.1969
 7112W        W23960  16.589  17.674   0.054  0.1953 -0.1152 -0.0892
 7113W        W23961   4.158   8.962   0.868 -0.3097  0.1993  0.0857
 7114W        W23962  12.792   6.846  12.627 -0.0486  0.0723 -0.1445
 7115W        W23963   2.223  10.655  12.706 -0.3329 -0.0414  0.2466
 7116W        W23964  14.370  15.805   1.671 -0.0510  0.3146  0.1725
 7117W        W23965   0.322   3.226  13.280  0.1840 -0.0627 -0.0047
 7118W        W23966  10.317  14.557   2.367 -0.1106 -0.0236  0.1047
 7119W        W23967  13.686   4.268  13.510  0.0038  0.0884 -0.1306
 7120W        W23968  11.223  18.036  12.989 -0.1248 -0.3006  0.2393
 7121W        W23969  12.824   4.561  15.370  0.0808 -0.0933  0.0190
 7122W        W23970  16.600   2.333   0.809  0.1473  0.2079  0.2887
 7123W        W23971   3.784   6.437   2.889  0.2946  0.1236  0.1386
 7124W        W23972  14.001   1.022   2.476  0.2809  0.3826  0.2721
 7125W        W23973   1.695  13.651   4.663  0.3452 -0.2363  0.0440
 7126W        W23974   1.778   3.650  13.543  0.1576  0.2727  0.0949
 7127W        W23975  10.086   6.833  13.598  0.2559 -0.3148 -0.4034
 7128W        W23976  11.304   3.314  11.042 -0.0563 -0.2444  0.1781
 7129W        W23977  12.593   5.689   5.351  0.0753 -0.2399  0.0368
 7130W        W23978   2.130  12.566  12.431  0.2572 -0.0529 -0.1603
 7131W        W23979  14.133  15.622   2.473 -0.0473  0.0045  0.2784
 7132W        W23980  14.010  16.083  10.390  0.1538  0.0151  0.1438
 7133W        W23981   7.760   0.537   0.091  0.3057 -0.2395 -0.0369
 7134W        W23982  17.018   4.994   3.819 -0.3676  0.0493 -0.0033
 7135W        W23983   1.783   1.437  13.996  0.1064  0.0385  0.0679
 7136W        W23984   5.253  14.950   0.296  0.2149  0.0612 -0.0294
 7137W        W23985   0.886  11.962   3.823  0.0045 -0.1477 -0.3183
 7138W        W23986  15.694  17.661  15.894  0.1418  0.0232 -0.0785
 7139W        W23987  15.609   5.431   2.531 -0.1010 -0.1111 -0.1397
 7140W        W23988  14.630   4.287  11.871  0.1853 -0.0094  0.2465
 7141W        W23989  10.793  18.054  15.488  0.1003 -0.0824  0.0104
 7142W        W23990  11.031  13.193   3.864  0.1524 -0.0045 -0.2844
 7143W        W23991  10.196   7.962   9.856 -0.3136 -0.2405 -0.0053
 7144W        W23992   7.161   6.556   0.273 -0.2301  0.0361  0.4650
 7145W        W23993   9.001   3.556  12.514  0.0861 -0.0604 -0.1168
 7146W        W23994  16.064   5.226   2.605 -0.2384  0.1308 -0.0224
 7147W        W23995  11.965  18.097   2.504  0.0276 -0.1602 -0.0955
 7148W        W23996  17.581  17.728   4.451 -0.1273 -0.2427 -0.3351
 7149W        W23997   6.293   9.901   4.923 -0.2861 -0.1480 -0.0110
 7150W        W23998   3.421   1.298  15.621  0.0337  0.1754  0.2076
 7151W        W23999  16.147  13.101  12.445  0.1684  0.0434  0.0108
 7152W        W24000   9.985   4.948   4.398  0.3122 -0.4087  0.2787
 7153W        W24001   0.200  11.814  13.724 -0.2443 -0.0958  0.2389
 7154W        W24002   5.745   4.882  12.695  0.0597  0.0009 -0.0279
 7155W        W24003   0.214  11.291  13.923  0.0691 -0.0261 -0.0206
 7156W        W24004  11.497   6.997   2.382 -0.0780 -0.2074 -0.1355
 7157W        W24005   8.754   9.148  13.548  0.1003  0.1815 -0.1747
 7158W        W24006  17.536   4.996   3.563 -0.1810  0.2761  0.0574
 7159W        W24007  16.512   0.337   3.981  0.0155 -0.0563 -0.2406
 7160W        W24008   0.056   2.744   3.942 -0.5256  0.1763 -0.0978
 7161W        W24009  13.863   7.847  12.711 -0.1018  0.0557 -0.2466
 7162W        W24010   7.156   6.882   5.071  0.1398  0.0076 -0.0184
 7163W        W24011  16.296   0.208  11.591  0.0334  0.1135 -0.0603
 7164W        W24012  14.406   1.159  14.640 -0.2322 -0.2052  0.1329
 7165W        W24013  14.339  11.029   2.587 -0.0929  0.0583 -0.0185
 7166W        W24014   5.073  12.338   3.526  0.1651 -0.4173  0.0699
 7167W        W24015  15.730   9.901   1.374 -0.2561  0.3836 -0.1683
 7168W        W24016   3.747  12.685   5.163 -0.2874  0.1290  0.2443
 7169W        W24017   9.436  14.731   2.666  0.2287  0.1874 -0.3070
 7170W        W24018  14.400   3.128   4.734 -0.2959 -0.3968 -0.1645
 7171W        W24019   8.901  14.913   0.628 -0.2419  0.2812  0.0678
 7172W        W24020   4.230  10.342   1.499 -0.3203  0.0662 -0.0471
 7173W        W24021  15.081  17.989  14.976 -0.1356 -0.3009  0.1651
 7174W        W24022   9.421   6.166  13.607 -0.1473  0.1479  0.1861
 7175W        W24023  16.960   5.710   2.809  0.0541 -0.0191  0.0746
 7176W        W24024   7.015  10.786  14.799  0.3693  0.1977 -0.0179
 7177W        W24025   7.043   0.132  14.905 -0.1016  0.1282 -0.0289
 7178W        W24026  11.747   6.478  15.701 -0.1193  0.3199 -0.0397
 7179W        W24027  12.622  10.500   1.340  0.0463 -0.1189  0.0526
 7180W        W24028   6.287  15.435  11.679 -0.1149  0.1294 -0.3652
 7181W        W24029   7.678   3.969   4.676 -0.0232 -0.0456 -0.1241
 7182W        W24030   7.855  14.153  11.454 -0.2144 -0.0450  0.0547
 7183W        W24031  15.050   6.105  14.593  0.2011  0.0651  0.2116
 7184W        W24032  11.620  13.134   1.063 -0.1103  0.0470  0.1113
 7185W        W24033   2.274   5.726  12.000  0.2367  0.1897 -0.1523
 7186W        W24034   4.919  12.391   1.147 -0.0853 -0.0740 -0.2426
 7187W        W24035   8.913   8.290  13.115  0.0031 -0.3842 -0.0832
 7188W        W24036   2.214   3.966  11.043  0.3876  0.3654 -0.2270
 7189W        W24037   7.008   6.563  16.152  0.1179 -0.1615  0.2068
 7190W        W24038  16.623  12.823   3.355  0.0040  0.0911  0.1259
 7191W        W24039  15.780   0.201  14.185  0.0269 -0.1502 -0.0409
 7192W        W24040  16.286   3.916  13.045  0.3337 -0.1094  0.0050
 7193W        W24041  17.181   5.856   4.125 -0.1542  0.0688 -0.0142
 7194W        W24042   7.279   8.766  10.840  0.1010 -0.0002  0.1852
 7195W        W24043   4.782   4.784   2.134  0.1994  0.1238  0.1068
 7196W        W24044   9.505  13.883   1.019 -0.0953  0.2061 -0.0739
 7197W        W24045   2.161   6.681  12.264 -0.1025 -0.3024 -0.1171
 7198W        W24046   2.914  10.594  13.410  0.0408  0.3752 -0.1806
 7199W        W24047  12.501   1.123   2.090 -0.1549 -0.0263 -0.0526
 7200W        W24048  17.203  16.317  11.456 -0.1229 -0.2313 -0.3356
 7201W        W24049   4.377   2.260  12.393 -0.0852 -0.1240 -0.1180
 7202W        W24050   8.885   2.470  13.524  0.1640 -0.1610  0.4337
 7203W        W24051  15.851  17.992  14.981 -0.3286  0.0712  0.1467
 7204W        W24052  16.206  13.768  16.240 -0.0936  0.1877  0.0871
 7205W        W24053   9.916  17.715  15.993  0.1097  0.1752 -0.2393
 7206W        W24054  14.025   5.514   0.542  0.0916  0.2807  0.1011
 7207W        W24055   8.199  12.212   0.909 -0.2404 -0.0424 -0.3656
 7208W        W24056   3.039   6.700  15.287 -0.0119  0.2495 -0.1174
 7209W        W24057  16.537  11.831   0.089  0.0845 -0.1798 -0.1605
 7210W        W24058   6.315  12.695  14.731 -0.2229 -0.2165  0.0838
 7211W        W24059  17.754  17.905  12.386 -0.0209 -0.4018  0.3553
 7212W        W24060  11.371  12.556  12.326 -0.0647 -0.0697 -0.0144
 7213W        W24061   0.969   9.865  14.340  0.1269 -0.1633 -0.2096
 7214W        W24062  17.125  16.859   0.794  0.0680  0.1015  0.0748
 7215W        W24063  11.969   7.191  14.920 -0.2338 -0.0554 -0.1317
 7216W        W24064  16.102  12.638   3.442  0.1170 -0.1273  0.1153
 7217W        W24065   2.116  11.123  11.622 -0.3168  0.2276  0.2239
 7218W        W24066  13.695  17.209  14.102  0.1066 -0.0025  0.0485
 7219W        W24067   2.467   6.640   1.032  0.1584 -0.1672  0.0903
 7220W        W24068   7.988   8.496  14.147  0.5085 -0.3238 -0.0861
 7221W        W24069   6.769   8.007  14.774 -0.1427 -0.1565 -0.2615
 7222W        W24070  14.015   6.540   4.621  0.2996 -0.0949  0.2962
 7223W        W24071  15.230   6.682  16.109 -0.3058  0.1409 -0.4409
 7224W        W24072   2.855  15.568  16.228 -0.3322 -0.0297 -0.1782
 7225W        W24073   3.624   2.344   0.145 -0.3640  0.2065 -0.4292
 7226W        W24074   3.153   0.208   4.361 -0.0869  0.0017  0.2480
 7227W        W24075   0.755   1.039  15.055  0.1584  0.0917  0.0418
 7228W        W24076   3.447   4.160   1.740 -0.0593 -0.0983 -0.1773
 7229W        W24077  14.835   3.079  12.458  0.2645 -0.2167 -0.0828
 7230W        W24078   4.021  16.329   3.618  0.0670 -0.0725 -0.3459
 7231W        W24079   2.047  17.700  14.824 -0.0362 -0.2149 -0.1321
 7232W        W24080   8.218  11.000   1.786  0.0347  0.1188  0.1458
 7233W        W24081   2.432   6.720   4.979 -0.0782 -0.0236  0.2101
 7234W        W24082   6.343   2.865   1.786 -0.2137  0.0555 -0.0804
 7235W        W24083  17.884   5.087  10.967 -0.0233 -0.0120  0.3379
 7236W        W24084  16.664  16.956  10.900  0.1925  0.2421  0.3148
 7237W        W24085   9.311   6.384   1.334 -0.0830  0.0891 -0.1013
 7238W        W24086   0.970  10.645  14.054 -0.2041 -0.0274 -0.1053
 7239W        W24087  13.873   1.818  12.769 -0.3563 -0.0508  0.1289
 7240W        W24088   0.668   5.149   0.907  0.1768 -0.1307  0.1848
 7241W        W24089  16.742  15.390  15.811  0.1637  0.2732  0.0424
 7242W        W24090  16.990  12.996   1.373 -0.2659 -0.2635 -0.2338
 7243W        W24091   4.310   1.191   4.323  0.0524  0.1168  0.2237
 7244W        W24092   7.808  11.262   1.731  0.2503  0.1921 -0.0351
 7245W        W24093   0.906   5.936  14.247  0.0158 -0.1377 -0.1953
 7246W        W24094   1.117  10.105   2.853 -0.3139  0.2861  0.1675
 7247W        W24095   2.395   2.010   3.755  0.2307 -0.1564  0.2141
 7248W        W24096  17.746  12.540  12.966 -0.1328 -0.0610 -0.2920
 7249W        W24097   9.354   7.065  13.194  0.3625 -0.3227  0.0680
 7250W        W24098   7.669   4.326  11.898  0.1271  0.3184  0.1394
 7251W        W24099   0.194  15.384   0.919  0.1440  0.2232 -0.2336
 7252W        W24100  11.723  13.814   4.763  0.4356 -0.2501  0.0427
 7253W        W24101   9.675   1.263   0.375  0.4196  0.2420  0.2154
 7254W        W24102   3.647   5.313   4.254 -0.2318  0.2679  0.1184
 7255W        W24103  10.726  13.767   5.064 -0.0838 -0.0678  0.2043
 7256W        W24104   8.464   7.924   2.799  0.0258  0.0326 -0.2410
 7257W        W24105  12.406   6.387  15.145  0.0018 -0.2749 -0.1792
 7258W        W24106   0.382  17.221   2.766  0.1502  0.1794  0.3943
 7259W        W24107  13.724   1.225   3.432 -0.1866 -0.0513 -0.1237
 7260W        W24108   3.815  11.951  14.248 -0.0461 -0.0939  0.0230
 7261W        W24109  16.385  15.951   3.768 -0.0209 -0.2835  0.1942
 7262W        W24110   9.012  15.793  15.692  0.3068 -0.1622  0.2558
 7263W        W24111   1.421   5.433  15.047 -0.2605  0.2177  0.1460
 7264W        W24112  10.886  10.595  15.182 -0.0551 -0.1004 -0.1413
 7265W        W24113   3.693   9.810   2.726 -0.0747  0.0302 -0.2468
 7266W        W24114   7.935   5.682   0.150 -0.0724 -0.1107 -0.1278
 7267W        W24115  16.713  11.586   3.175  0.0550 -0.0452  0.0317
 7268W        W24116  10.630  12.554   2.839 -0.1343 -0.1764 -0.1786
 7269W        W24117   1.050   2.850  10.965  0.0151 -0.2298 -0.1251
 7270W        W24118  11.445  10.197   0.015 -0.0781 -0.0616 -0.1374
 7271W        W24119   5.051   8.255   0.833 -0.2080  0.0289  0.0835
 7272W        W24120  12.516  11.644  12.685 -0.2413 -0.2543  0.0849
 7273W        W24121  15.470   6.565  12.423 -0.0870 -0.2502 -0.0002
 7274W        W24122  11.912  14.869  12.979  0.0195 -0.0279  0.0209
 7275W        W24123   4.279   8.278   4.290 -0.2684 -0.2895 -0.0027
 7276W        W24124  14.329   3.135  14.392  0.4718 -0.0416  0.2848
 7277W        W24125  14.674   6.753   3.244  0.0012 -0.2269 -0.1368
 7278W        W24126   2.022   3.987   0.726 -0.1108  0.0138  0.0186
 7279W        W24127  15.990   0.936  15.407  0.1788  0.1944 -0.2208
 7280W        W24128   8.619   0.693  10.747 -0.2396 -0.0247  0.2216
 7281W        W24129  10.858  15.594   0.096 -0.2334  0.2640  0.3069
 7282W        W24130   2.032   7.789  11.309 -0.1246  0.0345 -0.0694
 7283W        W24131   4.966   7.688  14.912  0.2695 -0.2842 -0.0947
 7284W        W24132  11.390  11.900   5.625  0.1393  0.4652 -0.3336
 7285W        W24133   7.091   3.290   4.630  0.0453  0.4533  0.1517
 7286W        W24134   8.130  10.280  13.385  0.0381  0.1125 -0.0644
 7287W        W24135  14.573  10.941  15.374  0.1912  0.0047 -0.1243
 7288W        W24136   1.701  13.566  15.496 -0.4489 -0.0351  0.4381
 7289W        W24137   5.043  13.074   2.801  0.1345 -0.1250  0.1091
 7290W        W24138  10.945  14.535  10.508  0.4262  0.2381 -0.2746
 7291W        W24139   7.728   3.471  16.189 -0.0317 -0.3041  0.0731
 7292W        W24140   5.176   4.055   2.649 -0.0372 -0.0910  0.1382
 7293W        W24141  14.885  13.925   4.615  0.2914  0.2526 -0.4346
 7294W        W24142   3.148   5.976   4.392  0.0543 -0.1609  0.3734
 7295W        W24143   0.253   3.456  14.014 -0.0487 -0.1781  0.0454
 7296W        W24144   9.264   7.195  15.793 -0.0596  0.1200 -0.0290
 7297W        W24145   0.075  11.325   4.134 -0.1262  0.2023  0.4486
 7298W        W24146  17.715   3.496  12.785 -0.0084 -0.0391 -0.2728
 7299W        W24147   6.190  16.137   0.704  0.1162  0.3464  0.1212
 7300W        W24148   9.408  12.085   0.975  0.0986 -0.0128  0.1604
 7301W        W24149   7.367  17.752   2.927 -0.1414  0.0395 -0.3628
 7302W        W24150   3.562  13.925   0.144  0.2706 -0.1982 -0.2444
 7303W        W24151  12.148  15.060   0.461 -0.1235 -0.0328  0.4601
 7304W        W24152   6.970   4.049  15.957 -0.0749 -0.0177  0.1688
 7305W        W24153  12.185   5.482   3.100  0.3708 -0.2514 -0.2483
 7306W        W24154   7.444   6.937   0.422 -0.1402  0.3594 -0.1527
 7307W        W24155   3.028   5.839  15.801  0.0166 -0.0852 -0.3939
 7308W        W24156   6.700   4.885  11.052 -0.0283  0.0482  0.1670
 7309W        W24157   5.365   9.879  11.434  0.2198  0.2429  0.0633
 7310W        W24158  15.344  12.106  11.960  0.1717 -0.1706  0.4832
 7311W        W24159  10.451   9.542  14.648 -0.3145  0.0379 -0.2118
 7312W        W24160  16.967   3.974   1.961 -0.0068 -0.0212 -0.0421
 7313W        W24161   6.023   5.640   1.395 -0.0690 -0.1167  0.0570
 7314W        W24162   3.400  15.924  14.884 -0.0413 -0.1859 -0.0611
 7315W        W24163  17.029   6.145  15.165  0.0168  0.1212  0.4270
 7316W        W24164  10.758  17.706   3.689 -0.0168 -0.0825 -0.3546
 7317W        W24165  10.511   3.207   3.878 -0.2263  0.0657 -0.2305
 7318W        W24166   0.101  16.243  14.214  0.1714  0.0807 -0.2286
 7319W        W24167   8.122   2.905   0.155  0.0920 -0.0094  0.0625
 7320W        W24168   4.632  12.083   4.902  0.2063  0.1056 -0.0498
 7321W        W24169  16.540   6.393  16.312 -0.2088 -0.1762 -0.0414
 7322W        W24170   8.218  16.990  10.385 -0.0356  0.1128  0.1143
 7323W        W24171  15.387   7.770   2.972  0.0618 -0.0525 -0.1137
 7324W        W24172   5.034   4.939  12.572  0.0638 -0.0592 -0.2161
 7325W        W24173   0.220   9.154  14.170  0.0640 -0.1122  0.0976
 7326W        W24174  11.591  17.029  13.495  0.0329  0.2540  0.0193
 7327W        W24175   5.870  12.779   3.844 -0.1188  0.3793  0.2122
 7328W        W24176   2.676   2.737   3.206  0.0774  0.0970  0.1438
 7329W        W24177  14.366   5.352   5.920  0.2726  0.0516 -0.0863
 7330W        W24178  10.489   4.350  14.413  0.0659 -0.0518 -0.1083
 7331W        W24179  15.417  11.761  11.642  0.1132  0.2305 -0.3696
 7332W        W24180  17.782  15.230   0.826 -0.3084 -0.3901 -0.4973
 7333W        W24181   1.212  12.427   1.734  0.1032  0.1518  0.2604
 7334W        W24182   4.549   2.041   3.348 -0.0044 -0.0897 -0.1501
 7335W        W24183  14.915  10.462  15.890 -0.2686  0.0942  0.1904
 7336W        W24184   2.868   4.403  15.034 -0.0462  0.1823 -0.0329
 7337W        W24185  15.279   3.244  12.453 -0.0163 -0.0528 -0.2657
 7338W        W24186   7.577   2.686   4.011 -0.0237  0.2788  0.1702
 7339W        W24187  13.613   8.672   4.183 -0.1159 -0.0703  0.3588
 7340W        W24188   7.251  10.518   2.162  0.0718  0.0139  0.2166
 7341W        W24189   8.972   2.691  11.744  0.0446  0.1612 -0.1264
 7342W        W24190   4.472   2.303   5.288 -0.0721 -0.1618 -0.1783
 7343W        W24191   6.933   3.429   1.966 -0.0361 -0.2081 -0.0370
 7344W        W24192   5.058  14.315   1.004 -0.2611  0.3250 -0.0969
 7345W        W24193   5.859   5.621   3.326 -0.1435 -0.0408  0.0078
 7346W        W24194   7.607  16.550   4.049 -0.1553  0.0058 -0.2169
 7347W        W24195   0.947  14.437   1.163 -0.2187  0.2864  0.0470
 7348W        W24196   0.670  11.270  12.576 -0.2146  0.0895  0.3020
 7349W        W24197  18.082  12.895   3.368 -0.0060 -0.0590  0.0334
 7350W        W24198  14.911   8.478   1.195  0.2411  0.0300 -0.3040
 7351W        W24199   5.537   9.443  13.263  0.1540 -0.1724 -0.0416
 7352W        W24200   2.838   8.673  13.046 -0.2549  0.1167 -0.0240
 7353W        W24201  14.987  17.619   0.435  0.2157 -0.0266 -0.1149
 7354W        W24202  11.077  11.613   1.063 -0.5048  0.3987 -0.1235
 7355W        W24203   6.183  15.081   2.165  0.1694  0.3857  0.3070
 7356W        W24204   1.126  17.129  13.513 -0.1705  0.1039  0.0129
 7357W        W24205  10.410   2.522   0.266 -0.1813 -0.0572 -0.0411
 7358W        W24206   7.539   2.506  13.520 -0.0828  0.0365 -0.1449
 7359W        W24207  16.015   4.737   2.595 -0.2017 -0.1467  0.3116
 7360W        W24208  12.928  13.816  15.820  0.1655 -0.0887 -0.1702
 7361W        W24209   4.776  18.074   0.154 -0.0097  0.1901 -0.0273
 7362W        W24210  17.571   8.464  13.906 -0.1419  0.1439 -0.0879
 7363W        W24211   2.098   2.399  12.449  0.2205 -0.1399  0.0735
 7364W        W24212   0.923   7.560  13.578 -0.1944  0.1592 -0.1662
 7365W        W24213   5.197   1.770  13.912 -0.3286  0.1011 -0.1109
 7366W        W24214   1.007   6.152  13.631  0.6406  0.0916  0.0982
 7367W        W24215   9.904  16.393   4.316  0.1178 -0.1403  0.3698
 7368W        W24216  12.315  16.071   5.760  0.1254 -0.0009  0.0243
 7369W        W24217  10.700   3.809   0.800  0.4095  0.2187  0.3898
 7370W        W24218   5.213  15.202  15.195  0.1396 -0.1908  0.1083
 7371W        W24219   1.722   0.192  14.882 -0.0611 -0.1171  0.1042
 7372W        W24220   3.849   7.107  15.200  0.1959 -0.2258  0.1266
 7373W        W24221  17.415  12.267   4.895  0.2491 -0.1444 -0.0124
 7374W        W24222   7.679  15.650   0.572  0.4127 -0.0252 -0.1862
 7375W        W24223  15.245   2.353   2.272 -0.0104  0.1056  0.0209
 7376W        W24224   7.264  11.843  14.007 -0.2370 -0.1599 -0.0065
 7377W        W24225  10.991   5.305  11.449 -0.1505  0.0211  0.2774
 7378W        W24226   9.532   0.520   1.213  0.1441  0.2073 -0.0083
 7379W        W24227   2.416  11.652  12.576 -0.2136 -0.1826  0.1001
 7380W        W24228  11.993   6.425  14.596  0.2349 -0.2745  0.1810
 7381W        W24229   0.692   4.660   1.884  0.0021  0.1974 -0.0791
 7382W        W24230   4.842   5.145   3.812 -0.1533  0.1130  0.3588
 7383W        W24231  17.673   3.238  13.323 -0.0098  0.1978  0.0994
 7384W        W24232   0.998   1.674   0.795  0.1745  0.1403 -0.2095
 7385W        W24233   8.686   0.338  15.459 -0.0972 -0.0549 -0.0803
 7386W        W24234  16.742   8.284   2.335  0.0578 -0.3120 -0.0241
 7387W        W24235  12.656   9.215  13.569 -0.0246 -0.0661 -0.2678
 7388W        W24236  17.603   1.317   4.242 -0.0592  0.1290 -0.3545
 7389W        W24237   1.974  17.680   1.557  0.0396  0.1715  0.1511
 7390W        W24238   4.156  10.328  14.037 -0.2106  0.0131 -0.1816
 7391W        W24239   0.552  12.227  11.463 -0.2751  0.3521  0.1110
 7392W        W24240  14.908  12.291  12.074  0.1009  0.2175  0.2845
 7393W        W24241   3.726  16.493   4.725  0.0823  0.0899 -0.1374
 7394W        W24242   3.751  15.070  10.344  0.1434  0.1347 -0.2171
 7395W        W24243  13.128  15.415  14.576  0.1101 -0.0269 -0.2764
 7396W        W24244  16.978   7.791   0.869  0.0265  0.1696 -0.2611
 7397W        W24245   3.670  13.434   3.558  0.2339 -0.1226  0.0224
 7398W        W24246   7.484   6.588  13.404  0.1623 -0.2520 -0.0220
 7399W        W24247   3.847  13.031  12.735 -0.0720  0.2645 -0.0353
 7400W        W24248   0.637   4.729   4.395  0.0657 -0.0788 -0.2993
 7401W        W24249   6.085   7.430   2.637 -0.1407 -0.0259 -0.1457
 7402W        W24250   3.523  10.136   3.640 -0.2167  0.2167 -0.0158
 7403W        W24251  15.005   9.948  13.925 -0.0264  0.0228  0.0966
 7404W        W24252   0.969   1.528  12.980  0.0991 -0.1584  0.3385
 7405W        W24253  16.943  13.800   3.817  0.4714 -0.1948  0.0820
 7406W        W24254  17.132   9.701  13.148  0.0150  0.0043  0.1941
 7407W        W24255  12.365   5.532  12.621 -0.3516  0.2030  0.0740
 7408W        W24256  18.062  15.540   0.054 -0.0756 -0.0132  0.1509
 7409W        W24257  12.790   4.107   3.530  0.0638  0.1305 -0.0011
 7410W        W24258   4.061  14.796   3.879  0.1427 -0.0340 -0.0993
 7411W        W24259   3.640  14.385  11.674 -0.2435 -0.1795  0.0897
 7412W        W24260  16.054   5.389   1.637 -0.0828 -0.2181 -0.0921
 7413W        W24261   1.662   0.331  15.479 -0.3167  0.3893  0.1038
 7414W        W24262   9.400   0.954   4.547  0.2402 -0.1386 -0.0164
 7415W        W24263  11.838   6.472   4.139  0.4655  0.0414  0.1626
 7416W        W24264  17.355  11.263   3.724  0.3060  0.0551  0.0063
 7417W        W24265  12.969  10.974   3.570  0.0285  0.1892  0.4028
 7418W        W24266   6.931  13.259   3.845 -0.2132 -0.0883 -0.2309
 7419W        W24267   4.542  11.883   1.698 -0.0218  0.2644 -0.0181
 7420W        W24268   6.619   6.009  11.758  0.1431 -0.0605  0.0320
 7421W        W24269   1.344  14.205  15.532  0.0011  0.1639 -0.0497
 7422W        W24270  15.164   8.553   6.157 -0.0117 -0.1557  0.1772
 7423W        W24271   2.016   7.275   0.237  0.1413  0.1916 -0.2483
 7424W        W24272  12.972   9.980   3.134 -0.1873  0.3002  0.1137
 7425W        W24273  17.180  10.739  13.942 -0.5608 -0.1875 -0.2567
 7426W        W24274   2.084   0.844   0.866  0.4221  0.0862  0.2914
 7427W        W24275   6.062   7.087  16.003 -0.1524 -0.0085  0.1478
 7428W        W24276   4.978   2.875   4.480 -0.1256 -0.0111  0.1497
 7429W        W24277   6.151  12.605  13.489 -0.2414  0.1650 -0.2441
 7430W        W24278   4.764   4.289   5.014  0.1874  0.0748  0.3273
 7431W        W24279  16.667  13.051  15.449  0.1567 -0.0226 -0.1970
 7432W        W24280  15.383  17.596   3.088 -0.0523  0.0086 -0.3324
 7433W        W24281   7.344   5.480   1.847  0.1578 -0.0753 -0.0791
 7434W        W24282   1.033  16.392   1.677 -0.1965 -0.1955 -0.1359
 7435W        W24283   8.582   2.571   4.257  0.0244  0.0383 -0.1203
 7436W        W24284   6.998   9.614  13.438  0.1447  0.2467 -0.0322
 7437W        W24285  18.030  10.850  13.867 -0.1148  0.0133 -0.4161
 7438W        W24286  14.735  12.443   4.795 -0.3530  0.1452  0.1309
 7439W        W24287   4.719  15.926  14.041  0.0680  0.0683 -0.0643
 7440W        W24288  11.351   1.654  16.012 -0.2818  0.0503 -0.0469
 7441W        W24289  14.854   4.115  15.015 -0.0267  0.1083 -0.1813
 7442W        W24290   9.221  16.691   0.988  0.0692  0.0531  0.1074
 7443W        W24291  14.748   2.360   1.359 -0.0686  0.1017 -0.0347
 7444W        W24292   4.408   6.793   2.917 -0.3233  0.4212  0.0096
 7445W        W24293   0.160  17.501  12.442  0.0371  0.0249  0.1869
 7446W        W24294   3.711   6.938  12.498 -0.1142 -0.2538  0.3218
 7447W        W24295   1.198   9.095  12.969 -0.0328  0.0627  0.1075
 7448W        W24296   6.976  15.931  14.848  0.0181  0.0889 -0.0096
 7449W        W24297  18.012   5.712  15.292 -0.1495 -0.0288 -0.0829
 7450W        W24298   1.052  15.400  12.119  0.3342 -0.1597  0.0037
 7451W        W24299   8.930  16.231   2.661  0.0857 -0.0684  0.3486
 7452W        W24300  15.692   8.747  11.550  0.0846 -0.3982 -0.2299
 7453W        W24301  17.211  17.574   0.259 -0.2166 -0.0516 -0.1015
 7454W        W24302   7.718   3.088   2.090  0.0776  0.2082 -0.2037
 7455W        W24303   6.929  10.228  12.657  0.0941 -0.0996 -0.1744
 7456W        W24304   2.491  13.584  10.579 -0.1144 -0.0875 -0.2648
 7457W        W24305   7.499   4.642  10.936  0.2583 -0.4994  0.1152
 7458W        W24306   3.227   5.789  15.087 -0.3913  0.1557  0.3137
 7459W        W24307  16.491  13.332  13.469  0.4057  0.3044  0.0182
 7460W        W24308  12.977  17.594   0.154  0.0375  0.2417  0.2541
 7461W        W24309  10.043   4.982  14.019  0.1731 -0.1789 -0.1040
 7462W        W24310  10.959   3.658   5.159 -0.0626 -0.3053  0.0868
 7463W        W24311   7.309   7.674   3.742  0.0889 -0.0548 -0.0417
 7464W        W24312  17.377   0.680   2.066 -0.2261 -0.1869 -0.1295
 7465W        W24313  13.340   4.825  14.449 -0.1639 -0.1646  0.1652
 7466W        W24314   5.472  13.921   2.384 -0.2313 -0.1106 -0.1843
 7467W        W24315  11.864   0.797  14.089 -0.4921  0.0248  0.6165
 7468W        W24316   1.590   3.230   2.221 -0.0079  0.0761 -0.3074
 7469W        W24317  11.709   4.298   4.317 -0.0940  0.3962 -0.0372
 7470W        W24318  14.498  10.584   6.158 -0.3972  0.0063 -0.0599
 7471W        W24319  16.765   6.897  13.231 -0.0393  0.0406 -0.3387
 7472W        W24320   4.490  16.960  14.719  0.3127 -0.1004  0.2174
 7473W        W24321  17.535   7.945  14.748 -0.1995 -0.0960  0.2040
 7474W        W24322   9.699   1.725  11.598 -0.1043 -0.1384  0.0748
 7475W        W24323   4.638   3.541  15.563 -0.0883  0.4370 -0.3700
 7476W        W24324   0.692   7.009   2.208  0.1282 -0.0356 -0.0501
 7477W        W24325  15.484  15.244   4.590 -0.2146  0.1978  0.3962
 7478W        W24326   8.380   5.956   1.388  0.0544  0.0658  0.1359
 7479W        W24327  11.771   6.745   0.555 -0.0222 -0.4714 -0.0216
 7480W        W24328   2.954   2.197  15.002 -0.3193  0.1524 -0.0701
 7481W        W24329   5.485  15.058   1.824  0.1348  0.2825 -0.1738
 7482W        W24330   0.178   8.972  15.845 -0.1582  0.1339  0.1048
 7483W        W24331  16.619  17.116  15.155  0.0933 -0.1762 -0.1800
 7484W        W24332   0.764   5.837  13.330 -0.1369 -0.1394  0.1468
 7485W        W24333   4.321   9.208  10.910 -0.2601  0.0767  0.1635
 7486W        W24334  17.767  13.648  14.889 -0.1425 -0.1096  0.1593
 7487W        W24335  15.837   6.474   2.398 -0.0192 -0.0918  0.0140
 7488W        W24336   6.559  14.670  12.769  0.0825 -0.1120 -0.3119
 7489W        W24337  15.253  15.928  15.815 -0.3158  0.5346  0.2061
 7490W        W24338   4.103   1.352  14.434 -0.3249 -0.2791  0.0468
 7491W        W24339  18.018   1.096   4.467  0.0601 -0.0338  0.0216
 7492W        W24340   6.319   5.009  12.838 -0.0793  0.0908  0.0205
 7493W        W24341  13.698   6.864  12.854 -0.0621  0.0747 -0.1832
 7494W        W24342  13.603   9.450  11.359 -0.2110  0.1805  0.1022
 7495W        W24343   9.970  13.225   1.214 -0.0200 -0.2050 -0.3202
 7496W        W24344  16.930  12.427   3.670 -0.1118  0.0861  0.1063
 7497W        W24345   1.493   2.350   3.778  0.0152  0.1261  0.1509
 7498W        W24346   8.109  11.242   1.336  0.0983 -0.1132 -0.2569
 7499W        W24347   4.981   8.247  15.911 -0.2195 -0.4493  0.1086
 7500W        W24348   0.406   1.582  13.359 -0.1718  0.0853  0.0480
 7501W        W24349   7.501   4.786   2.893  0.3123 -0.1096  0.0895
 7502W        W24350  14.345  14.417   0.792 -0.1737 -0.0890 -0.1456
 7503W        W24351  15.535  13.479  12.018 -0.0259  0.2456  0.1428
 7504W        W24352   9.551   4.447  10.501  0.2538  0.0072 -0.2770
 7505W        W24353  16.542  13.533   1.802  0.2077  0.1821  0.2126
 7506W        W24354  11.417  10.034   4.482  0.0883 -0.2342  0.1976
 7507W        W24355  11.955  15.671  15.151  0.0273 -0.0090 -0.0252
 7508W        W24356   6.763  10.795  11.511 -0.0371  0.0526  0.1232
 7509W        W24357  10.458  11.520  14.471  0.2631 -0.0226 -0.1293
 7510W        W24358   7.404   2.934  11.653 -0.1511  0.1107 -0.0826
 7511W        W24359  12.361  15.779   1.518  0.2669 -0.1668 -0.3434
 7512W        W24360   6.147   3.503   3.590 -0.1210  0.1583  0.1101
 7513W        W24361  17.808   9.301   1.961  0.0695 -0.1839 -0.1905
 7514W        W24362  13.428  11.893  15.187 -0.1935  0.1336 -0.1841
 7515W        W24363  12.277   6.350   2.046 -0.0203 -0.0244  0.2240
 7516W        W24364   5.295  11.644  13.223 -0.0540 -0.2448  0.0117
 7517W        W24365  16.416   4.774  12.754 -0.1628 -0.2557 -0.0299
 7518W        W24366  10.233   9.644   4.329 -0.0632 -0.0423 -0.2103
 7519W        W24367   9.013   7.803  12.554  0.3514  0.1525 -0.2509
 7520W        W24368  16.597   0.977   0.961 -0.1248  0.0393  0.1482
 7521W        W24369  16.980   7.538   3.504  0.0414 -0.2711  0.0902
 7522W        W24370   9.936   0.088  10.977 -0.2158 -0.0178 -0.2017
 7523W        W24371  13.345  14.148  14.403 -0.2176  0.4007  0.0738
 7524W        W24372   9.250  16.351  11.560 -0.2619 -0.1619  0.0149
 7525W        W24373   1.000   3.743   2.849  0.0064 -0.1233  0.1003
 7526W        W24374   3.788   0.176  15.114 -0.1271 -0.3904 -0.5877
 7527W        W24375  16.876   5.227  16.258 -0.2823 -0.2438 -0.0720
 7528W        W24376  14.738   1.360  15.443 -0.1453  0.0705 -0.1231
 7529W        W24377   1.559  17.638   3.922  0.4227 -0.0352 -0.1845
 7530W        W24378   4.775   2.516  11.055 -0.1427 -0.0632 -0.1568
 7531W        W24379   7.760  17.441   4.471  0.1748  0.2371 -0.2454
 7532W        W24380   5.338   0.812   2.074  0.2729  0.3282  0.0596
 7533W        W24381   4.244   0.925  14.112  0.0928  0.0029 -0.0356
 7534W        W24382   7.872  10.571  13.923  0.0118 -0.0487  0.0767
 7535W        W24383  11.878  11.879   2.983 -0.1867  0.1801  0.1440
 7536W        W24384  17.964   1.301  10.319 -0.1859  0.0416 -0.0804
 7537W        W24385   2.810   9.507  12.384 -0.1604 -0.2022  0.0139
 7538W        W24386   9.976  12.197   0.346 -0.3872 -0.1675  0.2068
 7539W        W24387  17.535   8.004   2.302  0.0363  0.3627 -0.0523
 7540W        W24388  16.348  12.686   0.703  0.1684  0.0928  0.2761
 7541W        W24389   1.451  13.395  15.990  0.0513  0.0637 -0.1657
 7542W        W24390  16.619  14.506   2.773  0.1622 -0.0338  0.3628
 7543W        W24391   4.743  15.612   3.871  0.2640  0.1181  0.4043
 7544W        W24392  16.394   8.675   1.460 -0.1305 -0.0891 -0.0299
 7545W        W24393   7.819   2.856   4.857  0.1577 -0.0539 -0.0157
 7546W        W24394  12.354  11.593   1.593 -0.1170 -0.2816 -0.1734
 7547W        W24395   2.665   9.617   0.962 -0.1786 -0.0468 -0.0629
 7548W        W24396  12.509   8.155  12.057  0.1432 -0.2419  0.2970
 7549W        W24397   1.626  11.610  11.670  0.0642 -0.2864  0.0057
 7550W        W24398  17.602   3.930   0.012  0.2274 -0.2396 -0.1061
 7551W        W24399   6.757   3.815   2.317 -0.2355  0.0727 -0.0882
 7552W        W24400  13.662   1.454  13.042 -0.1995 -0.0357 -0.1120
 7553W        W24401  13.133   1.593  14.246 -0.0805 -0.2342 -0.0609
 7554W        W24402  13.005  18.009  13.656  0.3044 -0.2642  0.1896
 7555W        W24403  13.290  14.525   0.769 -0.0267  0.0714  0.2366
 7556W        W24404   5.608   6.271   3.136 -0.1059  0.3705 -0.2713
 7557W        W24405  11.427  16.528   1.707  0.1469 -0.1363 -0.1333
 7558W        W24406  16.367  16.283  15.584 -0.1021 -0.0774  0.1425
 7559W        W24407   7.881   9.487   3.656  0.1275 -0.0218  0.1669
 7560W        W24408  16.728  11.074  14.784  0.2083  0.1895  0.1977
 7561W        W24409   7.634   8.393  13.847  0.3201 -0.0141  0.1101
 7562W        W24410  12.695   4.976  15.149  0.2081  0.0033 -0.0855
 7563W        W24411  16.613  18.063   0.744  0.2145  0.1071  0.0753
 7564W        W24412  10.065   6.395  13.208 -0.0085 -0.0709  0.1575
 7565W        W24413   2.101   5.378   1.060 -0.0551 -0.4597 -0.0857
 7566W        W24414   5.453  15.976  11.174  0.1088  0.1583  0.0414
 7567W        W24415  13.511  14.906  13.312 -0.3808  0.0670 -0.0575
 7568W        W24416   6.144   0.209   0.002 -0.3086 -0.1200 -0.3439
 7569W        W24417   7.239  17.352  15.366  0.1245 -0.2168 -0.0648
 7570W        W24418  12.411  16.302   1.695  0.1112 -0.2265 -0.3259
 7571W        W24419  16.509   3.313  13.656 -0.0039 -0.3452 -0.1274
 7572W        W24420   5.961   0.672   2.210  0.1734 -0.1060 -0.1595
 7573W        W24421   1.896   3.101   4.648 -0.1618  0.0903  0.1416
 7574W        W24422   3.344   5.774   0.766  0.0109 -0.1022  0.0762
 7575W        W24423  17.952   7.889  14.990  0.1655 -0.2436  0.0695
 7576W        W24424   4.331  11.812   0.186 -0.1761  0.0286 -0.1163
 7577W        W24425  12.743  13.204   5.390 -0.0133  0.1427  0.1286
 7578W        W24426   4.605   6.291   4.121  0.0943 -0.0947  0.2811
 7579W        W24427  13.045   0.148   3.119  0.0157  0.0083  0.4147
 7580W        W24428  17.303   7.781   3.967  0.3202  0.1990 -0.1042
 7581W        W24429   4.109  15.510  12.125 -0.2489  0.0033 -0.0348
 7582W        W24430   0.824  15.241  15.828 -0.2767 -0.1002 -0.2183
 7583W        W24431   7.561   4.821  15.685  0.1313 -0.2347  0.0111
 7584W        W24432   9.222  11.474   0.962 -0.0735  0.0809  0.1877
 7585W        W24433   8.823   3.617  15.104  0.0422  0.2042  0.3064
 7586W        W24434  14.490  17.487   1.967 -0.3340  0.4171 -0.4846
 7587W        W24435   9.021  16.027   4.674  0.1114 -0.2584  0.2394
 7588W        W24436  17.682  15.588   1.531 -0.1093 -0.1291  0.0288
 7589W        W24437   4.801  17.364  13.847 -0.1011 -0.0842 -0.3374
 7590W        W24438   8.375  14.596   2.618 -0.3546 -0.0824  0.0730
 7591W        W24439   9.264  17.962   2.667  0.0518  0.0907  0.1346
 7592W        W24440   4.274   2.989  10.923  0.1009 -0.1133  0.1874
 7593W        W24441   5.742  15.949  12.879  0.1183 -0.0104 -0.0416
 7594W        W24442  11.109  10.709  11.685 -0.0221  0.3100 -0.1416
 7595W        W24443   5.304  17.237   4.131 -0.0661  0.0663  0.1010
 7596W        W24444  17.233  12.057  14.866  0.2502  0.0135 -0.0700
 7597W        W24445   3.212   1.802  15.846 -0.0310 -0.1508 -0.1670
 7598W        W24446   4.554   0.704  13.166  0.3286 -0.1748  0.0194
 7599W        W24447   7.232  12.050  12.136 -0.0823 -0.1181 -0.1317
 7600W        W24448  12.923   9.417   1.234  0.0859  0.2067 -0.2367
 7601W        W24449   6.706   0.085   3.553  0.0945 -0.3503 -0.0826
 7602W        W24450   5.962   0.919  14.856 -0.0688 -0.1967  0.1793
 7603W        W24451  15.684  14.855  14.465  0.1751 -0.3144  0.1851
 7604W        W24452   3.775  16.317   2.148 -0.1093 -0.2531  0.0679
 7605W        W24453  13.432  12.170  11.578  0.1865  0.1424 -0.1144
 7606W        W24454   0.821  12.556   1.991  0.0450 -0.0738  0.1387
 7607W        W24455   9.443  17.721  14.982  0.1580  0.1866  0.1068
 7608W        W24456   0.040  14.083   2.255 -0.0655  0.1571 -0.2057
 7609W        W24457   1.438   4.107  15.092 -0.1198  0.0526  0.0606
 7610W        W24458   1.520  13.974  15.931 -0.1719  0.2159 -0.0458
 7611W        W24459  15.693   0.755   4.473  0.1045  0.0496  0.2774
 7612W        W24460   7.782   4.710   0.093  0.1314 -0.2515 -0.2299
 7613W        W24461  13.425  13.172   1.684  0.0382 -0.1302  0.0407
 7614W        W24462   5.250  17.103  13.830 -0.3475 -0.2474  0.0024
 7615W        W24463   9.314   6.556  15.086  0.1046  0.1169 -0.1730
 7616W        W24464  12.082  16.750  12.738  0.2151 -0.1375  0.1603
 7617W        W24465   2.608  12.730   0.229  0.1826  0.1635  0.1361
 7618W        W24466   8.765  12.051   2.175  0.2330  0.2608 -0.1811
 7619W        W24467   6.026   3.254   2.079  0.0192 -0.0449  0.0775
 7620W        W24468   0.072  17.238  13.391  0.0602  0.0397  0.0582
 7621W        W24469   9.828  15.919  16.018 -0.1070 -0.0879 -0.1342
 7622W        W24470  11.221  14.519  14.015  0.1561  0.1260 -0.1818
 7623W        W24471  12.545   1.748  11.434 -0.2633 -0.0653  0.0767
 7624W        W24472  17.108  11.484  11.465  0.4857  0.1857  0.2346
 7625W        W24473  11.541   7.650   2.009  0.2349 -0.0129 -0.0818
 7626W        W24474  16.713   0.491  16.080 -0.1565 -0.0491 -0.0112
 7627W        W24475   8.533   8.356   0.688  0.2169  0.0387 -0.3177
 7628W        W24476   1.478   8.922   2.263 -0.2305  0.3556 -0.3117
 7629W        W24477  11.352   2.197   4.256  0.1612  0.2690 -0.0166
 7630W        W24478  13.169  10.413  13.804 -0.1285 -0.1762  0.2953
 7631W        W24479   0.029   9.748  14.682 -0.3008  0.1338  0.1732
 7632W        W24480  14.349   0.597  15.464  0.1469  0.0104 -0.2166
 7633W        W24481   5.579   8.422   0.095 -0.0051 -0.1358  0.2059
 7634W        W24482   8.386   9.691  12.435  0.2054  0.2021  0.2059
 7635W        W24483  15.135   0.659  13.470  0.0854  0.0441 -0.1479
 7636W        W24484   7.536   6.094  11.947 -0.0628 -0.0928  0.0454
 7637W        W24485  10.374   7.235  10.494 -0.1098  0.0546 -0.1969
 7638W        W24486  11.614   2.501  16.245  0.1460  0.0438 -0.1026
 7639W        W24487  14.208   3.759   0.660  0.3971  0.0924 -0.2090
 7640W        W24488   1.063  15.720  12.914 -0.1437  0.1712  0.2713
 7641W        W24489   6.275   2.731  15.361 -0.0861 -0.0371 -0.2523
 7642W        W24490   8.431   4.076   0.357  0.0878 -0.0340  0.2547
 7643W        W24491  12.641   3.225   3.196  0.0782 -0.0538 -0.0548
 7644W        W24492  14.307   5.656  14.682 -0.0747  0.3453  0.3191
 7645W        W24493  15.311   8.105  13.002  0.1747  0.1811  0.2375
 7646W        W24494  16.828  12.921  15.993 -0.1795  0.0974  0.1705
 7647W        W24495  10.016   4.848  11.633 -0.2614  0.3135 -0.0980
 7648W        W24496   7.326   2.356  16.060 -0.1684 -0.1665  0.1100
 7649W        W24497   7.915  11.315  10.343 -0.0004  0.1970 -0.0847
 7650W        W24498   3.705  15.835  15.788  0.0212  0.1963 -0.3547
 7651W        W24499  13.660  10.384  12.468  0.0741 -0.2277  0.0617
 7652W        W24500   2.510  10.378  11.430 -0.0178  0.1725  0.2018
 7653W        W24501   2.845   6.254   1.964 -0.1912  0.2097  0.1549
 7654W        W24502   6.578   5.633  13.960  0.0447  0.0887 -0.1299
 7655W        W24503   5.460   1.441  16.095  0.1377 -0.3267 -0.0784
 7656W        W24504  11.363   0.689   3.397 -0.0316 -0.1904 -0.3810
 7657W        W24505   6.517  17.661  15.110 -0.1979  0.0321  0.0563
 7658W        W24506   5.726  10.904  13.214 -0.2155  0.0474 -0.1583
 7659W        W24507   1.080  11.023   6.112 -0.2606  0.1251 -0.1008
 7660W        W24508  15.809   4.921  13.660  0.0324 -0.1509 -0.2262
 7661W        W24509   4.561   3.041  15.138  0.1358  0.3557  0.2133
 7662W        W24510  10.871  13.915   2.673  0.1331  0.3251  0.0012
 7663W        W24511  17.589  14.148   3.059 -0.0381  0.1822 -0.0051
 7664W        W24512   6.271   7.346   4.550  0.0434 -0.0592 -0.1273
 7665W        W24513   2.793   8.904  15.560  0.0069 -0.0781 -0.1202
 7666W        W24514   0.457  17.282   5.110 -0.3269  0.0393  0.1770
 7667W        W24515  17.823  15.386   2.919 -0.0262 -0.1980 -0.3865
 7668W        W24516  15.198   4.571   0.587  0.0260  0.2741 -0.2312
 7669W        W24517  17.034   8.929  13.869 -0.0229  0.2038  0.0220
 7670W        W24518   2.816  13.502  12.725 -0.0949  0.1090 -0.4841
 7671W        W24519   7.412  13.952   2.085 -0.1304 -0.1488 -0.0120
 7672W        W24520   6.240   3.398  15.969 -0.0311  0.0644 -0.0326
 7673W        W24521   0.794  16.281   5.212  0.0336  0.2296 -0.1858
 7674W        W24522  14.009  14.902   5.049 -0.2144 -0.0270 -0.4823
 7675W        W24523   6.256   9.586  14.716 -0.3627  0.1952  0.3568
 7676W        W24524   5.455   0.399   0.704 -0.1370 -0.0442  0.0390
 7677W        W24525   9.072  10.152   4.922 -0.1653 -0.0670  0.1879
 7678W        W24526  14.375   9.741   3.311 -0.2692 -0.2720  0.0961
 7679W        W24527   6.059   5.674  15.828 -0.3012 -0.3700  0.0419
 7680W        W24528   8.780  16.952   3.193 -0.1620 -0.0938 -0.0269
 7681W        W24529   4.791   1.414   4.053 -0.1221  0.6003  0.3875
 7682W        W24530   3.503  16.639   5.637 -0.0312  0.2958  0.2209
 7683W        W24531  14.592   2.824   1.558  0.1251  0.2122  0.1710
 7684W        W24532  14.451  11.299  11.093  0.0639  0.0518 -0.2608
 7685W        W24533   1.833  17.914  14.422  0.0908  0.0543  0.0428
 7686W        W24534  13.331   8.887   2.494 -0.2257  0.1124  0.0320
 7687W        W24535   5.228  10.069   4.956  0.2720 -0.0106 -0.0564
 7688W        W24536  12.108   4.085   4.594 -0.1883  0.3103  0.0493
 7689W        W24537   6.835   8.792   0.607  0.0918 -0.0791 -0.4362
 7690W        W24538  16.387   9.215  13.312  0.2658  0.0772 -0.0668
 7691W        W24539  14.161  10.433  13.347 -0.3281 -0.1556  0.1278
 7692W        W24540   6.157  11.700  15.782  0.0927 -0.1014 -0.0015
 7693W        W24541   7.572   5.775  14.928 -0.1854 -0.0616  0.0794
 7694W        W24542  17.356  10.736   3.100  0.2439  0.3543 -0.1926
 7695W        W24543  11.236  17.572   3.970 -0.1132  0.1199  0.1201
 7696W        W24544  13.189   4.770   4.112 -0.1996 -0.1646  0.1591
 7697W        W24545   2.731  13.021  14.913  0.0205  0.3298  0.2560
 7698W        W24546  12.236   3.368   1.966  0.2703  0.0930  0.0396
 7699W        W24547  16.250   0.070  16.205 -0.1129 -0.0573  0.1748
 7700W        W24548  12.510  11.170  11.107  0.2995  0.1784  0.3773
 7701W        W24549   0.297   2.357   3.613  0.2951 -0.4813  0.0442
 7702W        W24550   4.614   3.560   0.627  0.3090  0.0773  0.0726
 7703W        W24551   6.103   0.500  12.254  0.3281 -0.0569  0.3465
 7704W        W24552   6.414   7.241  14.146 -0.0195 -0.0452 -0.0650
 7705W        W24553   8.031   7.638   0.951 -0.3245 -0.3034  0.0410
 7706W        W24554  13.017  13.632   0.291  0.1508  0.1276 -0.1419
 7707W        W24555  15.756  14.789  12.447  0.2893  0.1853 -0.0768
 7708W        W24556  15.541  16.473   1.888  0.1416  0.2108 -0.3343
 7709W        W24557  14.020  12.421  13.136 -0.0579 -0.1109  0.2565
 7710W        W24558   0.289  11.984   5.019  0.0282  0.1499  0.0387
 7711W        W24559  11.913  10.515  13.192 -0.2422 -0.2065  0.2337
 7712W        W24560  10.266  13.427   1.627  0.0570 -0.0605 -0.0439
 7713W        W24561  14.821  13.146   4.522 -0.0343 -0.2737  0.0436
 7714W        W24562  12.337   4.289   0.413 -0.3035 -0.3265  0.2486
 7715W        W24563   9.067  11.331   2.325 -0.2322  0.2290  0.0744
 7716W        W24564  17.933  12.044   4.842  0.0517  0.1834  0.2179
 7717W        W24565   8.375  17.481  14.058  0.0926  0.1026  0.2710
 7718W        W24566  16.089   9.077   4.876  0.1892  0.1183  0.1156
 7719W        W24567  11.784   0.094   2.057  0.0480 -0.0352 -0.1705
 7720W        W24568   7.453   6.916   3.303 -0.1347  0.1281  0.1563
 7721W        W24569  11.255  15.655  15.181 -0.1181 -0.0647  0.1076
 7722W        W24570   1.613   4.053  15.722  0.1042  0.0910 -0.1036
 7723W        W24571   0.767  16.368  14.253 -0.1478  0.0018  0.2110
 7724W        W24572  10.880  12.965   2.824  0.0734  0.2313 -0.0638
 7725W        W24573   8.330  12.653  16.027  0.0677  0.0511 -0.1877
 7726W        W24574  14.288   8.768   2.507  0.2918 -0.1952  0.5489
 7727W        W24575   4.781  17.040  11.259 -0.3868 -0.0664 -0.2971
 7728W        W24576  12.389   2.769  11.248 -0.4083  0.1901  0.1645
 7729W        W24577  13.156  14.823  13.672  0.2822  0.1142  0.0277
 7730W        W24578   0.558  16.140   1.409 -0.4566 -0.2489  0.1647
 7731W        W24579  11.607   1.091  11.370 -0.0244 -0.0567 -0.0649
 7732W        W24580   8.012  16.775   2.188 -0.1068 -0.0672  0.1015
 7733W        W24581  12.932  16.795  13.572 -0.1419 -0.0909 -0.2080
 7734W        W24582   4.678   7.259   3.758 -0.0513 -0.1600  0.3005
 7735W        W24583   4.187   4.373   2.755 -0.3447  0.0429 -0.0151
 7736W        W24584   6.517   3.103   3.272 -0.0850 -0.2140 -0.0587
 7737W        W24585  15.895   8.680  15.339  0.2253  0.0520  0.2390
 7738W        W24586   8.918  18.082  11.635 -0.1431  0.2668 -0.1972
 7739W        W24587  17.810   8.377   4.983 -0.0564 -0.1988  0.0151
 7740W        W24588  16.893   6.362  13.191 -0.3106  0.2157  0.0833
 7741W        W24589   1.079   4.960   1.820  0.1074 -0.1919 -0.1163
 7742W        W24590   5.039   8.708   4.180 -0.2135 -0.3778  0.0825
 7743W        W24591  13.676   1.815   1.635 -0.0011  0.1302 -0.1590
 7744W        W24592   0.461  14.290  16.026 -0.1688  0.2888  0.1708
 7745W        W24593   8.356  15.196  14.643 -0.0927 -0.2048  0.0665
 7746W        W24594   9.043   7.511  14.664  0.0744 -0.2416 -0.0074
 7747W        W24595   5.398   2.991   4.730 -0.1758  0.1169  0.1596
 7748W        W24596  16.477  17.364  11.191  0.0019  0.1400 -0.1666
 7749W        W24597  10.574   7.827  10.190  0.1643 -0.2345  0.0095
 7750W        W24598  12.611  11.995   1.104  0.1357 -0.0534 -0.0115
 7751W        W24599   5.048  17.483   4.461 -0.3607 -0.2286  0.0845
 7752W        W24600   7.908   3.927  13.489 -0.2863  0.0107  0.1629
 7753W        W24601   3.388  13.733  16.068 -0.1048  0.2851 -0.1397
 7754W        W24602   9.267   6.792   3.502  0.0577 -0.2499  0.0408
 7755W        W24603   8.990   5.743  13.496  0.2840 -0.0167  0.0828
 7756W        W24604   0.262   2.546   2.985 -0.2591  0.0840  0.1318
 7757W        W24605   2.888   1.689  11.742 -0.1128  0.0288  0.0231
 7758W        W24606   4.797   5.500   4.952  0.1895 -0.0342 -0.1977
 7759W        W24607   5.002   7.304  13.241  0.4588 -0.0593 -0.1271
 7760W        W24608  15.190   3.290   4.526  0.2177 -0.2901  0.1062
 7761W        W24609   6.692   8.714   4.841 -0.0531  0.0477 -0.2898
 7762W        W24610   0.204  16.759  11.667  0.2257 -0.2657  0.2409
 7763W        W24611  11.591   5.794   2.681 -0.1527  0.1423  0.1194
 7764W        W24612   3.138   9.033  13.280 -0.2646  0.3758 -0.2760
 7765W        W24613   4.949   7.900  15.442  0.3714  0.1084 -0.0417
 7766W        W24614  10.080   0.972   3.841  0.1034  0.3712  0.0602
 7767W        W24615   0.005  10.637   4.994 -0.0455 -0.2402  0.1409
 7768W        W24616  13.396  15.717   0.269 -0.1693  0.0432  0.3121
 7769W        W24617   3.845   4.248  16.134  0.0456  0.2774  0.1475
 7770W        W24618  17.038   1.494  15.717  0.1002  0.3913 -0.4686
 7771W        W24619  15.266   8.589   1.527  0.1221  0.2610 -0.0945
 7772W        W24620  16.769  13.065   1.906  0.1325  0.0194 -0.0171
 7773W        W24621  14.608  13.164  11.905  0.1172  0.3180  0.1264
 7774W        W24622   2.428   9.910  11.682  0.3971  0.3566 -0.0379
 7775W        W24623   7.961   5.849  13.025 -0.2798  0.1092 -0.1653
 7776W        W24624   3.761   0.097  12.656  0.0375  0.0916 -0.0507
 7777W        W24625   2.105   0.044   1.644  0.0338  0.2818 -0.2171
 7778W        W24626   6.206   3.101   1.348  0.0455  0.0466  0.0722
 7779W        W24627  16.296   8.944  13.800  0.0025 -0.1654 -0.0548
 7780W        W24628   7.511  12.149   1.508 -0.1844  0.2202  0.4068
 7781W        W24629   8.888   0.476   2.060  0.4144 -0.0315 -0.1421
 7782W        W24630   0.667  16.473  11.259 -0.0177  0.0861  0.0216
 7783W        W24631  14.532   3.287  11.302  0.1126 -0.0218  0.0720
 7784W        W24632   8.181   8.129   1.880 -0.0226 -0.2484  0.2056
 7785W        W24633  13.931  13.588   1.499  0.1717  0.0352  0.1485
 7786W        W24634   1.630   6.740  11.902  0.1104  0.0704  0.2993
 7787W        W24635  17.463  15.368  15.401 -0.0245  0.0321  0.2882
 7788W        W24636   2.057  14.228   5.035 -0.0108 -0.0541  0.0226
 7789W        W24637  11.936  12.811   6.151  0.0430 -0.1558  0.1060
 7790W        W24638  15.336  12.613   2.827 -0.2444 -0.0692  0.0147
 7791W        W24639  11.616  15.295  15.226  0.0608  0.0167 -0.1242
 7792W        W24640  14.752   5.975  11.346 -0.1694  0.2967 -0.3978
 7793W        W24641   3.258   7.421   1.286 -0.0201 -0.3885 -0.2107
 7794W        W24642  14.387   6.577   6.032 -0.1416 -0.0447 -0.1661
 7795W        W24643   7.582  17.159   4.078 -0.3216 -0.2038 -0.1387
 7796W        W24644   8.497   7.917   0.974  0.0899  0.1341 -0.3308
 7797W        W24645   7.442  18.088  13.419  0.1582 -0.3124 -0.2660
 7798W        W24646   1.851  13.055   2.080  0.4067  0.1225 -0.0146
 7799W        W24647  15.482   9.490   2.515 -0.1549 -0.1652  0.0177
 7800W        W24648  10.809  11.478  14.866 -0.0356 -0.1013 -0.1523
 7801W        W24649   3.237  16.088  11.923  0.2528 -0.1809  0.0209
 7802W        W24650   7.718   0.362   5.572  0.1388 -0.1349  0.1725
 7803W        W24651  11.143   6.757   1.183  0.3584 -0.0083  0.0803
 7804W        W24652   2.798   1.493   0.469 -0.0258 -0.0079 -0.1449
 7805W        W24653  13.722  17.001  11.625 -0.0986 -0.5428 -0.0373
 7806W        W24654  11.937   9.766  15.500 -0.2703 -0.3504 -0.0071
 7807W        W24655  15.055  11.920   4.065  0.1738 -0.0797  0.0009
 7808W        W24656  13.966   7.826   4.006 -0.1484  0.1544 -0.2646
 7809W        W24657  16.162   3.169   4.759 -0.2615 -0.0149  0.2469
 7810W        W24658   1.538   2.095  12.307 -0.1224 -0.2158 -0.0416
 7811W        W24659   0.741   4.383   4.907 -0.0363  0.0059 -0.2222
 7812W        W24660   5.318  13.756  15.181 -0.1321  0.1127 -0.1342
 7813W        W24661   5.439  14.683  15.226  0.1965 -0.0618  0.1868
 7814W        W24662   9.487  16.265   0.968 -0.1469  0.0221 -0.1473
 7815W        W24663   2.781   3.035  13.956 -0.2595 -0.2784  0.4335
 7816W        W24664   8.014   2.795  11.829  0.0684  0.0278 -0.1241
 7817W        W24665  12.637   8.775   3.621  0.0366 -0.0415  0.5389
 7818W        W24666   0.322   7.145  11.975  0.0245 -0.0120  0.1261
 7819W        W24667   6.973   7.621   2.297 -0.1127  0.1193 -0.3471
 7820W        W24668   3.237  13.469   0.229  0.0349  0.1256  0.1481
 7821W        W24669   0.839  17.545  13.718 -0.3474 -0.3379  0.1563
 7822W        W24670   2.321   2.339  13.391  0.0975 -0.0259 -0.0433
 7823W        W24671  10.665  16.435   3.130 -0.0202  0.5277  0.1086
 7824W        W24672   5.642   1.965  14.046  0.2109 -0.2380 -0.1119
 7825W        W24673   2.302  11.466   0.077 -0.2131  0.1906  0.1440
 7826W        W24674   9.198   3.508   3.597 -0.0825 -0.0412  0.0715
 7827W        W24675   3.118   8.454   3.802  0.0449 -0.1917 -0.1334
 7828W        W24676   4.785   2.375   5.661  0.1352 -0.1477  0.3625
 7829W        W24677   1.183   3.873  12.880  0.0570  0.1008 -0.2718
 7830W        W24678  11.524  16.870  13.956  0.5107 -0.0135 -0.1636
 7831W        W24679   9.109   2.152   0.460 -0.1909 -0.3902 -0.3003
 7832W        W24680   2.916   8.887   5.106  0.1977  0.2726  0.0582
 7833W        W24681  14.802   5.495  12.832  0.1730  0.3853  0.1243
 7834W        W24682   0.547   8.285   5.717 -0.2066 -0.1705 -0.0671
 7835W        W24683   4.355   9.875   1.339  0.2322  0.1248 -0.1824
 7836W        W24684   1.030  14.083   2.834 -0.1237  0.1151  0.0497
 7837W        W24685   6.219  15.610  14.346  0.3101 -0.2362 -0.0880
 7838W        W24686   8.416  17.615  11.659 -0.2069  0.0958  0.2545
 7839W        W24687   7.434  16.604  11.612 -0.1299  0.3435 -0.1417
 7840W        W24688  11.589  14.254   4.040  0.1126 -0.0586  0.2186
 7841W        W24689   5.136  16.293   4.539 -0.2094 -0.2446 -0.0898
 7842W        W24690  11.287  11.612  11.877 -0.2645 -0.3948  0.0915
 7843W        W24691  14.524   2.129   3.126  0.0415 -0.2655  0.0302
 7844W        W24692  15.759   5.388   1.190 -0.4147 -0.2687  0.2009
 7845W        W24693   6.234  15.601  13.199 -0.0415  0.2503 -0.5155
 7846W        W24694   5.197  16.228  12.040  0.2775 -0.0109 -0.1353
 7847W        W24695   0.477  10.184   2.967  0.0929  0.1001 -0.2102
 7848W        W24696  12.736  13.605   3.906 -0.0258  0.2847  0.0375
 7849W        W24697  17.004  11.071   3.417 -0.4139 -0.4369 -0.1360
 7850W        W24698  15.825   4.909   1.460  0.0645 -0.0097 -0.1008
 7851W        W24699   1.426   9.034   1.420  0.0684  0.1876  0.1060
 7852W        W24700   6.861   9.751  16.232 -0.0754  0.2302  0.0617
 7853W        W24701  16.801  10.137   1.975 -0.0848  0.2825  0.0092
 7854W        W24702  15.654   5.772  13.347 -0.0902 -0.0403  0.4987
 7855W        W24703  10.637  12.048   2.992  0.0419  0.0947 -0.0719
 7856W        W24704  15.992  17.354   2.353 -0.1653 -0.0543  0.1210
 7857W        W24705  13.650  10.522  15.604 -0.1422  0.0219 -0.0551
 7858W        W24706  16.383  15.110  15.549  0.2779 -0.4126  0.0290
 7859W        W24707   0.080  15.179  14.408 -0.0224  0.0716  0.3721
 7860W        W24708  16.857  16.399   4.952  0.1986 -0.1269 -0.0750
 7861W        W24709   0.381   2.187  11.942  0.0390 -0.1025 -0.2369
 7862W        W24710  14.531  11.687   3.181 -0.2504 -0.4978  0.1141
 7863W        W24711   3.769  15.458   5.783  0.0594  0.3029 -0.0642
 7864W        W24712   8.884   4.894   4.875  0.1573  0.0535 -0.2804
 7865W        W24713   0.365   9.165   1.555 -0.0577 -0.1243  0.1977
 7866W        W24714  16.986   8.943  15.559 -0.0504  0.3408  0.2541
 7867W        W24715   5.186  10.163   3.410 -0.0278  0.2082  0.1153
 7868W        W24716   9.912   1.423  15.948  0.2492 -0.1036  0.0240
 7869W        W24717  12.938   4.046   2.192 -0.0196  0.2639 -0.0680
 7870W        W24718   7.826  13.287  15.563  0.0414  0.1797  0.2013
 7871W        W24719   4.543  17.486   4.594 -0.0689  0.0112 -0.0934
 7872W        W24720   1.355   4.607  16.176 -0.5442 -0.0605  0.0129
 7873W        W24721   5.258  14.263  11.433  0.0557 -0.0250 -0.1537
 7874W        W24722   0.097  16.840  14.953  0.2601 -0.1509 -0.3166
 7875W        W24723   3.788  10.554  12.273  0.3090 -0.2304  0.0245
 7876W        W24724  16.034  12.748   4.939 -0.0958  0.1449  0.1291
 7877W        W24725   9.688  17.169   4.371 -0.0387  0.1018 -0.0343
 7878W        W24726   8.935  15.653   5.555  0.1056  0.0913  0.1361
 7879W        W24727  12.407   2.992   3.565  0.1953  0.2830 -0.0312
 7880W        W24728  15.276  10.667  12.672 -0.1894  0.2512  0.3197
 7881W        W24729   4.861  10.747   4.994 -0.1074  0.3766  0.2245
 7882W        W24730  12.790  13.105  11.762  0.0296  0.2041 -0.0011
 7883W        W24731  17.486  16.509  12.236  0.0439 -0.3351 -0.0006
 7884W        W24732  11.460   1.370   4.721  0.1028  0.1479  0.1470
 7885W        W24733   9.242   9.071   1.279  0.2966 -0.1260 -0.0841
 7886W        W24734   8.331   6.152  12.889  0.3594  0.1323 -0.0642
 7887W        W24735  16.922   8.273   0.761 -0.2385  0.0960  0.0224
 7888W        W24736  15.446   6.418   2.682 -0.2196 -0.0677 -0.0066
 7889W        W24737   6.025   7.774   1.370 -0.0272  0.1665 -0.1713
 7890W        W24738   7.912  10.601   5.683 -0.0419 -0.1446 -0.0019
 7891W        W24739   2.783   8.629  12.028  0.0712 -0.0593  0.1976
 7892W        W24740  12.364  14.297  12.457 -0.2360 -0.1562  0.0205
 7893W        W24741   4.828   9.740   4.847 -0.0216  0.1716  0.0353
 7894W        W24742   2.639   9.112  13.323  0.1920 -0.0396 -0.1222
 7895W        W24743  13.162   7.155   1.010 -0.1016  0.0318 -0.0378
 7896W        W24744   7.148   8.940   4.877 -0.0163 -0.0299  0.0661
 7897W        W24745  14.787   5.620   5.937 -0.0333 -0.0578 -0.3899
 7898W        W24746  14.968  16.659   2.017 -0.0157  0.2003  0.1712
 7899W        W24747   1.847   8.456   2.155  0.0605 -0.0440  0.1058
 7900W        W24748  11.918  17.989   1.454 -0.2444  0.3203  0.2333
 7901W        W24749   4.287  13.303  13.078  0.1243  0.0994  0.2486
 7902W        W24750   1.966   9.968  13.593 -0.0261  0.0570  0.2074
 7903W        W24751   1.689  11.728   2.366 -0.1622 -0.1020  0.3735
 7904W        W24752  13.651   2.040   3.830 -0.3884 -0.2062 -0.0130
 7905W        W24753   1.829  16.576   1.143 -0.0458 -0.0044 -0.0476
 7906W        W24754   9.251  18.087  11.277 -0.2459  0.1206  0.0234
 7907W        W24755  15.550   0.176   3.569  0.4001 -0.1334  0.3323
 7908W        W24756  15.296   7.884  15.282  0.1574  0.0256 -0.4232
 7909W        W24757   7.332   9.787  15.340 -0.1934 -0.1606  0.0180
 7910W        W24758   2.456   9.375  10.990  0.0233 -0.1341  0.2275
 7911W        W24759   8.092   4.872   1.258 -0.3138  0.1372  0.0381
 7912W        W24760   3.456  14.642   4.911  0.1372 -0.1737  0.3924
 7913W        W24761  16.352   3.465  15.982  0.3742 -0.0862 -0.1979
 7914W        W24762  15.471   8.839   0.039 -0.0545 -0.0814  0.0002
 7915W        W24763  11.144   7.462  12.912 -0.1375  0.1126  0.2534
 7916W        W24764   8.362  11.941   0.096  0.1164  0.0237  0.1777
 7917W        W24765  16.267  17.497  14.935  0.0756 -0.0419  0.1101
 7918W        W24766  15.925   2.438  14.881 -0.3031  0.2083 -0.0130
 7919W        W24767   6.174   1.639  15.296 -0.0490  0.0683 -0.0998
 7920W        W24768   8.242  16.073   0.036  0.0449 -0.0880 -0.0357
 7921W        W24769  14.464   4.386  12.347 -0.0387  0.2454  0.1170
 7922W        W24770   3.791  16.487  13.781  0.1228  0.2642 -0.0660
 7923W        W24771   6.910  17.422   0.744 -0.1584 -0.0129  0.1237
 7924W        W24772   6.278  17.423   3.182 -0.0615 -0.1772  0.1305
 7925W        W24773  15.394  14.268   2.357 -0.2497 -0.1264 -0.2341
 7926W        W24774  16.660   8.253  13.315  0.0549  0.0553  0.2154
 7927W        W24775  12.715  16.695   1.110 -0.0759  0.3979  0.0953
 7928W        W24776   4.351  17.053   2.098 -0.1924  0.1194 -0.0634
 7929W        W24777   2.171   5.460  11.488 -0.0792  0.0338  0.0889
 7930W        W24778   0.510  17.723  11.418 -0.0766  0.0172  0.0818
 7931W        W24779   3.640   8.427  10.769 -0.2360 -0.0587 -0.0637
 7932W        W24780  13.147   9.367   1.790  0.0278 -0.1947  0.0645
 7933W        W24781   6.791   5.450  11.097 -0.1307  0.0997 -0.0939
 7934W        W24782   8.818   4.292  13.788 -0.2718  0.1216  0.0123
 7935W        W24783  13.931   6.775   3.506  0.0111  0.1018  0.0796
 7936W        W24784  12.676  16.054  11.171 -0.0749 -0.1464 -0.0508
 7937W        W24785   1.185   1.235  10.465  0.1414  0.1452 -0.1277
 7938W        W24786  15.371   1.046  10.722  0.0839 -0.0211 -0.3215
 7939W        W24787   6.525   9.361  12.282 -0.5434 -0.2257 -0.0012
 7940W        W24788   3.385  11.655   0.209 -0.0239 -0.0457  0.0878
 7941W        W24789   7.714   1.030  11.809  0.2168 -0.0390 -0.0473
 7942W        W24790   8.528  10.569   0.327 -0.2403  0.0006 -0.0925
 7943W        W24791   6.841   1.534  16.126 -0.3775  0.1985  0.1148
 7944W        W24792   2.248  14.610  11.592 -0.0563  0.0624  0.1217
 7945W        W24793  11.112   2.079  13.654 -0.0403  0.2502  0.3094
 7946W        W24794  12.402  10.814  12.108 -0.2592  0.0454  0.0724
 7947W        W24795  15.891  12.321  15.918  0.1607  0.0411 -0.1908
 7948W        W24796   0.042   0.460  11.717 -0.1976  0.0305  0.2737
 7949W        W24797   8.829   3.041   3.846  0.0686 -0.0254  0.1121
 7950W        W24798  17.309   4.310   1.162 -0.1003 -0.0912 -0.1158
 7951W        W24799   8.451  13.797   5.000  0.3020  0.0048  0.0263
 7952W        W24800   7.144  16.848   3.276 -0.2298 -0.2472 -0.5232
 7953W        W24801   0.499  13.179   2.610 -0.0267  0.0775  0.2236
 7954W        W24802   3.602   8.543  11.485 -0.0574  0.0887  0.1016
 7955W        W24803   7.795  10.802   3.490 -0.0692  0.3311  0.0851
 7956W        W24804  16.251  14.573   0.334 -0.0218  0.0403  0.0459
 7957W        W24805   1.150   3.506  11.903  0.1040  0.0942  0.4717
 7958W        W24806   4.361  10.176  12.840 -0.1658 -0.1325 -0.1204
 7959W        W24807  13.534   5.055   2.879  0.3143  0.0068  0.4074
 7960W        W24808   4.216  11.739  13.984 -0.0127  0.0952 -0.5744
 7961W        W24809  12.889   0.728   3.404 -0.0476 -0.2430  0.0169
 7962W        W24810   6.118  12.095  11.915 -0.3539  0.3261  0.1484
 7963W        W24811   3.177   5.078   4.330  0.1647 -0.0106  0.0688
 7964W        W24812   2.167   4.774  12.012 -0.0940 -0.3470 -0.0362
 7965W        W24813   9.154   8.508  11.536 -0.1977 -0.1137  0.4720
 7966W        W24814   5.111  13.462  11.995  0.2196 -0.3762 -0.3013
 7967W        W24815  15.562   0.770   3.559 -0.2541 -0.0614 -0.3885
 7968W        W24816   5.938   2.222   2.944 -0.0053 -0.0550  0.1181
 7969W        W24817   4.166   3.747   1.284 -0.1785 -0.3728  0.1081
 7970W        W24818   3.283   7.772  12.146  0.0860 -0.2581  0.0865
 7971W        W24819   2.050   5.087   3.687 -0.1607 -0.1705 -0.1578
 7972W        W24820   1.374  13.835   2.606 -0.0730 -0.1856  0.0498
 7973W        W24821  12.506  10.602   4.279  0.2132 -0.0400  0.0981
 7974W        W24822  12.589   8.405   2.189  0.0612  0.1910  0.1805
 7975W        W24823  15.646   1.846  10.875  0.2534 -0.0208  0.0052
 7976W        W24824  11.151   3.153  11.857  0.0850 -0.0568 -0.0174
 7977W        W24825   6.066  16.579   5.118  0.0254 -0.2375 -0.1794
 7978W        W24826  17.777  10.218   2.352  0.0538 -0.0763  0.1654
 7979W        W24827  16.082   6.091   5.273 -0.0958 -0.2608 -0.0369
 7980W        W24828  15.675   5.323   3.971 -0.2343  0.1356  0.0513
 7981W        W24829  12.395  10.330  13.186  0.2204 -0.0676 -0.0886
 7982W        W24830  16.341  17.130  14.606 -0.0361 -0.2036  0.0776
 7983W        W24831   3.531  15.645  16.267 -0.3498  0.0379  0.0073
 7984W        W24832  13.138   2.592  13.285  0.0607  0.0118 -0.0885
 7985W        W24833   1.211   9.917  16.040 -0.0472 -0.2314  0.2283
 7986W        W24834   2.803  17.798   4.459  0.0970 -0.0915 -0.1841
 7987W        W24835   7.878  16.210  15.986 -0.1373  0.0682  0.1135
 7988W        W24836   2.848   5.804  13.314 -0.2579 -0.1555 -0.0288
 7989W        W24837  11.979  17.068  13.812 -0.1783  0.4708 -0.3928
 7990W        W24838  16.774  17.728  13.409  0.0717  0.2194  0.2279
 7991W        W24839  14.655  11.926   2.331  0.0687  0.1446 -0.1029
 7992W        W24840   6.728  11.539   0.899 -0.2486 -0.3456  0.0653
 7993W        W24841   5.145  17.184   4.930 -0.1352  0.0155  0.1154
 7994W        W24842   7.230   1.941  14.217  0.1292  0.2165 -0.1927
 7995W        W24843   7.014   3.283   3.450  0.1710  0.0985 -0.0126
 7996W        W24844  13.363  16.242  11.021  0.1739 -0.0929  0.0817
 7997W        W24845   1.085   8.434   4.690 -0.0522 -0.2044  0.1989
 7998W        W24846  16.450  14.225  13.916 -0.0278  0.0736  0.1648
 7999W        W24847  16.257   6.978   0.130 -0.2926 -0.1470 -0.0638
 8000W        W24848  11.783  11.904  11.680  0.0724 -0.1232  0.4428
 8001W        W24849   2.701   4.390  13.801  0.1227 -0.1641  0.0075
 8002W        W24850  16.068  14.301  12.313  0.0292  0.1722  0.3479
 8003W        W24851  10.323  18.036  12.607 -0.1917  0.0178  0.1551
 8004W        W24852  11.495   2.511  14.476  0.0785  0.1557  0.3085
 8005W        W24853   0.862   3.755  11.001 -0.1624  0.1356  0.2351
 8006W        W24854   4.762  11.697  13.952 -0.2819 -0.0591  0.0226
 8007W        W24855  15.000   5.677   2.885 -0.0610 -0.0449 -0.2876
 8008W        W24856  13.683   1.315   0.784 -0.3861  0.2107 -0.0089
 8009W        W24857   7.669   2.004  13.388 -0.0942  0.3061  0.0242
 8010W        W24858   3.008  13.175  13.839  0.1246  0.1249 -0.0572
 8011W        W24859  13.259  10.918  15.314 -0.0233 -0.0944  0.0763
 8012W        W24860  12.710   0.804   1.658  0.2837  0.1485 -0.2630
 8013W        W24861   3.238   2.183   4.506 -0.1433  0.0621  0.0509
 8014W        W24862  13.399  11.655  14.292  0.0882  0.0268 -0.0449
 8015W        W24863   0.604   9.404  15.156  0.1358  0.0136  0.1691
 8016W        W24864  10.394  10.622  15.523  0.3949 -0.2009 -0.0001
 8017W        W24865  15.679   4.110   2.018  0.1569  0.1666  0.2466
 8018W        W24866  16.823   1.566  13.369  0.1180 -0.4231  0.0681
 8019W        W24867   4.145  12.332  11.304  0.3850 -0.1790 -0.0972
 8020W        W24868   0.847   6.031  11.630  0.1592 -0.2354  0.2432
 8021W        W24869   6.990   3.114   4.101  0.1898 -0.1278  0.0236
 8022W        W24870  16.146   9.082  15.493  0.0261  0.2378 -0.0173
 8023W        W24871   8.225   2.961   2.012  0.1196 -0.0757 -0.0651
 8024W        W24872  11.615   7.906  15.110  0.2062  0.1734  0.2697
 8025W        W24873   4.442  17.274   1.206  0.1880 -0.0379  0.0470
 8026W        W24874  13.904   5.284   5.587 -0.0675  0.0948  0.1788
 8027W        W24875   6.742   9.727   4.866  0.0615  0.0266  0.2985
 8028W        W24876   5.579  15.048   1.328  0.1340 -0.2561 -0.0289
 8029W        W24877  15.155   4.013   1.705 -0.2276  0.1002 -0.4067
 8030W        W24878  15.173   8.997  14.092  0.0562 -0.1223  0.0846
 8031W        W24879   4.786  12.722  12.583 -0.0369  0.1172  0.1671
 8032W        W24880  11.632  11.651   3.559 -0.3516 -0.0350 -0.0352
 8033W        W24881  12.770   3.520  10.914  0.1302  0.0006  0.2345
 8034W        W24882   1.858  15.959  12.837 -0.0499 -0.1477 -0.0154
 8035W        W24883  17.908   7.288   6.152 -0.0842  0.0817 -0.1348
 8036W        W24884   5.869   2.387   3.469 -0.0503 -0.1354  0.0869
 8037W        W24885   5.472  12.230   3.964  0.0911  0.0410  0.1260
 8038W        W24886  10.836   1.344   1.152  0.0660  0.0014 -0.2714
 8039W        W24887   9.450  12.408   3.477  0.1333  0.0229 -0.2444
 8040W        W24888   0.875  10.049  11.976  0.2170 -0.1575  0.0502
 8041W        W24889   2.025   3.666  15.716 -0.1790 -0.1398 -0.0630
 8042W        W24890  10.118   3.451  14.721 -0.4623 -0.0233  0.0796
 8043W        W24891   2.102  18.088  12.849  0.0878 -0.0273  0.0233
 8044W        W24892   0.011   6.882  15.386 -0.1827 -0.0783  0.2747
 8045W        W24893   1.697  12.788   4.841  0.0229  0.2050 -0.0220
 8046W        W24894  16.525  12.895   1.485 -0.0418 -0.2821 -0.0456
 8047W        W24895  11.752   1.050   1.769 -0.1325  0.0917  0.2104
 8048W        W24896  10.411  10.679  11.800  0.2203  0.2478 -0.0928
 8049W        W24897  15.229  15.102  13.036  0.1492 -0.1472 -0.0280
 8050W        W24898  16.851   1.955  15.586 -0.1530 -0.0116 -0.0176
 8051W        W24899   1.991  16.140  11.806  0.2610 -0.3139 -0.1396
 8052W        W24900   7.722  10.813   9.874 -0.2697 -0.1428 -0.1315
 8053W        W24901   5.090  13.959  12.159 -0.1371 -0.1598  0.0786
 8054W        W24902  17.124  11.825  12.903  0.0557  0.0269  0.2833
 8055W        W24903   4.603   4.259  10.973  0.0428 -0.1154 -0.0717
 8056W        W24904  13.219  10.296   0.158  0.0927 -0.0564  0.0001
 8057W        W24905  14.964  11.725   1.943  0.1494  0.1412  0.0333
 8058W        W24906  10.709   3.639  15.284  0.1705  0.1098 -0.1088
 8059W        W24907   4.893  17.245  12.159 -0.0013 -0.1708  0.1903
 8060W        W24908  15.010   5.297   1.633  0.2091 -0.3600  0.0481
 8061W        W24909   7.272  17.016  13.575 -0.5461 -0.0627  0.0012
 8062W        W24910   5.560   0.758  13.076 -0.0491 -0.3005 -0.1194
 8063W        W24911   5.620  15.789  16.287  0.1448  0.1367  0.1552
 8064W        W24912  14.968   2.929  15.052  0.0331 -0.1420 -0.2787
 8065W        W24913  15.452   5.042  15.981  0.3105  0.0187 -0.2702
 8066W        W24914  11.747   6.324  14.147 -0.0191 -0.2388 -0.3684
 8067W        W24915  15.784   8.513  12.956  0.1673 -0.3771  0.2298
 8068W        W24916  12.546  14.667  13.006  0.0759  0.1103  0.0649
 8069W        W24917  12.289   8.707   3.989  0.0736 -0.1736  0.6559
 8070W        W24918   4.678  17.016   4.759  0.3028  0.0740  0.0384
 8071W        W24919   4.384  13.036   1.521 -0.0958  0.2111  0.2172
 8072W        W24920  12.452   2.327  14.241  0.1152  0.3961 -0.0237
 8073W        W24921  12.229  16.410   1.199  0.0568 -0.0603  0.3436
 8074W        W24922  16.798  14.025   2.694 -0.1494 -0.0569 -0.0643
 8075W        W24923   2.865   9.363  14.301  0.0752  0.5026 -0.2477
 8076W        W24924  13.465   5.655  15.976 -0.5407 -0.2001 -0.2001
 8077W        W24925  15.396  17.013  10.743 -0.2484  0.1349  0.1073
 8078W        W24926   9.019   7.683   1.438  0.2621  0.0999  0.2907
 8079W        W24927   5.142   6.172   5.484 -0.1590  0.0052 -0.1514
 8080W        W24928  11.789   7.894  16.326 -0.2422  0.2289  0.0431
 8081W        W24929   3.255   3.242  12.261 -0.0975 -0.0293 -0.0254
 8082W        W24930   1.801  10.224   5.454 -0.0035  0.2995  0.0020
 8083W        W24931  10.126   1.308   5.231  0.0661 -0.0380 -0.0411
 8084W        W24932   7.202  12.251   3.942  0.0065 -0.1276 -0.0828
 8085W        W24933   8.956   3.964   3.546  0.1481 -0.0845 -0.2559
 8086W        W24934   8.206   0.273   3.605  0.2246 -0.0938  0.4090
 8087W        W24935   9.977  17.280   1.314  0.2026 -0.2186 -0.1532
 8088W        W24936  14.182   5.113   1.372  0.2015 -0.0529 -0.1229
 8089W        W24937  11.866  12.093   3.425  0.1724  0.1414  0.0227
 8090W        W24938  15.608   0.701  16.055 -0.1348  0.0976  0.1428
 8091W        W24939   3.033   2.352  14.194  0.1632 -0.1272 -0.0972
 8092W        W24940   1.518   1.162  16.200 -0.0312  0.1940 -0.2124
 8093W        W24941   6.541   5.193  14.177 -0.3332  0.2559 -0.0211
 8094W        W24942   9.457  14.803  16.270 -0.2373 -0.5427  0.3073
 8095W        W24943  17.230  11.538   0.640 -0.0336 -0.0087  0.1693
 8096W        W24944  17.801   9.238  14.170 -0.1573  0.1422  0.2501
 8097W        W24945   9.269   0.838  11.868  0.1260 -0.1028  0.1821
 8098W        W24946   9.775  13.822   4.776 -0.2563  0.3155  0.1198
 8099W        W24947   5.164  17.059   1.865 -0.0385 -0.0576 -0.0516
 8100W        W24948   6.389  10.123  12.951 -0.2390  0.1076 -0.2228
 8101W        W24949   4.858   6.997   3.281 -0.1609  0.1592  0.0463
 8102W        W24950   0.651  16.717  12.378  0.2872  0.1300  0.1365
 8103W        W24951  14.392  11.779  12.506  0.2727  0.0029 -0.0320
 8104W        W24952   6.958   2.357   2.008  0.2034 -0.1872  0.1255
 8105W        W24953  12.265  10.185  12.714 -0.0903  0.0096  0.0394
 8106W        W24954   4.542   5.481   5.829  0.0511 -0.0662 -0.0508
 8107W        W24955   5.134  13.183   2.224  0.2357  0.0462  0.2095
 8108W        W24956  11.239   5.800   3.032 -0.1038 -0.4797  0.2481
 8109W        W24957   7.667  14.619   1.986  0.0044  0.0863  0.0790
 8110W        W24958   9.482  15.157   4.317 -0.3060 -0.1042 -0.3172
 8111W        W24959  11.375   8.881  13.006  0.1104  0.1997 -0.2413
 8112W        W24960   8.315   5.666   3.296 -0.1519 -0.1325 -0.0992
 8113W        W24961  16.788   3.687  12.709  0.0275  0.2489 -0.1772
 8114W        W24962   7.611  14.538   0.792 -0.0392 -0.1633  0.0321
 8115W        W24963  10.900   1.385   3.552 -0.0137 -0.1861 -0.5334
 8116W        W24964  16.392   5.249  15.361 -0.1896 -0.1949 -0.2679
 8117W        W24965   1.859  15.223  14.673  0.1922  0.3028  0.1600
 8118W        W24966   6.255  17.521  16.305  0.0861 -0.1096  0.1280
 8119W        W24967  18.096   6.495  14.330  0.0134 -0.2344 -0.1196
 8120W        W24968  10.688  11.276   4.868  0.0246 -0.1179 -0.0883
 8121W        W24969   1.417   7.523  10.661  0.1060  0.0817 -0.4379
 8122W        W24970  13.176   5.127  13.520  0.2191 -0.0218 -0.0069
 8123W        W24971   7.181   4.397   3.148  0.2029 -0.0286  0.0449
 8124W        W24972  11.506   9.206   3.377 -0.1904 -0.0015  0.0171
 8125W        W24973   2.245  13.485   4.413 -0.0687  0.1800 -0.1518
 8126W        W24974   5.990  10.327   2.260 -0.0261  0.0096  0.0946
 8127W        W24975  16.434   8.273   0.636  0.0323 -0.0406 -0.3306
 8128W        W24976  11.407   7.706   4.838  0.1765  0.1321 -0.2010
 8129W        W24977   9.681   2.012  13.792 -0.2588 -0.0340 -0.2523
 8130W        W24978   1.930   4.377  13.487  0.0023  0.1261  0.2825
 8131W        W24979   1.371   9.967  13.619 -0.0083 -0.0983  0.0243
 8132W        W24980  11.665  12.718  13.615  0.2220 -0.0029 -0.0147
 8133W        W24981  17.952   8.164  11.286  0.0340 -0.1442  0.3283
 8134W        W24982   4.564   4.309  11.817 -0.0006 -0.2971  0.0170
 8135W        W24983   4.267  12.260  15.693 -0.1188 -0.3688  0.3118
 8136W        W24984  16.332  17.005   2.387 -0.1297  0.1286 -0.1181
 8137W        W24985  12.502   7.456  11.513  0.1691 -0.0561 -0.4453
 8138W        W24986  16.045   9.011   1.445 -0.0875  0.1563 -0.0408
 8139W        W24987  13.337  14.292   5.761 -0.1816  0.2681  0.1712
 8140W        W24988  15.624  12.599  14.671 -0.0615 -0.1356 -0.1497
 8141W        W24989  16.266   0.416  13.304  0.1195 -0.1434  0.1525
 8142W        W24990  16.249  16.444   4.933  0.0288  0.1919  0.2101
 8143W        W24991  12.810   6.956  15.421  0.0766 -0.1279  0.0168
 8144W        W24992  10.378   7.025  14.293 -0.0845  0.3415 -0.3807
 8145W        W24993  16.597   1.595  10.908 -0.3829 -0.0808 -0.1948
 8146W        W24994   8.409  16.057  12.605  0.0177  0.1308  0.1343
 8147W        W24995   0.195   7.139   3.399 -0.0484  0.2572  0.3225
 8148W        W24996   8.179   8.921   2.978  0.1673 -0.3177  0.0317
 8149W        W24997   7.113   1.382  15.056 -0.0486  0.2611 -0.3458
 8150W        W24998   1.089  12.257   3.484 -0.0537 -0.1992  0.1833
 8151W        W24999   1.101   4.794   4.242 -0.1031  0.2504 -0.0474
 8152W        W25000  15.172   7.638  15.676 -0.0306  0.3028  0.2269
 8153W        W25001  14.557   6.804   2.328  0.1181 -0.0760  0.0791
 8154W        W25002   8.947   7.325  12.829 -0.3077  0.3680 -0.1731
 8155W        W25003   9.472   9.694  15.003  0.3071  0.2633 -0.0880
 8156W        W25004  11.829  15.539  15.964  0.1788  0.1946 -0.0495
 8157W        W25005   6.968  16.393  16.145  0.2212 -0.0604  0.1669
 8158W        W25006   0.211  17.681  14.385 -0.0691  0.1120  0.2862
 8159W        W25007   7.880  12.632   2.151 -0.0235 -0.1846  0.1475
 8160W        W25008   0.526  11.230  16.273 -0.3239 -0.2121  0.0850
 8161W        W25009  14.274  14.302  16.159 -0.1857 -0.3948  0.1480
 8162W        W25010  13.518   4.238   4.174 -0.0952 -0.4517  0.2189
 8163W        W25011   1.737  10.491  12.566 -0.1573 -0.0423  0.0167
 8164W        W25012  17.106   7.814   0.238 -0.0176 -0.0488  0.2590
 8165W        W25013  16.333   3.870  15.579 -0.1239  0.0007  0.0828
 8166W        W25014   3.509   5.258   3.770  0.0991  0.1321  0.1343
 8167W        W25015  11.904   1.024  13.546 -0.3356 -0.2844  0.4111
 8168W        W25016   5.957  18.028  15.151  0.1410 -0.1526  0.0233
 8169W        W25017  12.604   1.553  10.958 -0.0748  0.2492  0.0807
 8170W        W25018  13.057   2.148  15.352  0.1477 -0.1678 -0.2022
 8171W        W25019  14.529  12.154   2.854 -0.5501  0.0140  0.0583
 8172W        W25020   3.701  15.175   6.204 -0.3744  0.0286  0.1219
 8173W        W25021  13.213   1.382  13.334  0.0872  0.2567  0.0584
 8174W        W25022   6.805  15.963   4.898  0.4176 -0.0138  0.0524
 8175W        W25023   3.683   2.461  14.765 -0.0970 -0.0970  0.1174
 8176W        W25024   8.564   9.660  10.000  0.0483  0.3443  0.2659
 8177W        W25025  14.768   2.398  13.283 -0.2597 -0.0054 -0.0674
 8178W        W25026   4.339   1.216  11.448  0.1316  0.5342 -0.0467
 8179W        W25027  10.640   4.797   1.213 -0.0532 -0.4256  0.3117
 8180W        W25028   7.476   6.463  15.918  0.0450 -0.0774 -0.1677
 8181W        W25029   8.409   7.567  14.200 -0.0247  0.1669 -0.0748
 8182W        W25030  15.370  13.151  13.999  0.4356 -0.0803 -0.1222
 8183W        W25031   6.248   7.237   3.202 -0.0862 -0.0372  0.0959
 8184W        W25032   9.003  15.354  11.482 -0.1662 -0.1173  0.0167
 8185W        W25033   4.644   9.693  12.986 -0.0457 -0.5129  0.1582
 8186W        W25034  16.697  11.963   1.093 -0.0627 -0.1204  0.0570
 8187W        W25035  13.526  14.557   3.923 -0.3307 -0.2529 -0.0202
 8188W        W25036   1.487   3.251   3.722  0.1550  0.5539  0.0250
 8189W        W25037   4.662  16.481   4.418 -0.0334 -0.0210 -0.5234
 8190W        W25038   3.207   3.373  11.777  0.1861 -0.0468 -0.1993
 8191W        W25039  14.554   1.548   5.008  0.1441  0.0154  0.1753
 8192W        W25040   5.077  16.661   4.852  0.1432  0.1826  0.1580
 8193W        W25041  10.402  15.953  14.386 -0.0316 -0.2099 -0.0176
 8194W        W25042  15.737  16.963   0.253  0.1218 -0.1369 -0.0975
 8195W        W25043  15.786   6.515  15.188 -0.1423 -0.0205  0.3419
 8196W        W25044  14.530  17.353  14.368  0.2676 -0.1095  0.1511
 8197W        W25045   8.336   6.981   2.748 -0.0906  0.5201  0.2334
 8198W        W25046   8.627   9.406   2.272 -0.1491 -0.4673  0.1430
 8199W        W25047   5.020   6.302  12.718 -0.4355  0.0143  0.1024
 8200W        W25048  12.536  13.425  10.863  0.0566 -0.2266  0.1975
 8201W        W25049  15.615   7.240  13.639  0.2657  0.3355 -0.2128
 8202W        W25050  17.083   0.088  14.897  0.2857 -0.2186 -0.1229
 8203W        W25051  12.678  16.001   6.198  0.2228  0.0297  0.1368
 8204W        W25052   3.595   0.378   4.200 -0.0953  0.0266  0.0296
 8205W        W25053  13.734  16.320   1.856 -0.0309 -0.0059 -0.0365
 8206W        W25054  14.803  12.484  15.184 -0.0896 -0.2138 -0.0111
 8207W        W25055   0.830  10.488   1.339 -0.0155 -0.1211  0.0590
 8208W        W25056  15.758  15.691   3.256 -0.0834 -0.3028  0.0056
 8209W        W25057  10.025   2.671   1.394 -0.1852  0.0486  0.2445
 8210W        W25058   8.579  16.887   4.903  0.0789 -0.0004  0.1669
 8211W        W25059  10.228   4.365   3.779 -0.0203 -0.2021  0.1473
 8212W        W25060   3.822  11.257   1.701 -0.4474  0.0315  0.0920
 8213W        W25061   4.727  10.972   0.881  0.1379 -0.1317  0.0922
 8214W        W25062   0.247   4.690   5.730  0.1436 -0.0199  0.1764
 8215W        W25063   1.108  13.610   3.006  0.0534 -0.1122  0.1004
 8216W        W25064  17.067   0.452  12.096 -0.0831  0.1402 -0.0050
 8217W        W25065   2.308   4.710  13.521 -0.0652 -0.2184 -0.5300
 8218W        W25066   0.788   0.804  12.798 -0.2321  0.0199  0.1642
 8219W        W25067   0.547   4.927   3.592  0.2248  0.2823  0.0669
 8220W        W25068  12.860  13.831  14.553 -0.0425  0.1755  0.3153
 8221W        W25069   2.939   9.840   1.943 -0.1178 -0.0274  0.2163
 8222W        W25070  12.270   9.113  13.165 -0.0209  0.1883 -0.0266
 8223W        W25071  14.183  17.283  11.709  0.1300 -0.0642 -0.0724
 8224W        W25072   3.573   3.854  12.898 -0.4686 -0.1054  0.1433
 8225W        W25073   6.772   3.979  10.313  0.0418 -0.0183 -0.2341
 8226W        W25074   1.703   9.364  12.851 -0.3286  0.5536 -0.3722
 8227W        W25075   1.300  13.839  14.300  0.2384 -0.0863  0.0104
 8228W        W25076  13.872  17.741  12.447  0.1565  0.1332  0.0169
 8229W        W25077  10.345   7.303   1.410 -0.0040  0.2118  0.1329
 8230W        W25078  17.831  14.056  11.770  0.0996 -0.0329  0.0240
 8231W        W25079   0.936  17.494   0.063  0.1977 -0.3147 -0.2860
 8232W        W25080   2.873  17.815  12.965 -0.0610  0.1786 -0.0098
 8233W        W25081  14.745  17.326  11.446  0.0835 -0.1256 -0.0298
 8234W        W25082  12.680   1.871   1.327  0.0676  0.1054 -0.0757
 8235W        W25083   5.633  11.334   3.167 -0.1490 -0.1192 -0.0324
 8236W        W25084   0.384  11.062   3.296 -0.1815  0.0644 -0.0073
 8237W        W25085   7.336  10.599  15.164  0.3024 -0.3024  0.2034
 8238W        W25086   5.364   7.870  15.114  0.2087 -0.0801 -0.2169
 8239W        W25087   8.994   6.927  15.505  0.2957 -0.0194 -0.0582
 8240W        W25088   2.402   9.123  14.562 -0.3960  0.2075 -0.1011
 8241W        W25089  18.087  17.283  12.929 -0.1047 -0.1114 -0.2570
 8242W        W25090  15.450  13.912  15.257  0.2054  0.0913 -0.3055
 8243W        W25091  14.924  12.957  13.069  0.0412  0.1366 -0.1211
 8244W        W25092   1.491  11.684  15.200 -0.2412 -0.0766  0.3160
 8245W        W25093  17.085   4.770  16.241 -0.1035  0.0408  0.2683
 8246W        W25094  15.280   3.871   2.168  0.2612  0.1798 -0.0778
 8247W        W25095   2.865   1.676  15.412 -0.1610  0.0214  0.2322
 8248W        W25096   1.559   3.677   5.932  0.0705  0.2556  0.0353
 8249W        W25097   5.342   7.071  14.059  0.0017  0.0191 -0.0483
 8250W        W25098  13.680  10.775  11.724 -0.0777  0.0200 -0.0643
 8251W        W25099  16.802  11.855   2.303  0.1476 -0.0898  0.0749
 8252W        W25100  15.923  12.115   2.466  0.0504  0.0108  0.1387
 8253W        W25101  11.124   9.668   3.948  0.0748 -0.2020 -0.0980
 8254W        W25102   2.747   2.145  13.662 -0.3178  0.0426 -0.1989
 8255W        W25103   0.258   0.197  11.155  0.2861 -0.2261  0.1257
 8256W        W25104  17.922  14.604   2.305 -0.0212 -0.1250  0.1926
 8257W        W25105  15.865  13.524   3.734  0.0020  0.3087 -0.0127
 8258W        W25106   2.029  15.947   4.616  0.0004  0.0199  0.0047
 8259W        W25107   3.011   7.231   3.031  0.0318  0.1038  0.0035
 8260W        W25108   6.535  10.789  13.564  0.0135 -0.2700 -0.0822
 8261W        W25109   7.034   9.986   2.099 -0.4119  0.0896  0.0492
 8262W        W25110   3.828   6.575  12.072  0.3060  0.3402  0.0377
 8263W        W25111   7.832   1.427   1.019  0.2116 -0.1397 -0.4392
 8264W        W25112   4.786   1.308  15.210 -0.0110  0.1097  0.1303
 8265W        W25113   0.049   3.056  11.857  0.1597  0.6259 -0.1238
 8266W        W25114  10.232  12.846  11.560 -0.2983 -0.0154  0.5194
 8267W        W25115   3.573  12.794  15.550  0.0005 -0.0721  0.1607
 8268W        W25116   2.697  13.721   5.153 -0.0499 -0.0173 -0.2492
 8269W        W25117  13.880  10.550  13.782 -0.0785  0.1654 -0.1236
 8270W        W25118   2.718   9.018  12.709  0.0555 -0.2596  0.0527
 8271W        W25119  13.319   5.427  12.991 -0.3571  0.2099  0.0049
 8272W        W25120  11.049   4.472   3.297  0.0802  0.4379 -0.0953
 8273W        W25121   5.675   9.541  10.698  0.0073  0.0458 -0.0067
 8274W        W25122  17.869   2.973  14.437 -0.2602 -0.1283 -0.2034
 8275W        W25123  10.486   8.676   3.901 -0.0960 -0.0550 -0.0495
 8276W        W25124   7.335  17.264  12.573 -0.1131  0.1527  0.1032
 8277W        W25125   8.689  10.842  11.474  0.0975  0.0944  0.0683
 8278W        W25126  13.538  11.830  13.231 -0.3346 -0.0217  0.1440
 8279W        W25127  10.325   1.454  15.703 -0.0351  0.0702 -0.1365
 8280W        W25128  11.225   8.071   4.529 -0.2671  0.2699 -0.1710
 8281W        W25129  11.868  13.464   0.178  0.0367  0.0909 -0.1392
 8282W        W25130  15.316   4.119  16.206  0.0907  0.1179  0.1362
 8283W        W25131  15.399   1.301   5.030 -0.0528  0.4022  0.0369
 8284W        W25132  11.481   6.358   4.554 -0.0005 -0.0754 -0.3546
 8285W        W25133   8.371   3.200   3.032 -0.1981  0.1931 -0.3426
 8286W        W25134  16.496   2.140  14.109 -0.2564  0.3625 -0.3230
 8287W        W25135  17.218   0.044   5.165 -0.0172 -0.3517  0.0604
 8288W        W25136   1.274  13.229  12.303  0.0811 -0.1712 -0.1066
 8289W        W25137   2.171  14.582  15.361 -0.1786  0.0447  0.1550
 8290W        W25138  14.470  16.509  14.971  0.0663 -0.0609 -0.4273
 8291W        W25139  12.513  11.199  12.487 -0.0599  0.0203  0.2728
 8292W        W25140  15.486   7.152   3.670 -0.1058  0.1542  0.0515
 8293W        W25141   8.026  15.326  12.088 -0.0535 -0.2262  0.2693
 8294W        W25142  10.953  15.036  14.736  0.0111 -0.0549  0.0816
 8295W        W25143   7.199   0.531   1.025 -0.0291 -0.1334  0.1117
 8296W        W25144  17.937  16.616  16.272 -0.0463  0.2232 -0.2730
 8297W        W25145  15.805   3.921  14.839 -0.0697  0.0732 -0.1384
 8298W        W25146   3.763  17.624   5.315  0.1258  0.1245  0.0356
 8299W        W25147   0.162  15.419   4.541 -0.0053 -0.0142 -0.0841
 8300W        W25148  11.000  10.130  15.016 -0.2172 -0.0075  0.0164
 8301W        W25149   9.763  17.857  11.309 -0.1606  0.0990  0.0109
 8302W        W25150  15.138   9.519   2.111 -0.1130 -0.2500  0.3573
 8303W        W25151  15.355   7.669  13.739 -0.3214  0.1601  0.0368
 8304W        W25152  16.437   5.568  12.270 -0.0221  0.1349  0.2245
 8305W        W25153   5.027  14.853   3.723  0.2597 -0.2328  0.2714
 8306W        W25154   7.412   9.820   1.053  0.1642  0.0725  0.1659
 8307W        W25155  16.341  10.003  11.591 -0.1460  0.1108  0.0413
 8308W        W25156   7.661  13.486   6.065  0.0321  0.2949 -0.1795
 8309W        W25157   7.846  16.518   2.715 -0.2664  0.0556 -0.0192
 8310W        W25158  12.447   2.589  16.225 -0.1038  0.0446 -0.0286
 8311W        W25159  11.359   7.460  12.401 -0.1564  0.1892 -0.0301
 8312W        W25160  15.027   6.143   3.115  0.0100 -0.0271  0.1060
 8313W        W25161  14.050  15.061   2.403 -0.1914  0.2451  0.3164
 8314W        W25162   1.750  14.657   1.268  0.3241  0.2145 -0.4713
 8315W        W25163  15.747   6.614  12.827 -0.3846 -0.2917 -0.2299
 8316W        W25164  10.983   4.027   4.124 -0.1578  0.2163 -0.1723
 8317W        W25165   1.749  13.076  12.267 -0.2623  0.1920  0.0665
 8318W        W25166  15.072   2.654   1.072 -0.0848  0.0408  0.2256
 8319W        W25167   0.456   2.657  11.818 -0.2632  0.1884 -0.0993
 8320W        W25168  13.879   6.520   0.021  0.0016  0.2895  0.1269
 8321W        W25169   5.658   9.403   0.869 -0.2021  0.0643 -0.1412
 8322W        W25170  12.886   4.594   4.469 -0.0402 -0.2594 -0.2234
 8323W        W25171   2.321  16.871  12.028  0.3411  0.0271  0.1078
 8324W        W25172   1.542  16.725  13.834  0.2547  0.2046  0.0843
 8325W        W25173  15.914   0.881   4.004 -0.1491 -0.0570 -0.1014
 8326W        W25174  11.053  15.477  10.387  0.2108  0.1675 -0.1059
 8327W        W25175   5.930   9.761   1.664  0.2575 -0.2238  0.0362
 8328W        W25176   5.423  13.119  15.979 -0.0909  0.0607  0.2315
 8329W        W25177   3.651  15.201   5.289  0.1400  0.1866 -0.1176
 8330W        W25178   0.241   6.202   0.406 -0.0490 -0.1491  0.0478
 8331W        W25179   4.423   3.099  14.636 -0.2766  0.0243  0.3229
 8332W        W25180   0.305   9.149  11.209  0.0288  0.3999  0.1834
 8333W        W25181   9.546   0.865   3.062  0.0199 -0.1736  0.1119
 8334W        W25182   3.480   0.658  11.411  0.0637 -0.1862  0.1754
 8335W        W25183   8.764   0.735   0.132 -0.1975 -0.0478  0.1057
 8336W        W25184  11.511   9.497  12.340 -0.2096 -0.0047 -0.4665
 8337W        W25185  17.840  11.487  14.380  0.1574  0.1270  0.0515
 8338W        W25186   7.619  15.694  15.252  0.2846 -0.0296  0.0630
 8339W        W25187  10.602   5.605  15.544 -0.3010 -0.3011  0.1288
 8340W        W25188  11.167   6.122   0.255  0.0229 -0.1198  0.1311
 8341W        W25189   2.348   8.585   3.409 -0.5704  0.1166 -0.0168
 8342W        W25190  17.187  17.362   3.625 -0.0907  0.1865  0.0710
 8343W        W25191  12.525  17.732  14.398  0.0319 -0.0434  0.0133
 8344W        W25192  13.981  10.271  16.302 -0.0280  0.0272 -0.0657
 8345W        W25193   5.906   3.641   4.185  0.3521  0.0545  0.0210
 8346W        W25194   5.182   0.670   2.942  0.0398 -0.0478  0.1532
 8347W        W25195  16.707   4.637   1.765  0.0053  0.1028  0.1895
 8348W        W25196   7.821  15.380  13.733 -0.1542 -0.3816  0.0583
 8349W        W25197  15.232   3.374  15.031 -0.0465 -0.0333 -0.0209
 8350W        W25198  17.732   8.243   0.367  0.0290  0.1839 -0.1353
 8351W        W25199   3.353   8.625   2.512  0.1097  0.0432 -0.4646
 8352W        W25200  13.726   2.471  15.703 -0.1496  0.0330  0.0153
 8353W        W25201  11.358  16.239   2.668  0.0375  0.1004  0.0290
 8354W        W25202   7.096   4.555   2.573 -0.2238  0.0394 -0.2544
 8355W        W25203  11.004   6.018   1.665 -0.0510  0.2125  0.0433
 8356W        W25204   8.022   7.485  12.391  0.2123  0.0284  0.2565
 8357W        W25205  10.033   1.192   2.190 -0.0968 -0.1132 -0.3722
 8358W        W25206   0.690   5.243  11.380 -0.2934  0.0968 -0.2004
 8359W        W25207   0.212   8.552   3.013 -0.0789  0.1786 -0.2043
 8360W        W25208   2.980   6.420  11.701  0.3898  0.1793 -0.2521
 8361W        W25209   3.258   8.525  11.042 -0.1985 -0.0729  0.5143
 8362W        W25210  13.816  14.488   1.541  0.0835 -0.0464  0.1212
 8363W        W25211   4.789   3.914  14.175 -0.0897  0.2499  0.1907
 8364W        W25212   2.828   5.057  14.497 -0.2247  0.0191 -0.0290
 8365W        W25213   7.135   9.425  14.944 -0.1487  0.1757 -0.4209
 8366W        W25214  11.531  16.814  10.874 -0.1182 -0.0163  0.0122
 8367W        W25215   5.315  17.030   3.349  0.3262  0.3888  0.0347
 8368W        W25216  16.428  17.216  15.909  0.2827 -0.0310 -0.2611
 8369W        W25217  10.420  14.668   4.589  0.1601 -0.0297 -0.1123
 8370W        W25218   0.549  13.714   4.078  0.1263 -0.0224  0.1086
 8371W        W25219   3.744   5.595  15.750  0.1317  0.2524 -0.2424
 8372W        W25220  15.732  14.836   2.534 -0.0018 -0.5503  0.2605
 8373W        W25221   0.829   5.467  11.842 -0.1976 -0.0460 -0.0717
 8374W        W25222   4.485  16.005   4.677 -0.0251 -0.2035  0.0858
 8375W        W25223   2.530  10.645   0.429  0.4955  0.4393  0.0658
 8376W        W25224   6.019  14.591  12.278 -0.3900 -0.1150 -0.1009
 8377W        W25225   6.148  16.451   3.484  0.0598 -0.0729 -0.3607
 8378W        W25226  13.055  17.276  15.576 -0.1572  0.3672  0.1705
 8379W        W25227  15.646  13.141  11.001 -0.0480 -0.0065  0.1789
 8380W        W25228  17.456   3.142   0.832 -0.2809  0.1835  0.3004
 8381W        W25229  10.235   5.938  13.237 -0.0315 -0.1167  0.2690
 8382W        W25230  10.348   6.076   4.037  0.4167  0.0817  0.0118
 8383W        W25231   5.661   8.109   4.551 -0.1444  0.1212  0.3324
 8384W        W25232   5.409  12.346  10.235  0.1699  0.2031  0.0116
 8385W        W25233  15.763  10.614  12.771 -0.0732  0.0981  0.2086
 8386W        W25234   4.449  18.027   3.966 -0.3277 -0.2169  0.0624
 8387W        W25235  12.447  18.007   3.295  0.1041 -0.1761 -0.3277
 8388W        W25236   7.096  12.641  13.411  0.1318  0.2425 -0.1018
 8389W        W25237  13.054   8.321  13.871  0.0743  0.4872 -0.2743
 8390W        W25238  12.966  17.815  14.140  0.0360 -0.0485 -0.0228
 8391W        W25239  14.456   8.317  12.394  0.2811 -0.1066  0.1350
 8392W        W25240   6.577   3.581   2.687  0.1405  0.0935 -0.0120
 8393W        W25241  13.022  12.721   3.178 -0.1703  0.2223 -0.2246
 8394W        W25242   6.622   1.072   3.789 -0.2500  0.1317 -0.1920
 8395W        W25243  10.984   9.306   1.805  0.0404 -0.1711  0.1740
 8396W        W25244  14.177  14.527   1.237  0.0434 -0.1058  0.0156
 8397W        W25245  12.469   6.527  13.712 -0.1046  0.1507 -0.0384
 8398W        W25246   5.298   4.838  11.940 -0.0170 -0.0885  0.2105
 8399W        W25247   1.316   0.469  15.118  0.0685 -0.2163 -0.1645
 8400W        W25248  16.160   3.991   3.789 -0.0114  0.0086  0.3403
 8401W        W25249   1.209  12.056   0.320  0.1619  0.3612 -0.0839
 8402W        W25250   3.038   6.923  14.808  0.2770 -0.1314 -0.1937
 8403W        W25251   7.771  17.231   2.217  0.1355  0.0663  0.1289
 8404W        W25252   4.694   2.434   4.163 -0.1072 -0.0534  0.1720
 8405W        W25253   8.331   5.178  15.864  0.3400 -0.2698 -0.0182
 8406W        W25254  14.057   7.770   0.220 -0.3925 -0.1471 -0.0918
 8407W        W25255  16.832   0.877   0.011  0.0188 -0.0588  0.1843
 8408W        W25256  13.715   5.136  12.852 -0.0920 -0.1721  0.3156
 8409W        W25257  16.411   3.205  11.839 -0.0123 -0.3515  0.0988
 8410W        W25258   3.599   2.102   0.760 -0.0045 -0.1304 -0.2548
 8411W        W25259   9.031   7.232   1.194 -0.1831  0.0641 -0.1641
 8412W        W25260  10.015  10.274  13.192 -0.0754  0.4878  0.1207
 8413W        W25261   6.050   6.583   3.082 -0.0093  0.0213 -0.4182
 8414W        W25262  18.018   7.015   1.453  0.1927 -0.0165 -0.1774
 8415W        W25263   8.054   5.149  13.669  0.2118 -0.2314 -0.0128
 8416W        W25264   7.085  10.732  16.171 -0.1000  0.0315  0.0780
 8417W        W25265   2.948   1.279  11.497  0.0120 -0.5411 -0.2289
 8418W        W25266  12.576   7.263  12.405 -0.4362 -0.0223  0.1088
 8419W        W25267  13.784  11.985  14.209 -0.0959  0.0481  0.2516
 8420W        W25268   4.417  10.853   5.525 -0.1042 -0.1979  0.0912
 8421W        W25269   1.645  16.379   3.594  0.0852  0.2749 -0.1387
 8422W        W25270  18.041   2.069   0.012 -0.0718 -0.1136 -0.1808
 8423W        W25271   4.184   7.018   1.533 -0.1771 -0.0225  0.0519
 8424W        W25272   7.664   4.796   0.952  0.2276 -0.1066 -0.3258
 8425W        W25273  16.263  10.141   1.922  0.2733  0.0908  0.0185
 8426W        W25274  14.823   0.103   0.521  0.2034 -0.2216  0.3645
 8427W        W25275   6.805   1.649  12.586 -0.1391  0.1024  0.2314
 8428W        W25276  17.695  17.931  15.962 -0.0199 -0.0029  0.2777
 8429W        W25277   5.380  15.931   0.367  0.1133  0.1572 -0.3164
 8430W        W25278  16.890   7.382  16.034  0.0944  0.0520  0.1467
 8431W        W25279   7.304  15.094   4.811  0.3186  0.2208  0.0127
 8432W        W25280   6.558   2.314   0.312  0.2412 -0.2096  0.0707
 8433W        W25281   8.914   2.332  16.329  0.1978  0.1094 -0.1109
 8434W        W25282  10.087  16.476   3.285  0.2137 -0.1867 -0.0962
 8435W        W25283  11.264   9.690  13.329 -0.1432  0.0865  0.1555
 8436W        W25284   0.870  14.954   3.900  0.1513 -0.0662 -0.0230
 8437W        W25285   2.284  16.660  13.855 -0.0509 -0.0574  0.1290
 8438W        W25286  16.109  10.752   2.970 -0.0803  0.0795 -0.0730
 8439W        W25287   4.238   1.344   2.841 -0.1006 -0.0278  0.2000
 8440W        W25288   6.465  14.170  12.697 -0.0093 -0.0090 -0.3333
 8441W        W25289   8.846  10.615  13.935  0.1142 -0.1215  0.0185
 8442W        W25290   1.966   2.855   0.412 -0.0806  0.0109  0.4400
 8443W        W25291   1.096   7.010  11.670  0.1596 -0.2074  0.0045
 8444W        W25292   9.813   3.107  11.349  0.3309 -0.1970 -0.0930
 8445W        W25293   9.834   5.129  12.040 -0.3415 -0.1184 -0.0573
 8446W        W25294  14.704  17.129  13.166  0.1201  0.1260  0.2451
 8447W        W25295  12.355  14.657   0.816  0.0429 -0.1381 -0.1531
 8448W        W25296  12.103   7.196   0.983  0.0920 -0.4156 -0.1300
 8449W        W25297   6.077   8.709  15.138  0.0927  0.2541 -0.1524
 8450W        W25298   9.775  15.368   3.283  0.2050  0.0889  0.1340
 8451W        W25299  17.266   5.527  14.206  0.1272 -0.1567  0.1007
 8452W        W25300   6.200   8.114   3.665 -0.1878  0.2254  0.0509
 8453W        W25301   6.588   3.348   1.071 -0.1359 -0.1237  0.0064
 8454W        W25302  11.981   2.430  12.559  0.0112  0.0064 -0.0677
 8455W        W25303   5.845   8.691   0.436 -0.0146 -0.0708  0.2094
 8456W        W25304  14.505   0.155  13.702  0.2608 -0.0554 -0.0604
 8457W        W25305  11.621   5.490   3.134 -0.1565 -0.0920 -0.3044
 8458W        W25306   4.306   8.380   3.650  0.0619  0.0821 -0.3139
 8459W        W25307  18.039   4.088   3.565 -0.0614 -0.3115  0.2185
 8460W        W25308  17.083  15.037  12.457  0.0086  0.2819  0.0714
 8461W        W25309  14.739   2.772   1.991 -0.2670  0.0748 -0.0777
 8462W        W25310   8.049   5.535  14.070 -0.2616  0.4675  0.2001
 8463W        W25311  14.998   3.753   1.208 -0.1375  0.1037 -0.0191
 8464W        W25312  12.654   7.418  15.646  0.0411 -0.2458  0.1861
 8465W        W25313   4.149   4.353  12.683  0.0876 -0.0392  0.0140
 8466W        W25314   2.863   3.727   0.924  0.1487 -0.2181  0.0395
 8467W        W25315   2.101   1.612  15.513  0.0790 -0.0513  0.0866
 8468W        W25316  14.335  16.307   5.139  0.1265  0.1180  0.2055
 8469W        W25317   3.921  10.703   1.605 -0.0404  0.1743 -0.1312
 8470W        W25318  16.731   3.102  12.797 -0.0810 -0.1439  0.1995
 8471W        W25319  11.620  16.618  15.534  0.0032  0.0655 -0.1915
 8472W        W25320   4.866   1.131  13.327 -0.0426  0.0317  0.2822
 8473W        W25321  15.615   8.670   2.578  0.0730  0.0312 -0.2658
 8474W        W25322   3.063  17.845  15.761 -0.0224  0.3352 -0.3550
 8475W        W25323   6.253   3.148  10.941  0.2278 -0.1731 -0.2220
 8476W        W25324  16.632  13.525  11.309 -0.0241  0.0016  0.0637
 8477W        W25325   1.703   6.348   0.703  0.1710  0.0301 -0.1552
 8478W        W25326   3.775  10.241   1.821  0.2427 -0.0074 -0.0725
 8479W        W25327  18.023  13.389   3.048 -0.1986  0.1278 -0.0241
 8480W        W25328   4.015   2.358   2.099 -0.1919  0.1259  0.2387
 8481W        W25329   6.732  12.263   0.434  0.2115  0.1519 -0.0820
 8482W        W25330   6.826   5.699   3.552  0.0274  0.0626  0.0892
 8483W        W25331  12.556  14.332   4.525  0.1122 -0.1950 -0.2053
 8484W        W25332   7.196  12.084   1.137  0.1877  0.1324 -0.2758
 8485W        W25333  12.731   7.351   3.997 -0.2439  0.1830  0.3384
 8486W        W25334   7.850   3.067   3.851 -0.1117 -0.1412  0.0727
 8487W        W25335   4.953   8.656   1.320 -0.1121 -0.2234  0.2461
 8488W        W25336   6.515  10.607  14.939 -0.1376 -0.1058  0.0084
 8489W        W25337   8.507  12.187   4.294  0.4420 -0.2046  0.1116
 8490W        W25338   6.228  10.557  12.783 -0.0017  0.0918 -0.1275
 8491W        W25339  10.446   4.238  10.501  0.1225 -0.3145  0.3238
 8492W        W25340   3.103  10.432  12.960 -0.0953  0.2170  0.2458
 8493W        W25341  14.124   2.108   4.878  0.0425 -0.2734  0.0373
 8494W        W25342   2.920   1.868  12.809 -0.3243 -0.1808  0.0274
 8495W        W25343  16.590  17.139   4.440  0.1119 -0.1917 -0.1681
 8496W        W25344  11.310   3.495  13.396 -0.2007 -0.2393 -0.1208
 8497W        W25345  15.426   7.016  11.666 -0.0286  0.0432 -0.1205
 8498W        W25346   9.540  11.668  11.886 -0.0014  0.1055  0.2061
 8499W        W25347  16.546  14.101   5.956 -0.2981  0.4442 -0.0727
 8500W        W25348  14.180  16.156   4.201  0.3657 -0.0748  0.0755
 8501W        W25349  10.614   2.205  14.773  0.2364 -0.2074  0.0914
 8502W        W25350   5.857   7.833   1.842  0.0065 -0.1303  0.1846
 8503W        W25351  15.234   1.594   1.303 -0.3255 -0.0550 -0.0868
 8504W        W25352   9.693  17.884  12.763 -0.3566  0.1906 -0.1031
 8505W        W25353   3.062   7.603  15.084  0.1175 -0.0838 -0.0339
 8506W        W25354   3.517   8.027  10.444 -0.1818 -0.2285  0.2999
 8507W        W25355  11.585  13.181  12.771 -0.1154  0.1558 -0.0893
 8508W        W25356   9.936   8.803   3.942  0.0239 -0.0456 -0.0907
 8509W        W25357   7.018  17.887   0.125  0.1034 -0.0314 -0.0371
 8510W        W25358  13.853  14.115  11.193 -0.1463 -0.0393 -0.1792
 8511W        W25359  12.422   4.766   4.481  0.5549  0.1519  0.0961
 8512W        W25360   9.441   7.371   0.025  0.0511 -0.0216 -0.0596
 8513W        W25361   3.634   7.592  11.437 -0.1578 -0.1528 -0.0726
 8514W        W25362  12.844  13.689  12.925  0.1482 -0.1197 -0.1641
 8515W        W25363   3.385  17.821   0.040  0.0632  0.1830 -0.3267
 8516W        W25364   4.566   1.977  12.770 -0.0414  0.0234 -0.0688
 8517W        W25365  14.145   4.547  15.551  0.2460  0.0588 -0.0789
 8518W        W25366  14.721  13.158   1.260 -0.2215  0.1659  0.0482
 8519W        W25367   7.351  11.565  12.252  0.0216 -0.0027 -0.1156
 8520W        W25368   0.708   3.328   2.670  0.0495 -0.1982  0.0913
 8521W        W25369   2.169   2.401   0.086 -0.1054  0.1378  0.0535
 8522W        W25370   7.822  12.190   1.922 -0.0831  0.0099 -0.0857
 8523W        W25371   6.904   3.094  10.280  0.1627  0.0261 -0.1771
 8524W        W25372  14.055  17.999  12.915 -0.0970  0.0717  0.1067
 8525W        W25373   8.741  10.148  15.607 -0.2386 -0.0762  0.0697
 8526W        W25374  10.879  12.320  12.997  0.3921 -0.0305 -0.0134
 8527W        W25375  10.011   5.586  12.342  0.0284 -0.0229  0.1446
 8528W        W25376  14.678   6.364   0.330  0.0843 -0.2425  0.2319
 8529W        W25377  11.276   4.447   4.063  0.2285  0.1870 -0.3822
 8530W        W25378   3.923  17.876   4.253 -0.1294  0.0831  0.2380
 8531W        W25379   1.796   5.159  12.819 -0.0042  0.2394 -0.0938
 8532W        W25380  11.621   6.615  12.517 -0.0460  0.1225 -0.1049
 8533W        W25381   7.074  12.657   1.760  0.0619 -0.2641 -0.1733
 8534W        W25382  14.161   0.164  15.205 -0.0806 -0.0145 -0.3116
 8535W        W25383  15.975   6.757  12.368  0.1913  0.1198  0.0417
 8536W        W25384  10.066  11.106   3.308  0.1937 -0.3208 -0.2814
 8537W        W25385  13.394   7.542   5.511  0.0780 -0.0280  0.2368
 8538W        W25386  11.061  12.694   0.345 -0.0111 -0.0494  0.2441
 8539W        W25387  11.175  13.737   0.435  0.3676  0.1409 -0.0056
 8540W        W25388   6.828   9.718  12.915  0.4038 -0.1720  0.0799
 8541W        W25389   1.567   4.517  11.344 -0.0428  0.0916 -0.4364
 8542W        W25390  10.644   0.393   4.851  0.0360  0.2092 -0.0052
 8543W        W25391   0.445  14.850   3.516 -0.2146 -0.0493 -0.0127
 8544W        W25392  13.222  13.200   2.133 -0.0186 -0.0035  0.1556
 8545W        W25393   9.255  13.704  14.935 -0.0309 -0.1216 -0.2541
 8546W        W25394   2.310  15.107   2.289  0.1343  0.1163 -0.0405
 8547W        W25395   3.647   6.207   1.362  0.1774 -0.1291  0.1062
 8548W        W25396   2.385   8.136   4.709 -0.0022  0.0481  0.1541
 8549W        W25397  14.874   2.831  13.428 -0.1005  0.0370  0.0002
 8550W        W25398   5.493  12.875  11.574 -0.2006 -0.4187  0.0399
 8551W        W25399  11.592   2.163   2.956  0.2685  0.1017  0.0441
 8552W        W25400   6.109  15.141  14.667 -0.0053 -0.1758  0.0418
 8553W        W25401   6.594   2.495  14.581  0.0493 -0.0599  0.2126
 8554W        W25402   5.397   8.809  15.740  0.1777 -0.0640  0.1986
 8555W        W25403   9.334  18.016  15.822 -0.0397  0.0281  0.4205
 8556W        W25404   6.104  16.500  13.312  0.3736  0.0328 -0.1810
 8557W        W25405   8.162  11.508  14.589  0.0063  0.0006 -0.1277
 8558W        W25406  10.907   5.430  12.533  0.0079  0.1012  0.0683
 8559W        W25407   6.172   6.680  10.962 -0.0181 -0.4763  0.1187
 8560W        W25408  13.306  15.997   1.278 -0.1314 -0.1381 -0.0196
 8561W        W25409   7.708  10.507  13.460  0.3324  0.0400 -0.0754
 8562W        W25410  11.880  10.150   0.471 -0.1875  0.6239  0.1439
 8563W        W25411   8.681  11.582  10.906 -0.1780 -0.0283 -0.0151
 8564W        W25412  13.162  17.088  14.170  0.1334 -0.1100  0.0098
 8565W        W25413   5.729  10.753   1.281 -0.3429 -0.0634 -0.2826
 8566W        W25414  17.279   0.062  13.342  0.1869  0.2142  0.1412
 8567W        W25415   6.193  10.347   4.780 -0.3260 -0.2802  0.1709
 8568W        W25416  11.101  12.385   3.269 -0.1834  0.0107 -0.2000
 8569W        W25417   3.592  10.294  14.923  0.1345 -0.1735 -0.0295
 8570W        W25418  13.425   1.648   3.611  0.2785  0.0298 -0.0952
 8571W        W25419   1.091  10.525   3.722 -0.2443  0.3678 -0.0228
 8572W        W25420  15.703   7.244   1.334  0.0669  0.0680 -0.2431
 8573W        W25421   8.468   6.620   0.097 -0.0392 -0.2122  0.1428
 8574W        W25422  14.525   0.934   3.983  0.0505  0.0397 -0.1339
 8575W        W25423   5.050  16.216  14.384 -0.2554 -0.0822  0.1297
 8576W        W25424   8.101   2.699   1.600  0.1887  0.1763  0.3281
 8577W        W25425   6.801  10.977  11.997  0.1401 -0.2584 -0.1288
 8578W        W25426   2.638   0.040   1.194 -0.2043 -0.5249  0.0327
 8579W        W25427   0.900   5.718   2.798  0.0994  0.3676  0.2001
 8580W        W25428   0.176   6.004   2.491 -0.1412 -0.0721  0.2722
 8581W        W25429   5.207   6.732   0.132  0.0488  0.0871 -0.4607
 8582W        W25430  14.178   5.697   4.575 -0.1028 -0.1123 -0.0230
 8583W        W25431   7.266   8.267   2.747  0.1819  0.1170 -0.1326
 8584W        W25432   6.562  12.526  15.793 -0.0964  0.0602 -0.1420
 8585W        W25433   3.781  11.599  15.823  0.1247  0.2487  0.1904
 8586W        W25434   9.667  10.036   2.739  0.3391  0.0587  0.1874
 8587W        W25435  15.911  16.786  12.771 -0.1483  0.3424 -0.0904
 8588W        W25436  16.256  11.690   5.155  0.0300 -0.0924  0.1721
 8589W        W25437   9.388   4.122  13.722 -0.1693 -0.1162 -0.2159
 8590W        W25438   2.488  13.547   1.692  0.2582  0.3625  0.0033
 8591W        W25439  16.418   4.785  10.668  0.0330 -0.6542  0.0176
 8592W        W25440   7.694   8.789  15.975 -0.0360 -0.0862 -0.1923
 8593W        W25441  10.415   1.119   0.983  0.0577 -0.2372 -0.1007
 8594W        W25442   0.579   9.295   2.500 -0.0477  0.0209  0.1886
 8595W        W25443  16.829  14.283  15.777  0.1863  0.0926 -0.0441
 8596W        W25444  13.350  10.019  14.069 -0.0006 -0.0129  0.2859
 8597W        W25445  13.275   4.529   2.853  0.0151  0.3100 -0.2842
 8598W        W25446   5.034   6.254  10.311  0.2536  0.2256 -0.0681
 8599W        W25447  17.026   5.562   4.524  0.0125  0.2259 -0.0335
 8600W        W25448  16.484  14.947   0.703 -0.0245  0.1568 -0.1489
 8601W        W25449  10.496  17.281   3.784 -0.1296 -0.2037  0.1407
 8602W        W25450   9.277   3.392  14.998  0.1303 -0.0035  0.2440
 8603W        W25451  18.081   3.939  14.752  0.2583  0.2259  0.0618
 8604W        W25452   7.798  17.538  16.232  0.2686 -0.1191  0.0891
 8605W        W25453   3.262   5.973  13.052  0.0263  0.1667 -0.2114
 8606W        W25454   4.201  10.788   1.123 -0.0521 -0.0645  0.0043
 8607W        W25455   4.504   8.414  12.264 -0.3239 -0.1034 -0.1149
 8608W        W25456   8.348   2.742   5.180  0.0205 -0.1700 -0.0878
 8609W        W25457  12.183  11.946  15.436  0.0448  0.0244  0.0420
 8610W        W25458  10.059   2.221  15.584 -0.3589  0.1136  0.2854
 8611W        W25459  14.736   4.220  13.536  0.0578  0.0195  0.0865
 8612W        W25460   2.669  11.403  16.043 -0.0165 -0.1197 -0.0532
 8613W        W25461   2.123   5.956   1.657 -0.0402 -0.1207 -0.3262
 8614W        W25462  15.848  10.475   0.402 -0.0124  0.3827  0.2063
 8615W        W25463  11.298   7.295  13.365 -0.0369  0.1343  0.3029
 8616W        W25464  13.456   9.135   3.922  0.2488 -0.0344 -0.1438
 8617W        W25465  11.865   6.483   3.473 -0.0154 -0.0568  0.2303
 8618W        W25466   2.214   8.511   3.873  0.2516  0.1071  0.3587
 8619W        W25467   5.434  10.802   4.153 -0.1033 -0.1198 -0.2061
 8620W        W25468   1.276   4.575  15.058 -0.2282 -0.0729 -0.0434
 8621W        W25469   0.780  15.767  12.396 -0.4664 -0.2577  0.1310
 8622W        W25470   8.171  10.674   1.318 -0.2668 -0.0135  0.1166
 8623W        W25471  15.178  14.827  14.272 -0.0291  0.2294  0.1528
 8624W        W25472  11.880   7.858   2.297  0.0252 -0.0331 -0.1624
 8625W        W25473   1.071  13.912   4.238  0.1697  0.0610 -0.1160
 8626W        W25474   0.050   2.971   0.673  0.0332 -0.2766 -0.2083
 8627W        W25475   3.118  14.093   5.734  0.0345 -0.2371 -0.4950
 8628W        W25476   5.905  17.200   0.897 -0.1502  0.3778 -0.2090
 8629W        W25477   0.987  17.644  11.351  0.0916 -0.0231  0.0941
 8630W        W25478   5.352   6.142  12.358 -0.1749 -0.1663  0.0719
 8631W        W25479   7.811   2.038  16.000  0.0233  0.2584 -0.1391
 8632W        W25480   9.105  18.014   4.376 -0.1452  0.2590 -0.1011
 8633W        W25481  14.637  18.001  10.548 -0.0909 -0.3002  0.1179
 8634W        W25482  16.449  12.030   2.801 -0.0353  0.0870  0.0357
 8635W        W25483   8.267   6.088  15.810 -0.1679 -0.2852 -0.0798
 8636W        W25484   3.420  10.284   2.156  0.2390 -0.1395 -0.1385
 8637W        W25485   6.939   5.257  13.825 -0.0947  0.1208 -0.0250
 8638W        W25486  11.617   6.190   5.879 -0.0819 -0.0819 -0.0015
 8639W        W25487  11.472  16.200   0.395  0.0382 -0.0738  0.2485
 8640W        W25488  11.954  12.707  14.464 -0.0116 -0.0508 -0.2560
 8641W        W25489   8.436   7.287   3.379  0.1666  0.1299 -0.0116
 8642W        W25490   0.927  12.082   2.033  0.2039 -0.2186  0.1680
 8643W        W25491   3.933  13.071  13.334 -0.0178 -0.1049  0.0847
 8644W        W25492   6.690   3.896   0.444  0.0700 -0.5117  0.3097
 8645W        W25493   0.298   2.602   2.390  0.0815 -0.3158  0.1322
 8646W        W25494   7.256  14.391  15.028  0.1708  0.0313 -0.3350
 8647W        W25495  13.655  12.609   3.999  0.0389 -0.1792  0.0015
 8648W        W25496  12.657   5.121  11.797 -0.0836  0.3954  0.0566
 8649W        W25497  16.320   9.706  14.374  0.0482 -0.1258  0.1451
 8650W        W25498  10.823  16.023  13.594  0.2190 -0.2762 -0.1004
 8651W        W25499   9.054  16.379  15.862  0.3351  0.1349 -0.2303
 8652W        W25500  10.786   7.578  15.521 -0.0038 -0.0723  0.2792
 8653W        W25501  17.580   4.720  11.030  0.2583  0.3418  0.0267
 8654W        W25502  12.179   8.198  16.122 -0.0589 -0.1897  0.0818
 8655W        W25503  13.109   5.838   0.004  0.0831  0.1193  0.2189
 8656W        W25504   0.399  14.001  10.448 -0.1003 -0.1616  0.1181
 8657W        W25505  12.809   2.396  13.895  0.3848 -0.0965  0.1562
 8658W        W25506   0.137   0.133  15.628 -0.1901  0.1371  0.0482
 8659W        W25507   5.447   7.073  12.911 -0.0699 -0.0978  0.0932
 8660W        W25508   9.677   1.326   5.026 -0.0336  0.0310 -0.2406
 8661W        W25509  12.256   7.520  13.836  0.3132  0.0931  0.0193
 8662W        W25510   6.244  14.532  11.389  0.2398  0.0472  0.1022
 8663W        W25511  17.605   7.008  15.045  0.0761 -0.3078 -0.0563
 8664W        W25512  14.900  11.133  13.801 -0.2052 -0.1172  0.0597
 8665W        W25513   2.228  13.168   3.171 -0.0519  0.3393 -0.0663
 8666W        W25514   5.248  16.924   0.181  0.0247 -0.3273 -0.5100
 8667W        W25515   4.592   3.039   4.210  0.1853  0.1956  0.0901
 8668W        W25516  15.280   3.041   2.545  0.1325 -0.2809 -0.4149
 8669W        W25517   6.486   3.800  14.227  0.1523 -0.0436  0.1195
 8670W        W25518   3.619   9.704   0.143 -0.0163 -0.1447 -0.0736
 8671W        W25519  14.813   1.847  15.443 -0.3445  0.2093 -0.4248
 8672W        W25520   7.447   4.373  14.830 -0.1976  0.1903 -0.2267
 8673W        W25521   7.831  10.095  11.811 -0.0621  0.2040  0.1381
 8674W        W25522  14.534  14.622   5.796 -0.1093  0.1475  0.2075
 8675W        W25523  13.753   7.923   0.678  0.2943  0.4253  0.2348
 8676W        W25524  16.997   6.717  12.814  0.3038 -0.2588  0.0717
 8677W        W25525  14.178  13.537   3.468  0.2700  0.0214 -0.2858
 8678W        W25526   1.733  17.364  13.486 -0.0843 -0.0440 -0.2381
 8679W        W25527  16.404  14.672   5.080  0.0797 -0.1741 -0.0216
 8680W        W25528  13.012  11.406  15.228 -0.2207  0.3148 -0.0179
 8681W        W25529   7.973   5.956  11.054 -0.0884  0.0511 -0.2537
 8682W        W25530   9.039   9.422   4.155  0.0265 -0.4356 -0.2886
 8683W        W25531  10.506   6.279   2.791  0.0145  0.1437 -0.1574
 8684W        W25532   7.377  15.277  14.554 -0.5183  0.1149  0.1040
 8685W        W25533  17.581  18.085   4.845  0.1649  0.0903  0.0485
 8686W        W25534   3.027   2.552  12.827  0.2388  0.1328 -0.0250
 8687W        W25535   8.164  14.785   4.764  0.0359  0.0223  0.0261
 8688W        W25536   4.207  16.480  14.737 -0.4595 -0.4409 -0.1464
 8689W        W25537   2.088  12.135   2.326 -0.1356  0.1660  0.3519
 8690W        W25538   8.123  13.367  15.086  0.0905  0.0246 -0.0800
 8691W        W25539   6.252  12.967  13.846 -0.2625  0.1117  0.0234
 8692W        W25540   2.426   4.341   4.315  0.0104  0.0492 -0.2314
 8693W        W25541   5.703  17.291  13.486  0.2359  0.0310  0.4679
 8694W        W25542   5.168   5.179   5.045 -0.0081  0.2336  0.2149
 8695W        W25543   1.457   2.681   2.208  0.1056  0.4820 -0.2848
 8696W        W25544   0.499   6.650  14.441 -0.0899 -0.1815  0.2596
 8697W        W25545   5.896   7.035  11.932  0.1614  0.0239 -0.0187
 8698W        W25546   1.560  16.978   1.070 -0.1946 -0.0875 -0.4845
 8699W        W25547   5.107  12.005  13.909 -0.2279  0.0434 -0.1454
 8700W        W25548   8.652  14.754   1.847 -0.0653  0.3291  0.1382
 8701W        W25549  12.812   7.022  14.395  0.0229 -0.0379 -0.1230
 8702W        W25550   5.078  14.655  12.953  0.1318 -0.1114 -0.1218
 8703W        W25551  14.351  12.421   1.605 -0.0904  0.0195 -0.1209
 8704W        W25552   6.060   3.559  11.772 -0.1294  0.4316 -0.0379
 8705W        W25553   1.730   7.406  14.905  0.0013  0.2897  0.1202
 8706W        W25554  13.858   2.940   2.665 -0.1131 -0.1029 -0.0284
 8707W        W25555   5.957   1.415   0.873 -0.0521  0.1415 -0.0653
 8708W        W25556   3.989   9.409   2.746  0.0346 -0.4169  0.0471
 8709W        W25557   7.557  17.028   1.339  0.0243 -0.0854 -0.1552
 8710W        W25558  12.235  14.164  11.509 -0.0436 -0.1334 -0.2622
 8711W        W25559   7.499   5.576   1.290 -0.1494  0.0348 -0.1513
 8712W        W25560   1.922  15.791   0.656  0.2606 -0.1411  0.0371
 8713W        W25561   3.387  14.515  14.365  0.1383 -0.3349 -0.2946
 8714W        W25562  14.267   4.493   0.717  0.4987 -0.0917  0.1656
 8715W        W25563  14.581  11.552   2.714 -0.0277 -0.1908  0.1912
 8716W        W25564   1.002   7.433  15.976  0.2501  0.0215 -0.0952
 8717W        W25565   3.574  16.970   1.352  0.0124  0.2410 -0.0552
 8718W        W25566   9.075   6.654   4.184 -0.0301 -0.0745 -0.0051
 8719W        W25567   6.716   7.930   3.525 -0.3935  0.0433 -0.2027
 8720W        W25568   3.531   4.888  11.308  0.1472  0.1636  0.2404
 8721W        W25569   6.166   5.702  12.598 -0.0497  0.1744 -0.0329
 8722W        W25570   9.105   1.438  16.216  0.2374 -0.0151 -0.0685
 8723W        W25571   0.504  15.899   2.919 -0.0329  0.1535  0.1606
 8724W        W25572   3.382   3.022  15.385  0.0265 -0.3370 -0.0828
 8725W        W25573  10.329   4.390  11.416 -0.1940 -0.1955 -0.3827
 8726W        W25574   8.256  11.709   0.608  0.0904 -0.3470  0.3190
 8727W        W25575  11.498   3.661  12.471 -0.1458  0.1619 -0.0280
 8728W        W25576  13.868  17.001  14.871  0.2220  0.2372  0.2203
 8729W        W25577   1.113   4.738  12.246 -0.2144 -0.0466  0.0516
 8730W        W25578  17.838   3.322   2.747 -0.1271 -0.2374 -0.0054
 8731W        W25579  17.607   8.325  15.148  0.0044  0.0933  0.0749
 8732W        W25580  17.874   9.162  12.829  0.0441 -0.0269  0.1898
 8733W        W25581  10.515  11.817  15.325  0.0779 -0.1579 -0.1001
 8734W        W25582  15.415   2.836  14.035 -0.0966  0.1227 -0.0276
 8735W        W25583   4.633  10.077   2.788 -0.0528  0.1378 -0.0325
 8736W        W25584  10.414   6.987   1.838 -0.0111  0.0814 -0.0196
 8737W        W25585   0.907  16.314  12.664 -0.2423 -0.0578  0.3239
 8738W        W25586   5.825   1.561   2.341  0.0669  0.0619 -0.1733
 8739W        W25587   3.332  14.590  13.862 -0.0239 -0.4013 -0.3453
 8740W        W25588  16.465  12.076  15.640 -0.2636 -0.0082 -0.1168
 8741W        W25589   1.534   4.688   1.939 -0.2567  0.2218 -0.2424
 8742W        W25590   1.325  18.093   4.157 -0.0501  0.1986 -0.2998
 8743W        W25591   1.488  16.150  11.018  0.2884  0.0363  0.0242
 8744W        W25592  10.149   3.947  11.381 -0.1249 -0.1664 -0.0767
 8745W        W25593   3.836  14.460   5.742  0.1023  0.0429  0.1433
 8746W        W25594  14.139  15.426   1.993 -0.1128  0.2060  0.0395
 8747W        W25595  13.644   8.995  12.167  0.0819  0.0280  0.0689
 8748W        W25596   6.475   6.814  15.362  0.2981 -0.0641 -0.1115
 8749W        W25597  16.851  10.266   3.591  0.0909 -0.0790 -0.1442
 8750W        W25598   5.663  15.448  12.846  0.0344  0.1363  0.1614
 8751W        W25599  16.527   7.023   3.314 -0.0142 -0.1513 -0.0457
 8752W        W25600   7.467   6.585   4.283  0.3211 -0.1541 -0.1036
 8753W        W25601  13.324   1.452   1.789 -0.1209  0.1122  0.0545
 8754W        W25602  14.770   4.567  16.319  0.0426 -0.2440 -0.4086
 8755W        W25603  13.126   1.319   0.375 -0.1293 -0.0349  0.0101
 8756W        W25604   9.207  12.496  13.961  0.0033  0.1576  0.1733
 8757W        W25605  17.476  11.852   2.507  0.3198  0.0675  0.0279
 8758W        W25606  12.936   0.645   1.263  0.0239 -0.0444  0.2980
 8759W        W25607   2.159   4.665   0.313  0.0471  0.0902  0.0829
 8760W        W25608   4.593   1.567  11.156 -0.2390 -0.0704  0.0318
 8761W        W25609  13.047  10.986   3.018  0.0828  0.0179 -0.4374
 8762W        W25610   7.005   3.269   5.658  0.1180 -0.2052  0.0607
 8763W        W25611  15.946   3.106  12.537  0.2152 -0.0320  0.1409
 8764W        W25612   5.682   3.563  12.639 -0.0242  0.1787  0.3269
 8765W        W25613  12.902   1.990  14.428 -0.2520 -0.0011 -0.0346
 8766W        W25614   0.794   2.157  11.605  0.0511 -0.3987  0.0781
 8767W        W25615   5.874   4.987  13.185 -0.0930  0.1653  0.1355
 8768W        W25616   6.232   4.011   2.588 -0.0081  0.0407  0.0418
 8769W        W25617  14.589   9.509  11.919  0.1493 -0.3580  0.0444
 8770W        W25618   2.778   5.106  12.660  0.1644  0.0781 -0.0523
 8771W        W25619   5.083   1.240   3.460  0.0064 -0.0741  0.2663
 8772W        W25620  14.043  14.385  14.756 -0.0000  0.3472 -0.0502
 8773W        W25621   4.411   2.443   2.476 -0.1269 -0.0500  0.3871
 8774W        W25622  17.076  11.922   1.526 -0.1353 -0.1137 -0.2310
 8775W        W25623   6.817  11.227  14.562  0.1500  0.0812  0.2118
 8776W        W25624   9.967   8.466   0.914  0.1496  0.2234 -0.0507
 8777W        W25625   6.441   0.675  15.513  0.2796  0.1777 -0.0128
 8778W        W25626   5.612   4.410   3.005  0.0421 -0.1269 -0.0795
 8779W        W25627  14.172   4.648  12.779  0.1005 -0.1870 -0.2780
 8780W        W25628   9.865  10.819   1.824 -0.0523 -0.4041  0.3602
 8781W        W25629  14.852   7.927  14.630 -0.1909  0.0718 -0.1856
 8782W        W25630  12.141  13.394  16.090 -0.1805 -0.2543 -0.1293
 8783W        W25631  11.842   7.423  15.472  0.2130  0.1543 -0.0399
 8784W        W25632   3.304  10.653   2.506 -0.1203 -0.1163  0.4068
 8785W        W25633  18.072  11.831   3.633  0.2161 -0.2211  0.0838
 8786W        W25634   6.286   1.506   4.677  0.1139  0.0103  0.0187
 8787W        W25635  16.053   4.741   4.121 -0.0788 -0.1265  0.1018
 8788W        W25636   4.106   7.509  15.143 -0.1431  0.0621  0.1344
 8789W        W25637  14.234  16.719  12.572 -0.0963 -0.0648  0.1196
 8790W        W25638  15.487  17.541   5.676 -0.1778  0.2974  0.0205
 8791W        W25639  10.384   5.152  13.619  0.2896  0.1484  0.0043
 8792W        W25640   5.635   5.632   3.797  0.0659  0.2438 -0.0391
 8793W        W25641  11.223   3.619  15.470 -0.0178 -0.1625 -0.3271
 8794W        W25642   3.846   6.015   3.170  0.0182 -0.2087 -0.3064
 8795W        W25643   3.371   4.116   1.174  0.0836 -0.2664 -0.0257
 8796W        W25644  14.151  17.371   6.003  0.0752  0.1129 -0.2876
 8797W        W25645  11.858  11.529   1.782  0.0800 -0.3870 -0.0379
 8798W        W25646   3.411  15.999  11.312 -0.3367  0.0552 -0.1595
 8799W        W25647  12.542  17.170  15.376 -0.0913 -0.2974  0.0622
 8800W        W25648   6.845   2.439  15.975 -0.3550 -0.0086 -0.4247
 8801W        W25649   0.796   3.325   1.527  0.2477 -0.1122  0.2862
 8802W        W25650  11.938  15.009  13.777 -0.2274  0.2042 -0.0537
 8803W        W25651  10.471   9.100   2.546  0.2600  0.1134  0.1088
 8804W        W25652  17.087  14.615  12.168 -0.1163 -0.0801 -0.1716
 8805W        W25653  12.851   1.715  13.376 -0.0128 -0.1361 -0.3793
 8806W        W25654  14.172   0.925  13.625 -0.1062 -0.0485 -0.0910
 8807W        W25655  14.595   0.723  14.494  0.1450  0.1842  0.3142
 8808W        W25656  17.156  14.112   1.103  0.0412 -0.0999 -0.0625
 8809W        W25657   8.211   8.406  12.956 -0.1606  0.0884 -0.0289
 8810W        W25658   0.340   7.785   4.758  0.1933  0.0408  0.0293
 8811W        W25659   3.813   9.023  16.103  0.0879 -0.0028  0.0589
 8812W        W25660   6.873  16.369   1.619 -0.1033 -0.3264 -0.0989
 8813W        W25661  18.076  10.757  12.880  0.0788  0.1619 -0.2730
 8814W        W25662   6.730  12.498   5.323 -0.2327 -0.2631  0.0729
 8815W        W25663   7.293   3.231  11.264  0.0115  0.1198 -0.0161
 8816W        W25664   5.913   5.600   0.092 -0.1074  0.0192  0.2879
 8817W        W25665   1.551  14.791  12.283 -0.4100  0.0362  0.0112
 8818W        W25666   5.090   2.207   0.870 -0.2029 -0.0958  0.0267
 8819W        W25667   8.850  15.604   3.302 -0.2242 -0.1993 -0.0591
 8820W        W25668  10.235  12.859   3.139  0.0767  0.2394  0.2027
 8821W        W25669   0.607  11.789   2.390  0.1683  0.0366  0.2817
 8822W        W25670  14.987  10.012  13.234  0.1663 -0.4097 -0.1542
 8823W        W25671  18.057  14.948  11.086 -0.0359 -0.0784 -0.1820
 8824W        W25672   2.628  14.977  16.301  0.0254 -0.2447 -0.0727
 8825W        W25673   3.501   2.708  14.322 -0.1003 -0.0481 -0.1820
 8826W        W25674  17.338  11.360   2.436 -0.0319 -0.2794  0.0195
 8827W        W25675  13.066   3.083   4.974 -0.2285 -0.0556 -0.0681
 8828W        W25676   8.827  17.731  10.472 -0.1073 -0.0501 -0.0123
 8829W        W25677   6.024  12.614  14.136 -0.0024  0.2063 -0.0106
 8830W        W25678   6.559  11.489  13.725  0.0374  0.2097  0.1082
 8831W        W25679  11.827  11.889   1.457 -0.1645 -0.1716  0.1402
 8832W        W25680  10.754   7.502   4.550 -0.2932 -0.0626  0.3206
 8833W        W25681  15.993   5.971   4.093 -0.4937 -0.0661 -0.1538
 8834W        W25682  16.434   5.207   0.782 -0.3421  0.1762 -0.3057
 8835W        W25683   3.627   8.083  11.745  0.2359  0.0206  0.0103
 8836W        W25684   2.011  13.881  14.225 -0.0578  0.0414 -0.2775
 8837W        W25685  10.231   0.756  15.292  0.1695 -0.0527  0.0070
 8838W        W25686  17.863  13.486   1.453  0.1791  0.0208 -0.0290
 8839W        W25687  12.337   8.023   2.088 -0.1723  0.0263 -0.1613
 8840W        W25688   9.663   9.484  13.500 -0.3099 -0.0212 -0.2495
 8841W        W25689  16.063   2.941   3.216  0.0094 -0.0426  0.2520
 8842W        W25690  15.597   8.938   4.847  0.0847  0.2361 -0.1749
 8843W        W25691   3.512   1.567   3.741  0.3804 -0.3456 -0.0105
 8844W        W25692   3.174   2.708   2.360 -0.3735 -0.0410  0.1160
 8845W        W25693   2.192  12.915  13.998 -0.3093  0.2194 -0.2335
 8846W        W25694  13.950   2.852   3.962  0.0859 -0.0656  0.1787
 8847W        W25695   7.026   0.521  11.819 -0.0793  0.2247  0.0308
 8848W        W25696  13.314   2.771  11.018 -0.0644 -0.0194  0.0918
 8849W        W25697  17.380  14.216  12.058  0.2987 -0.1109 -0.0935
 8850W        W25698  11.675   9.412   2.111  0.1267 -0.0427  0.0112
 8851W        W25699   2.110  10.839   0.185  0.0539  0.0720 -0.0153
 8852W        W25700  13.686  11.667   4.416 -0.0669  0.2820  0.0328
 8853W        W25701   8.793  17.682  11.311 -0.1364 -0.1375 -0.2279
 8854W        W25702   4.437  11.413   0.417  0.0434 -0.4473  0.0554
 8855W        W25703   5.178  14.330  14.313 -0.1178  0.0049  0.0274
 8856W        W25704   7.134   8.283   1.046  0.0032  0.0820 -0.1406
 8857W        W25705  10.727  10.090  13.960  0.0747 -0.1346 -0.0077
 8858W        W25706  10.957   7.602   4.966 -0.3815 -0.3775 -0.3899
 8859W        W25707   1.883   3.880  11.417 -0.1159 -0.4317 -0.3150
 8860W        W25708   2.069   7.796  15.346  0.2816 -0.1022 -0.0739
 8861W        W25709   7.233   8.419  14.106  0.0564  0.1100  0.3431
 8862W        W25710   0.896   4.085   0.271 -0.1335  0.0933  0.0121
 8863W        W25711   8.479   0.269   2.587  0.3088 -0.1263  0.0481
 8864W        W25712   3.696   9.379  15.051  0.3696  0.0305  0.1446
 8865W        W25713  16.497   7.893   0.923 -0.1926  0.0895 -0.2259
 8866W        W25714   8.415  15.159  12.458 -0.0528  0.1683  0.1113
 8867W        W25715   3.139  16.273   2.021  0.0477 -0.2194  0.1452
 8868W        W25716  13.928  14.185  10.707  0.0491 -0.0987  0.1274
 8869W        W25717  17.165  17.947   3.695  0.0165  0.0011 -0.0930
 8870W        W25718  17.157  11.766   1.056  0.2627  0.2082 -0.0414
 8871W        W25719   3.360   4.389  16.127  0.3096  0.0995  0.0962
 8872W        W25720   2.970   9.976   4.801 -0.0671  0.0852 -0.2255
 8873W        W25721   9.517  10.333  15.541  0.0662 -0.3213  0.1227
 8874W        W25722  13.828   5.349   3.103 -0.0598 -0.3329  0.2884
 8875W        W25723   8.212   0.980  11.111 -0.3027  0.3819 -0.0780
 8876W        W25724  15.425  16.387  15.299 -0.1715 -0.0705 -0.0711
 8877W        W25725  12.672   9.894  14.387 -0.0880 -0.2001  0.0468
 8878W        W25726   0.905  17.897   4.490 -0.0085  0.1802  0.3229
 8879W        W25727  16.132  17.464   5.313 -0.0928  0.4850 -0.0440
 8880W        W25728  12.587   4.131  13.163  0.0284  0.2048 -0.2852
 8881W        W25729   6.366   3.399   1.732  0.0489 -0.1268  0.3162
 8882W        W25730  14.822  16.615   4.637  0.0799  0.0077  0.0841
 8883W        W25731   9.796  10.772  15.678 -0.0446  0.2359 -0.0995
 8884W        W25732  10.063  10.359  10.627 -0.1738 -0.1226 -0.0381
 8885W        W25733   4.923  14.948  13.509  0.3045 -0.0456  0.1925
 8886W        W25734   6.456   0.717   2.393 -0.1192  0.0559  0.0718
 8887W        W25735   5.615   1.499  13.728 -0.1487 -0.0851 -0.1863
 8888W        W25736  10.559   6.172  11.394 -0.1132 -0.0362 -0.3555
 8889W        W25737  16.256  17.145   1.827  0.3694  0.1533 -0.0062
 8890W        W25738   5.734   1.575   5.430  0.1196 -0.1818 -0.2607
 8891W        W25739   8.962   3.760   0.625 -0.1726 -0.0287  0.4372
 8892W        W25740   7.940   6.835   5.385  0.1689  0.1996  0.2115
 8893W        W25741   2.446   2.229  12.032 -0.2282  0.0590 -0.2022
 8894W        W25742   2.878  11.771  16.324 -0.1072 -0.2948 -0.1166
 8895W        W25743  15.571  12.468  12.788  0.1340  0.0564  0.1559
 8896W        W25744   8.117   3.923  12.706  0.2145  0.1339  0.1256
 8897W        W25745  14.564   3.468  14.088  0.1464  0.3184  0.1981
 8898W        W25746   8.636  15.924   6.408  0.1059 -0.2465 -0.0712
 8899W        W25747  10.704   6.710   2.917 -0.0459 -0.2489 -0.1712
 8900W        W25748   4.608   5.874  15.960  0.1003 -0.1492 -0.1802
 8901W        W25749  15.045  16.135   3.995  0.0481 -0.2605 -0.0314
 8902W        W25750   4.380   7.926  15.006  0.2452 -0.0410  0.4026
 8903W        W25751  13.082  16.947  15.205  0.4032 -0.3363 -0.0976
 8904W        W25752  16.416   4.222   0.977 -0.0457  0.1240  0.3050
 8905W        W25753   3.996   9.601  15.468  0.0204 -0.1518  0.1379
 8906W        W25754   0.297   7.607  11.624 -0.0080 -0.0777  0.0401
 8907W        W25755   5.833  14.500   3.620  0.4680 -0.3056 -0.2313
 8908W        W25756   4.238  16.774   5.091 -0.2202 -0.2657  0.2933
 8909W        W25757  11.580   8.181   4.906 -0.0878  0.0707  0.1017
 8910W        W25758  16.627  17.146  14.188 -0.4252  0.3396  0.0258
 8911W        W25759  11.895   5.167  15.818  0.3628 -0.1079 -0.1128
 8912W        W25760  13.496   5.192   4.052  0.0835  0.1726 -0.2161
 8913W        W25761   5.111   3.306  15.543  0.3979  0.1396  0.1895
 8914W        W25762   4.041  11.494   2.313  0.2086  0.2382  0.0793
 8915W        W25763  18.021   3.661   0.313 -0.1554  0.3663 -0.2365
 8916W        W25764  11.387  13.270   0.187  0.2560  0.0295  0.0652
 8917W        W25765  12.026  12.846   4.023  0.1142  0.4630  0.3555
 8918W        W25766  16.890  10.087   4.880 -0.0122  0.3690 -0.0874
 8919W        W25767   2.365  15.349  12.935  0.0392  0.2506  0.0182
 8920W        W25768  13.865   9.408   3.845 -0.2187  0.3465  0.1651
 8921W        W25769  16.733  14.824   1.284 -0.3561 -0.1747  0.0453
 8922W        W25770   7.957  11.246   3.901  0.1663 -0.0614 -0.0969
 8923W        W25771   4.103   8.867  13.167  0.1386  0.1129 -0.0564
 8924W        W25772  10.535  10.066  10.512 -0.3605 -0.0611 -0.1340
 8925W        W25773   7.676   0.047   3.912 -0.0483  0.1614 -0.1908
 8926W        W25774  14.767   8.182  12.864 -0.1659 -0.1385 -0.2989
 8927W        W25775   2.186  14.018  12.330 -0.1164  0.3955  0.2185
 8928W        W25776  16.533  11.411   0.916  0.3097  0.2442 -0.0275
 8929W        W25777   4.391   6.822   3.460 -0.2012  0.1206  0.2814
 8930W        W25778  15.276   7.276   0.981 -0.2887  0.0754  0.3546
 8931W        W25779  10.171  15.428  15.195  0.0149 -0.3522 -0.2493
 8932W        W25780   3.000  12.544  14.425  0.2962  0.2671  0.0751
 8933W        W25781  11.519   7.356  15.093 -0.0164 -0.1229  0.2919
 8934W        W25782  15.502   6.581   4.518  0.0499 -0.0090 -0.4640
 8935W        W25783  10.727  16.529  13.279 -0.0782  0.0448 -0.3092
 8936W        W25784  17.467  13.954   0.756  0.0778 -0.2375 -0.3676
 8937W        W25785   2.635  15.865  14.152 -0.1882 -0.2501  0.2388
 8938W        W25786   0.445   9.092  13.683  0.1286  0.0153 -0.0763
 8939W        W25787  14.565  16.820   2.335 -0.0165 -0.3685  0.0261
 8940W        W25788   7.315  10.594   4.062  0.0916 -0.0030  0.1504
 8941W        W25789   1.863  16.263   0.364  0.0080 -0.3336  0.0506
 8942W        W25790   2.500  14.723   3.377  0.0668 -0.1123 -0.0387
 8943W        W25791  18.024   2.438  15.974  0.2088 -0.0529 -0.0782
 8944W        W25792   7.239   6.450   3.838  0.1428 -0.0833  0.1059
 8945W        W25793   2.816  14.458  12.694 -0.0245 -0.0865  0.0640
 8946W        W25794   0.859  14.369   1.725 -0.1541  0.2213 -0.2452
 8947W        W25795   8.384   3.253  13.123 -0.3477 -0.0233 -0.0393
 8948W        W25796   4.948   6.784   1.134  0.0660  0.3292  0.3797
 8949W        W25797   2.778   6.999  14.390  0.1960  0.0319  0.2149
 8950W        W25798   3.611   0.064   4.536  0.0499 -0.3649 -0.0704
 8951W        W25799  14.567  15.913   4.081  0.0697  0.1982 -0.2221
 8952W        W25800   2.355  13.641   3.324  0.0358  0.4517  0.1254
 8953W        W25801   9.615  10.410   3.478  0.3546 -0.2873  0.1023
 8954W        W25802   5.555  12.912  15.473 -0.1256  0.0733  0.1654
 8955W        W25803   0.765   7.803  11.999  0.1123 -0.1525 -0.2294
 8956W        W25804   0.543  17.454   4.624 -0.2177 -0.0825 -0.0067
 8957W        W25805  15.935  10.790  14.102  0.2801 -0.0980 -0.1853
 8958W        W25806  16.533   1.127  13.414  0.1152  0.1971 -0.1417
 8959W        W25807   9.114   3.856  14.745 -0.0740 -0.0448  0.2752
 8960W        W25808   4.801   1.787  15.768 -0.1859 -0.0763 -0.2507
 8961W        W25809  17.300  10.257   1.930 -0.4927 -0.0706 -0.1926
 8962W        W25810  17.224  15.105  15.805 -0.0691  0.2705 -0.5476
 8963W        W25811  13.563  17.676   0.942  0.0267  0.0328  0.1831
 8964W        W25812   1.770   4.629  10.850  0.3535  0.1964  0.1499
 8965W        W25813  16.814  11.119   4.899  0.3261  0.0172 -0.2490
 8966W        W25814   3.843   5.870   0.594 -0.0379  0.1657 -0.4608
 8967W        W25815   0.949   8.908  15.428  0.5234  0.3675  0.2471
 8968W        W25816  13.893   7.391  14.033  0.0184 -0.1535 -0.1938
 8969W        W25817  12.142   7.324  12.679 -0.0787  0.2357 -0.3502
 8970W        W25818   7.025   3.798   3.133 -0.3507 -0.1668 -0.0892
 8971W        W25819   7.114   7.837  15.002 -0.0862  0.1773  0.0940
 8972W        W25820   3.820  12.569  14.541 -0.1244 -0.1184  0.1609
 8973W        W25821   2.638  17.089   1.918 -0.0103 -0.1519  0.0761
 8974W        W25822  17.186  16.094   3.042 -0.1700  0.1816 -0.0104
 8975W        W25823   2.494   8.090  15.527  0.0219  0.0145  0.0159
 8976W        W25824  10.312   3.869  15.582  0.1790 -0.1779 -0.0056
 8977W        W25825   1.780   0.763   4.861 -0.0310  0.2986 -0.0849
 8978W        W25826   1.222   7.843  15.657 -0.0617  0.1219  0.0084
 8979W        W25827  17.606   8.119  15.941 -0.1932 -0.1842 -0.1537
 8980W        W25828  11.123  17.157   1.450 -0.1735 -0.0611  0.1172
 8981W        W25829   5.297  16.803  12.053  0.0193 -0.1038 -0.0073
 8982W        W25830   0.025   5.552  14.413  0.2396 -0.0550 -0.1664
 8983W        W25831   0.398  15.031   1.202 -0.0520 -0.3329  0.1160
 8984W        W25832   5.907   4.551  11.697 -0.0826 -0.1860  0.0968
 8985W        W25833  10.709   4.070   5.076  0.3561 -0.3978 -0.0984
 8986W        W25834   2.331  10.158  12.703 -0.0834  0.0772  0.1287
 8987W        W25835   4.448   8.997   1.368 -0.1897  0.3077  0.0040
 8988W        W25836  16.080  16.877   4.655  0.0333 -0.1699 -0.4176
 8989W        W25837   9.445  15.527  15.714  0.3357  0.0348 -0.0693
 8990W        W25838   7.533   4.537   2.395 -0.3767  0.0483  0.0983
 8991W        W25839   6.592   0.539  13.643 -0.0163  0.0634 -0.2932
 8992W        W25840   9.803   1.583  14.993  0.0166  0.1831  0.0217
 8993W        W25841   4.265  11.139   3.546  0.0505 -0.3680  0.2820
 8994W        W25842   5.651  11.923   0.135  0.2001  0.2040 -0.0767
 8995W        W25843   8.169   0.003   4.074 -0.2429  0.3036 -0.2961
 8996W        W25844  13.417  15.159   3.284 -0.0387  0.2219 -0.1032
 8997W        W25845   9.061  15.900   2.272 -0.1223 -0.4692 -0.2554
 8998W        W25846   7.624   4.260   2.787  0.1528 -0.0592  0.1163
 8999W        W25847  11.574  16.943  14.991 -0.1013  0.0071 -0.1239
 9000W        W25848  10.280  16.476   2.815 -0.0713 -0.1490 -0.4619
 9001W        W25849  12.325  17.837  15.834 -0.0983 -0.1732  0.1266
 9002W        W25850  17.662   8.529  15.705  0.4109  0.2367 -0.2740
 9003W        W25851  14.556   7.359  13.083  0.0088 -0.1930  0.1591
 9004W        W25852  14.651  15.201  13.733  0.0526  0.1032  0.1065
 9005W        W25853   6.514  11.382   0.376  0.1003  0.3009  0.1448
 9006W        W25854   6.823   7.178  14.453  0.0731  0.0384  0.2882
 9007W        W25855  14.906   0.560   4.985 -0.1167 -0.0652  0.0765
 9008W        W25856  12.557   9.816  14.899 -0.1936  0.0587 -0.1246
 9009W        W25857   7.583   3.520   1.257  0.1339  0.2191  0.0454
 9010W        W25858   3.218   4.188   3.818  0.1777  0.2401 -0.0722
 9011W        W25859   6.032  12.209  14.945 -0.0177 -0.2551  0.1719
 9012W        W25860   5.341   1.865   2.332 -0.1847 -0.1852 -0.2929
 9013W        W25861  15.068   5.819   1.449 -0.4472  0.0876  0.0844
 9014W        W25862  15.918  15.180  14.014 -0.1175  0.0107 -0.1335
 9015W        W25863  14.893  15.691   3.806 -0.1714 -0.0852 -0.1546
 9016W        W25864   6.636   5.521   4.474 -0.0504 -0.3960  0.2252
 9017W        W25865  13.918  12.756   1.535  0.0986 -0.2827  0.2235
 9018W        W25866   5.337  17.869   4.815  0.0173  0.1852  0.2078
 9019W        W25867   5.624   4.610  13.414  0.1793 -0.2331  0.0656
 9020W        W25868   6.007  11.721  14.248  0.1932  0.1375  0.2239
 9021W        W25869  15.410   2.292  11.492 -0.0021  0.0111 -0.0092
 9022W        W25870  16.379  12.412   4.522  0.0693  0.2347 -0.1839
 9023W        W25871  10.795  16.450  13.816 -0.0227 -0.2530  0.1313
 9024W        W25872  14.606   8.848  14.169 -0.0325 -0.1864 -0.1192
 9025W        W25873   6.747   0.395  15.217  0.2138 -0.0211 -0.2224
 9026W        W25874   0.041  15.137   0.505 -0.0990 -0.1567 -0.0765
 9027W        W25875   5.566   4.332  11.990 -0.0246 -0.1310 -0.2176
 9028W        W25876   2.218   8.890   1.096 -0.0470  0.2471  0.0013
 9029W        W25877  12.805   8.917  11.443 -0.1238 -0.2688  0.2369
 9030W        W25878   1.806   5.808   0.724 -0.0844  0.1336  0.1277
 9031W        W25879   1.117  14.003   5.258 -0.0667 -0.1107 -0.2685
 9032W        W25880   9.182  16.831  15.037 -0.0550  0.0877 -0.2016
 9033W        W25881   5.440   1.073  14.474 -0.1197  0.2530 -0.1896
 9034W        W25882   6.882  12.026   3.609  0.3297  0.1575  0.0629
 9035W        W25883  16.367   4.707   4.512 -0.0972 -0.0615  0.0153
 9036W        W25884  10.099  17.426   2.906  0.1501  0.0005 -0.1011
 9037W        W25885   2.481   5.017  13.094  0.2510  0.5037  0.2475
 9038W        W25886   9.120  14.897   2.206  0.0938  0.2219 -0.2365
 9039W        W25887   6.095  10.439   0.942  0.3881  0.0645  0.0939
 9040W        W25888  17.398   0.826  13.810 -0.0054  0.1822 -0.0972
 9041W        W25889   4.949   0.164   1.033  0.0051 -0.1790  0.1347
 9042W        W25890  15.893  10.070   3.286 -0.1064  0.1583  0.0365
 9043W        W25891   2.978   8.810   2.948 -0.5251  0.2737  0.2853
 9044W        W25892  12.534  17.310   4.240  0.1533  0.1944  0.3978
 9045W        W25893  15.866   1.310   1.793  0.1501  0.0008  0.1521
 9046W        W25894  16.005   7.457  15.652 -0.2974  0.1980 -0.1347
 9047W        W25895  11.704   9.805  11.964  0.1180 -0.1741  0.3291
 9048W        W25896   8.414  15.596   5.074 -0.2228  0.1109  0.0927
 9049W        W25897   2.931   9.988   1.221 -0.0726 -0.2419  0.3339
 9050W        W25898   4.980  12.006  15.185 -0.1565  0.0951  0.0091
 9051W        W25899   5.906   3.205  10.568 -0.2307  0.2092  0.1336
 9052W        W25900   1.142  14.136  16.273  0.1791 -0.1877 -0.1743
 9053W        W25901   7.161  13.755   3.128  0.0753 -0.1679 -0.1937
 9054W        W25902  15.547   1.442   2.350  0.2197  0.3359 -0.2729
 9055W        W25903  17.215   6.184  14.713 -0.3711  0.0762  0.1161
 9056W        W25904  15.338  14.855   1.058 -0.1858 -0.0288 -0.0728
 9057W        W25905  12.201  12.286  12.825  0.2372 -0.1536  0.1791
 9058W        W25906   9.659  16.657   3.031  0.0615 -0.0997  0.2217
 9059W        W25907  17.430   2.557   2.086 -0.1849  0.1096 -0.0544
 9060W        W25908   4.548  11.387  11.279  0.1371  0.4530  0.2071
 9061W        W25909  11.067   4.718   2.905 -0.2977 -0.0921 -0.2266
 9062W        W25910  13.073   9.137  14.473  0.2070 -0.2802 -0.2658
 9063W        W25911  17.821   0.011  13.237  0.3078  0.2511 -0.3749
 9064W        W25912   8.325   8.852  15.416  0.0475  0.1681 -0.0498
 9065W        W25913   1.024   8.085   2.282 -0.0041  0.2603  0.0817
 9066W        W25914   5.762  15.870  15.722 -0.1562  0.0032 -0.1860
 9067W        W25915  13.980  16.801   2.610  0.0657 -0.4065 -0.1193
 9068W        W25916  12.521   2.384   2.341 -0.2563  0.2225  0.1755
 9069W        W25917   6.666  11.092   3.111 -0.0034 -0.1721  0.0266
 9070W        W25918   8.229   3.440   5.318  0.0681  0.1865  0.0831
 9071W        W25919   5.885   7.668   3.102 -0.1035 -0.0032 -0.1018
 9072W        W25920   2.564  15.065  13.814  0.0059 -0.0495 -0.0118
 9073W        W25921  14.920  12.802  12.218  0.0952 -0.2594 -0.0338
 9074W        W25922   6.660   2.263  12.033 -0.0223 -0.0940  0.0713
 9075W        W25923   7.962  12.556  10.899  0.0276  0.2502  0.0415
 9076W        W25924  15.329   4.781   3.327 -0.1550 -0.0949 -0.2851
 9077W        W25925   8.065  13.903  15.026  0.1138  0.0629 -0.1672
 9078W        W25926   7.524  11.432  11.756  0.2300  0.1543  0.0005
 9079W        W25927  15.041  15.914   2.395  0.1768 -0.0176 -0.3609
 9080W        W25928  14.098  10.348  10.957 -0.1338 -0.1397 -0.1683
 9081W        W25929  10.642  16.282  11.544 -0.3177 -0.0332 -0.0616
 9082W        W25930  10.612   9.802  11.549 -0.3463 -0.1442 -0.3028
 9083W        W25931  10.872  17.585  13.851 -0.0540 -0.0654  0.0016
 9084W        W25932   8.684   3.106   6.037  0.0829 -0.2637  0.0484
 9085W        W25933  11.172   5.478   4.944  0.0059 -0.3164  0.2208
 9086W        W25934   6.086  11.134  11.952  0.3933 -0.1462 -0.3240
 9087W        W25935   2.482   6.782  14.972  0.0391 -0.1525  0.1979
 9088W        W25936   4.037   3.071   1.761 -0.2890 -0.2211  0.1395
 9089W        W25937   1.496  12.230   5.435 -0.3281  0.1651  0.3528
 9090W        W25938   5.816  16.645   2.582 -0.1154 -0.3471 -0.0030
 9091W        W25939   3.625  10.593   3.456  0.4192  0.0824 -0.0365
 9092W        W25940   1.367   2.465   4.751  0.0469  0.0855 -0.0079
 9093W        W25941   0.636  15.871  11.566 -0.0643  0.0575 -0.0194
 9094W        W25942   7.070  12.135  13.451  0.0341  0.0819  0.0348
 9095W        W25943  17.725   5.603   0.691 -0.0966 -0.3111 -0.0496
 9096W        W25944   0.002  15.328   1.366  0.2269 -0.0388  0.1018
 9097W        W25945  15.935  12.171   3.434  0.1485  0.1440  0.3615
 9098W        W25946  12.508  16.734  14.497  0.1792 -0.0608 -0.2515
 9099W        W25947   3.606   2.498  12.588 -0.1215 -0.3989 -0.3014
 9100W        W25948  14.774  10.060   0.449  0.0863  0.1291  0.2214
 9101W        W25949   5.811   6.012  13.387 -0.1006  0.1851 -0.1784
 9102W        W25950  15.144  13.912  13.795  0.2285  0.0971  0.4536
 9103W        W25951   5.546  10.295   1.339  0.6533  0.1564 -0.0935
 9104W        W25952   2.957   4.020  14.089  0.0188 -0.0652  0.1418
 9105W        W25953  10.271   4.386   5.188 -0.2178 -0.1215  0.0007
 9106W        W25954  10.322   1.479  11.830  0.1030  0.0843  0.0111
 9107W        W25955  12.555   4.182  12.611 -0.1123 -0.2681  0.2523
 9108W        W25956   2.472   7.417  16.231  0.1533  0.3543 -0.3632
 9109W        W25957   7.576   7.960  15.256  0.2159 -0.2150 -0.2802
 9110W        W25958  14.859   6.107  13.942  0.0572  0.2288 -0.0021
 9111W        W25959  15.432   0.270  11.197 -0.3075  0.0834  0.1908
 9112W        W25960   3.739  15.952  12.762 -0.0974 -0.2609  0.1122
 9113W        W25961   8.302  14.284  13.612  0.2623 -0.0209  0.1735
 9114W        W25962   3.914  16.829   2.201  0.3377 -0.2833  0.1437
 9115W        W25963  16.954  12.208   2.758  0.3731 -0.3386  0.4441
 9116W        W25964   1.101   8.229  15.207 -0.0845  0.0075  0.1259
 9117W        W25965   6.205   2.318  12.285 -0.0374 -0.0466 -0.3349
 9118W        W25966   9.000   9.625   3.190  0.1899 -0.1714  0.1199
 9119W        W25967   4.300   6.355  15.824 -0.1134 -0.1792 -0.2208
 9120W        W25968   1.924  13.646  13.325  0.1939  0.0836  0.2402
 9121W        W25969   9.836   6.034  12.161 -0.2259  0.1084  0.1705
 9122W        W25970   2.264   9.955  13.172  0.0690 -0.0483  0.1237
 9123W        W25971   6.474  17.985  11.935 -0.2557 -0.3495  0.1731
 9124W        W25972  17.307  16.559   2.473  0.0913  0.1275 -0.2042
 9125W        W25973   5.010   3.757  16.322 -0.0377 -0.5161  0.1016
 9126W        W25974  13.261   8.877   2.995  0.0795 -0.1351  0.2590
 9127W        W25975  12.928  12.074  16.090 -0.0420 -0.2261  0.5134
 9128W        W25976   6.825  12.158   2.237 -0.1444 -0.0387 -0.1439
 9129W        W25977   5.537   8.412   2.944  0.0378  0.0826  0.1850
 9130W        W25978   4.187  17.564  15.167  0.0929  0.2781 -0.4217
 9131W        W25979  14.389  18.031   3.205 -0.0975 -0.0049 -0.1420
 9132W        W25980   1.617  15.586   2.935  0.1931 -0.2170 -0.1738
 9133W        W25981   4.277   7.897  12.451 -0.0970  0.2979 -0.2274
 9134W        W25982  18.087   3.888  16.177 -0.0111  0.1497 -0.0480
 9135W        W25983  10.992  10.033  16.298 -0.0466  0.2530 -0.0582
 9136W        W25984   5.655  18.063   3.473  0.3247 -0.1126  0.2002
 9137W        W25985   6.009   9.167   1.111 -0.4286 -0.2494 -0.0443
 9138W        W25986  12.920  17.153  16.040  0.1751  0.4574 -0.1189
 9139W        W25987  16.104  15.283   2.577 -0.1287  0.0579 -0.1316
 9140W        W25988   0.786   6.568  12.477  0.1803 -0.0457  0.0242
 9141W        W25989  13.712   6.986   2.177  0.2843 -0.2505  0.0621
 9142W        W25990  12.971   8.121  11.257  0.2137 -0.0631 -0.0025
 9143W        W25991  12.262  10.819   1.211  0.1022  0.4279  0.0815
 9144W        W25992   7.434   1.897   0.064 -0.0467 -0.0288 -0.1468
 9145W        W25993   8.351   3.399  11.143  0.2140 -0.0610 -0.4038
 9146W        W25994   8.261  12.871  14.724  0.2701 -0.1253  0.4136
 9147W        W25995  12.591   8.531   6.247  0.1121  0.1868  0.1104
 9148W        W25996   7.146   3.702   4.313 -0.1178  0.0850 -0.1116
 9149W        W25997  16.802   6.315   1.501  0.0823  0.1664 -0.0897
 9150W        W25998   3.297  11.395  10.459 -0.4610  0.0058 -0.0861
 9151W        W25999   9.136   1.094   3.763 -0.1110  0.2791 -0.1728
 9152W        W26000  14.286   3.061  13.504  0.0122  0.3835 -0.0355
 9153W        W26001  13.784   2.716   3.169  0.0957  0.0234 -0.1532
 9154W        W26002   3.996  16.034   4.599  0.2930 -0.2278  0.0453
 9155W        W26003   3.027   0.782  11.352  0.0750 -0.0184  0.1871
 9156W        W26004  16.806   3.453  14.943 -0.0564  0.0133 -0.2808
 9157W        W26005  13.050   4.326   4.117  0.2746  0.2193 -0.0308
 9158W        W26006   3.827   3.302  13.072  0.1483  0.0160 -0.0295
 9159W        W26007   3.609   6.776  11.072  0.0134  0.0830 -0.1104
 9160W        W26008  18.067  12.014   0.624  0.2780 -0.1696 -0.3494
 9161W        W26009   5.440   1.987   0.537  0.1865 -0.0523 -0.2116
 9162W        W26010  11.545   6.941   0.948  0.0396 -0.0888  0.2411
 9163W        W26011  10.951   4.767   0.692 -0.1539 -0.0528 -0.4735
 9164W        W26012   8.964  11.462  14.632 -0.0115  0.1449  0.1715
 9165W        W26013   8.845   6.504   3.772 -0.0122  0.1640 -0.1138
 9166W        W26014   6.092   3.198  15.226  0.1427 -0.0052  0.1507
 9167W        W26015  10.440  15.288  14.772 -0.5816 -0.2153 -0.3720
 9168W        W26016   4.073   0.769   0.223 -0.0669 -0.1511  0.1155
 9169W        W26017   1.335   8.482   1.035 -0.0011  0.2018 -0.2341
 9170W        W26018  11.179  13.456  13.276  0.3363  0.1534  0.1803
 9171W        W26019  13.588  12.452   3.094  0.1034  0.1855  0.5111
 9172W        W26020   4.073   0.089  13.620  0.0226 -0.1463  0.3611
 9173W        W26021  13.104  15.320  12.500 -0.2445 -0.3341 -0.1105
 9174W        W26022  11.887   8.336   0.219  0.2784  0.0926  0.2955
 9175W        W26023  12.758   2.978  10.898  0.1434 -0.2035  0.1732
 9176W        W26024   4.209   5.190   3.137 -0.1472  0.2681  0.2120
 9177W        W26025   1.626   2.993   0.749 -0.2788  0.1814  0.1241
 9178W        W26026  13.863   4.000  13.915  0.1236  0.1568  0.0998
 9179W        W26027  10.796   4.642  10.463 -0.0237  0.0989  0.0467
 9180W        W26028   9.001  14.912  11.911  0.0993 -0.2426  0.1390
 9181W        W26029   1.133   4.688   0.286  0.2205  0.2619  0.1150
 9182W        W26030  10.235  14.704  12.881  0.1014 -0.0434 -0.0462
 9183W        W26031   0.164   3.142   3.134  0.0965  0.0149  0.5114
 9184W        W26032   5.845  11.829  12.568 -0.1755  0.2255  0.0652
 9185W        W26033   5.361   8.791  12.476 -0.1344  0.0845 -0.1573
 9186W        W26034   2.273  13.410  14.190 -0.0508 -0.1092  0.2313
 9187W        W26035  17.827   6.753  16.149 -0.0284 -0.1149  0.2495
 9188W        W26036   8.778   1.796  15.407  0.0797  0.0140  0.0148
 9189W        W26037  15.864   7.002  15.814  0.0992  0.3813 -0.0676
 9190W        W26038   9.146   8.233  14.615  0.0235  0.0286 -0.0067
 9191W        W26039   6.899   8.940   3.743 -0.1275  0.0151  0.2410
 9192W        W26040  16.625  15.491  12.100 -0.3271  0.1557 -0.1579
 9193W        W26041   2.954   5.906  11.398  0.0547 -0.0714 -0.2192
 9194W        W26042  10.418   3.097  14.436 -0.0654  0.1187 -0.4736
 9195W        W26043   8.657  11.588  14.202  0.0180  0.1345  0.3323
 9196W        W26044   3.275   2.007   2.466 -0.0414  0.1591  0.1428
 9197W        W26045  15.176  13.150  11.858 -0.0180 -0.0855  0.0348
 9198W        W26046  13.150  10.215   0.650  0.3743 -0.0325  0.0253
 9199W        W26047  11.929   0.293   5.444 -0.0437  0.4852 -0.0572
 9200W        W26048  12.296   5.504  13.826  0.0391 -0.0998  0.1591
 9201W        W26049  13.882   8.579  14.975  0.4476 -0.0280 -0.0114
 9202W        W26050   4.620   2.526  11.551  0.3000  0.1993  0.0573
 9203W        W26051  13.696   9.302   1.531  0.2156 -0.1228 -0.1452
 9204W        W26052   8.691  14.653   3.109 -0.2263  0.0723 -0.0539
 9205W        W26053   0.278  15.612  12.483 -0.1879  0.1614 -0.0425
 9206W        W26054   8.070   4.400   1.014  0.2249  0.1752 -0.2016
 9207W        W26055   4.087  10.344   4.101 -0.0841  0.1037  0.0438
 9208W        W26056   9.184   1.570  15.714 -0.0596 -0.0846  0.0160
 9209W        W26057  14.969  15.337  15.798 -0.0079  0.0673  0.0403
 9210W        W26058   6.476  13.483   3.811  0.0578 -0.2259  0.0872
 9211W        W26059   2.709  14.562  15.993 -0.1656 -0.0647 -0.0274
 9212W        W26060   4.376   4.726  14.457  0.2380  0.1568 -0.2430
 9213W        W26061   2.496  10.506   2.534  0.0472  0.0543  0.1015
 9214W        W26062   3.822   9.459   4.366  0.0625  0.0414  0.2587
 9215W        W26063   9.939   2.082   1.694  0.2362 -0.1339 -0.1730
 9216W        W26064  10.139   6.079  11.759 -0.3923  0.1389  0.2476
 9217W        W26065   6.472  16.981   2.984  0.3227  0.4891  0.0121
 9218W        W26066   6.111  17.448   1.341 -0.0174 -0.0435  0.1593
 9219W        W26067   4.618  17.624   5.544 -0.3849  0.1169 -0.1460
 9220W        W26068   9.810  17.687  12.300  0.0228 -0.0100  0.1671
 9221W        W26069  17.834   4.287   0.945 -0.0240  0.1987 -0.1788
 9222W        W26070   6.997   8.507  14.905 -0.0877 -0.3357 -0.1275
 9223W        W26071  17.225   0.077  15.382  0.3242 -0.1615 -0.1415
 9224W        W26072   0.881  12.535  10.268  0.0719 -0.1025  0.1857
 9225W        W26073   2.339   2.623   1.204 -0.1705  0.0163 -0.4095
 9226W        W26074  12.294  10.264   4.036  0.0936 -0.0782 -0.0795
 9227W        W26075   5.243   1.611   4.468  0.0371 -0.0602 -0.0929
 9228W        W26076  17.789   3.282  13.994  0.0016 -0.0402 -0.2966
 9229W        W26077   7.067   6.548  11.231 -0.0675  0.1474 -0.1099
 9230W        W26078   0.338   4.354   1.115  0.2018 -0.0346  0.1240
 9231W        W26079  14.349  13.173   4.483  0.0879  0.1887  0.1562
 9232W        W26080   9.936   1.191   1.648 -0.2798  0.2615 -0.2785
 9233W        W26081  13.523   5.869  13.157 -0.3033  0.0111  0.0163
 9234W        W26082   3.088  16.644  15.483 -0.0786  0.3793 -0.1177
 9235W        W26083  11.186  10.484  12.632  0.4862  0.2533 -0.3053
 9236W        W26084   0.053  16.092  13.778 -0.0089 -0.0736  0.3756
 9237W        W26085   1.752  10.791  13.070  0.0023 -0.0103 -0.1820
 9238W        W26086   7.291   3.900  12.061  0.0754  0.1339 -0.0851
 9239W        W26087   9.333   1.480  11.346  0.2731 -0.0250  0.0461
 9240W        W26088   6.295  13.983  11.600 -0.1286 -0.1725  0.2033
 9241W        W26089  11.224   5.620  15.066 -0.1335  0.0636  0.0555
 9242W        W26090   1.577   1.938   1.394 -0.2518  0.3921  0.0634
 9243W        W26091   9.519  15.988  15.540 -0.2439 -0.0741 -0.0301
 9244W        W26092   9.892   1.589   3.531 -0.1264  0.0981 -0.1554
 9245W        W26093   0.416  14.980   5.275  0.4033 -0.0512 -0.1508
 9246W        W26094   7.037   7.795  11.439 -0.2959  0.1524  0.1322
 9247W        W26095  10.627  17.005  13.426 -0.0589  0.1130 -0.1089
 9248W        W26096  16.283   9.578   0.827  0.2647  0.1704 -0.0040
 9249W        W26097  12.544  13.734  11.603  0.0104  0.0590  0.0844
 9250W        W26098   8.284   4.997   3.816  0.3688 -0.1381 -0.4618
 9251W        W26099  10.053  10.153  14.171  0.3220 -0.0300 -0.0730
 9252W        W26100   5.924  17.595   2.844 -0.0314 -0.0958 -0.0326
 9253W        W26101  13.652   9.647  13.478  0.1017  0.1645 -0.2379
 9254W        W26102  12.881   9.716   2.238  0.1719  0.4960 -0.1256
 9255W        W26103  11.223  14.485   5.116  0.1331  0.1370 -0.2017
 9256W        W26104   1.892   9.218  12.181  0.0450 -0.3021  0.0885
 9257W        W26105   2.115  16.887  11.165  0.0909  0.1648 -0.2026
 9258W        W26106   3.403  14.414   3.752 -0.0137 -0.0761  0.4380
 9259W        W26107   2.541   8.317  15.064 -0.1706 -0.0015 -0.0873
 9260W        W26108   1.597  14.895   4.592 -0.1921  0.0055 -0.0086
 9261W        W26109  12.660  15.243   2.587 -0.0620  0.1354  0.2003
 9262W        W26110   3.874   9.704   3.270 -0.1138 -0.3257  0.1701
 9263W        W26111   3.298   8.753   4.606  0.2101 -0.2066  0.1711
 9264W        W26112  15.231   3.121  13.013  0.2460  0.0599 -0.4584
 9265W        W26113   6.160  16.989   0.124  0.4013 -0.1046  0.1599
 9266W        W26114  14.243   5.638   1.158 -0.1571  0.3125  0.0906
 9267W        W26115  14.480   9.516  16.133  0.3348 -0.2097 -0.0591
 9268W        W26116  15.340  10.463  15.520  0.0938  0.3630 -0.1284
 9269W        W26117   4.606  12.617   0.191 -0.2455 -0.1450 -0.5811
 9270W        W26118   9.806   5.489  14.827 -0.0211  0.0473 -0.0847
 9271W        W26119   5.628  10.893  12.068 -0.0117  0.0371 -0.2467
 9272W        W26120   0.046   0.406   0.741 -0.0004  0.0465 -0.1417
 9273W        W26121   1.043  13.055  16.080  0.0687  0.0218 -0.2715
 9274W        W26122   0.920  10.655  12.851 -0.1836 -0.3665  0.1242
 9275W        W26123   9.548  16.115   4.642  0.1080  0.0004  0.3228
 9276W        W26124   4.671   3.883  15.985  0.2777  0.0409  0.3695
 9277W        W26125   4.252   3.552   2.588 -0.1907  0.0886  0.1562
 9278W        W26126  16.340  10.728   5.267 -0.1013 -0.1555  0.2849
 9279W        W26127   1.992  10.102  12.305  0.3186 -0.2120  0.0726
 9280W        W26128  11.177  16.713   3.852  0.1412  0.2454  0.4692
 9281W        W26129   1.700   9.168   3.893  0.1593  0.0491 -0.1428
 9282W        W26130  16.804  13.715   0.328 -0.0062  0.1073 -0.0178
 9283W        W26131  17.191   8.127  13.489 -0.1039 -0.1696 -0.1864
 9284W        W26132  17.120  14.568  15.363 -0.2488 -0.2501  0.1987
 9285W        W26133  15.206  12.574   1.825 -0.0240 -0.2651 -0.0876
 9286W        W26134  11.395  10.569  15.043  0.0894  0.0227  0.0857
 9287W        W26135  14.607   2.504  11.746 -0.1223  0.2065 -0.1110
 9288W        W26136   6.734   3.499   6.023  0.0476  0.2337 -0.1140
 9289W        W26137   8.968   6.790  13.020 -0.0086  0.0136  0.0261
 9290W        W26138  15.425   6.785   1.239  0.1986 -0.0883  0.1535
 9291W        W26139   3.034   3.048  13.064 -0.0520 -0.0913 -0.1307
 9292W        W26140  15.852  11.073  13.700 -0.3146  0.2938 -0.0512
 9293W        W26141  12.260   3.166  14.406  0.0601  0.0507  0.2189
 9294W        W26142   7.046  13.574   1.447  0.0556 -0.1608 -0.1691
 9295W        W26143   4.978   7.253   1.798  0.0987  0.1846  0.1927
 9296W        W26144   3.945  14.260   3.060  0.0707  0.1516  0.0476
 9297W        W26145   8.821  14.921  14.774 -0.1282 -0.1369 -0.2504
 9298W        W26146  15.808  15.896  15.837 -0.0341  0.0914 -0.1241
 9299W        W26147   4.851   5.818  14.959 -0.0343 -0.0012 -0.0280
 9300W        W26148  17.788   9.114   5.080 -0.0245  0.0124  0.0881
 9301W        W26149   8.754  17.649  13.674  0.1555  0.0260 -0.0645
 9302W        W26150   7.907  18.089   1.301 -0.2265 -0.0050  0.2386
 9303W        W26151  13.247  10.544  13.142  0.2514  0.0035  0.0296
 9304W        W26152  12.487  10.571   5.260 -0.0592 -0.2537 -0.0599
 9305W        W26153  17.718   2.761   0.503 -0.0526 -0.0919 -0.3159
 9306W        W26154   9.644   3.175   5.348 -0.3023  0.2159 -0.2884
 9307W        W26155   6.328   0.067  10.537 -0.2713 -0.6165 -0.0020
 9308W        W26156  11.913  10.137   3.151 -0.1062  0.1893  0.0435
 9309W        W26157   0.501   5.392   2.649  0.2886 -0.1040  0.1486
 9310W        W26158  13.214   1.735   0.049 -0.0016 -0.1954  0.0040
 9311W        W26159  14.118   2.963   1.293 -0.1118 -0.0182  0.1891
 9312W        W26160  16.074  11.541   0.017  0.2345 -0.0828 -0.1214
 9313W        W26161  10.080   4.543  16.221 -0.1125 -0.0004  0.0415
 9314W        W26162   4.912   2.444  11.952  0.1457  0.1259 -0.0834
 9315W        W26163  17.811   7.016   4.285 -0.0349 -0.0324  0.1140
 9316W        W26164   0.959  13.843   3.705 -0.2727  0.0140  0.0191
 9317W        W26165   5.060   9.368   4.460 -0.3559 -0.1191  0.1638
 9318W        W26166  13.515   3.237   0.400  0.0683 -0.1604 -0.3059
 9319W        W26167   5.023  16.038   3.782 -0.0704  0.0675  0.1155
 9320W        W26168   0.444  15.561  14.475  0.0672  0.0518  0.0379
 9321W        W26169  13.611  13.859  12.066 -0.3387 -0.2652 -0.0455
 9322W        W26170   0.531   9.881  15.200 -0.1982 -0.2935 -0.0071
 9323W        W26171  15.556  16.012   2.368  0.0266  0.1322  0.2843
 9324W        W26172   4.552  16.610  13.229 -0.1236 -0.3894  0.0524
 9325W        W26173  13.248   7.801   0.666 -0.0708  0.4250 -0.1870
 9326W        W26174  16.498   9.451   4.729 -0.0628  0.1961 -0.1359
 9327W        W26175   5.092  17.144  11.683  0.0155 -0.2984 -0.1723
 9328W        W26176   3.254  13.557   3.301  0.1057 -0.2312 -0.0068
 9329W        W26177   7.416  12.263  14.272 -0.1984 -0.2034  0.1899
 9330W        W26178  13.117  16.729  11.181  0.0862 -0.0832  0.2438
 9331W        W26179   9.622  10.797  12.502  0.1159 -0.2108  0.0206
 9332W        W26180   3.906  12.064   0.605  0.0523  0.3825  0.0581
 9333W        W26181   1.782   0.469   1.510  0.1055  0.2305  0.1153
 9334W        W26182   7.304  17.386  14.850  0.1379 -0.1493  0.0655
 9335W        W26183  11.211   7.336   3.374  0.1161 -0.0603 -0.0117
 9336W        W26184  12.705   8.412   4.150  0.0354  0.0900  0.0215
 9337W        W26185   8.917  17.759  16.111  0.1924  0.3233 -0.3209
 9338W        W26186   4.787   2.077  13.757  0.2384 -0.3022  0.3599
 9339W        W26187   7.710   5.317  15.247 -0.1249  0.0472 -0.2504
 9340W        W26188   0.029  17.357  14.858  0.1856 -0.0474 -0.1036
 9341W        W26189   7.117  16.929  16.258 -0.2038  0.3672 -0.1916
 9342W        W26190  10.753   9.375  14.281 -0.1299  0.0537 -0.0061
 9343W        W26191   6.364   0.155  12.459  0.2568  0.0679 -0.0580
 9344W        W26192  11.185  10.731   4.904 -0.3244 -0.1097 -0.2777
 9345W        W26193   0.864   0.737   1.801 -0.2972  0.0024 -0.0645
 9346W        W26194  17.106   2.428  15.258  0.1874 -0.2389  0.1747
 9347W        W26195   2.922   1.904   2.808 -0.2138  0.0078 -0.1179
 9348W        W26196  11.192   4.554  16.089  0.0878 -0.0470  0.2790
 9349W        W26197  16.323   8.637   4.138  0.1010 -0.0032 -0.1928
 9350W        W26198  10.846   9.342  10.443 -0.2871  0.1589 -0.0933
 9351W        W26199  14.625  13.532   4.826  0.3742  0.0640  0.0948
 9352W        W26200   5.351  14.477   3.733  0.1000 -0.0423 -0.0781
 9353W        W26201  11.684  12.471   3.953  0.0526  0.1149 -0.3869
 9354W        W26202   3.488  17.951   4.083  0.1657  0.1437 -0.1267
 9355W        W26203  10.626  11.846   3.506  0.2102 -0.3410  0.3155
 9356W        W26204   0.204   7.658   4.191 -0.1656 -0.1869 -0.2005
 9357W        W26205  15.494   8.277   2.879  0.1185  0.1321  0.1128
 9358W        W26206  15.031   6.304   5.422  0.1307 -0.1377  0.2846
 9359W        W26207   3.010   4.058   4.429  0.0268  0.1894  0.1312
 9360W        W26208  16.473  13.320  15.900 -0.1368  0.2331 -0.2008
 9361W        W26209  14.337   5.240  13.803  0.0238 -0.4035  0.1741
 9362W        W26210  11.098   9.715  15.250 -0.2556 -0.4202  0.0213
 9363W        W26211  17.444  10.515  14.775  0.2007  0.2136  0.0321
 9364W        W26212  10.015  12.212   3.622  0.1333 -0.1026 -0.1944
 9365W        W26213   9.044   9.863  15.909  0.0477  0.0197 -0.0867
 9366W        W26214  13.779   2.345   1.944  0.1287 -0.1251 -0.2739
 9367W        W26215   2.162   9.859   0.461 -0.0678 -0.0230  0.0107
 9368W        W26216   4.549  15.700  15.335 -0.2913  0.0305  0.0348
 9369W        W26217   1.205   3.120  11.603 -0.2807 -0.1412  0.0273
 9370W        W26218   1.756   4.451   4.648 -0.0882  0.0685  0.1121
 9371W        W26219  16.574  11.207   5.832 -0.1745 -0.1317  0.1887
 9372W        W26220  10.765  17.960  13.020 -0.1829  0.1476  0.4766
 9373W        W26221   8.963   8.735  16.308  0.2647 -0.1151 -0.1324
 9374W        W26222  13.412   7.254  13.098  0.0228 -0.1090  0.0363
 9375W        W26223   2.625   0.857   2.064  0.0584  0.0925 -0.0050
 9376W        W26224  13.180   6.098   4.695  0.2350 -0.0244 -0.0952
 9377W        W26225   7.170   6.169  13.890  0.0803 -0.1235  0.0457
 9378W        W26226   6.707   5.423  14.621 -0.0795 -0.2991  0.4745
 9379W        W26227   0.672  12.230   3.114 -0.4345  0.2723 -0.0853
 9380W        W26228   0.595  17.395  15.918  0.2881  0.2955 -0.1828
 9381W        W26229  10.268   4.645   2.486  0.1346 -0.0357  0.0408
 9382W        W26230   6.336  10.107  14.649  0.2306 -0.0384 -0.0093
 9383W        W26231  14.220   1.314   4.757 -0.3445  0.1070  0.0674
 9384W        W26232   0.153   3.566   2.426 -0.2057  0.0776  0.1092
 9385W        W26233  14.420  13.690  12.864  0.1605  0.2287  0.0132
 9386W        W26234  12.498   9.048  16.289  0.4666  0.1582  0.2367
 9387W        W26235  14.411   4.371   5.459  0.1531 -0.0319  0.0663
 9388W        W26236   9.273   1.719  15.141 -0.2428  0.2431  0.1034
 9389W        W26237  14.372  12.096   2.001 -0.1549 -0.0912  0.1510
 9390W        W26238   0.986   5.520   1.869 -0.2004 -0.1739 -0.0331
 9391W        W26239  16.856  11.274   0.376  0.1988  0.1403 -0.2275
 9392W        W26240   8.047   5.309   3.473 -0.2069  0.1115  0.0801
 9393W        W26241  16.742   6.762   5.123 -0.1973  0.0841 -0.2895
 9394W        W26242   7.352   3.998   3.766 -0.0183 -0.3113 -0.0626
 9395W        W26243   4.831   0.138  15.574 -0.1493 -0.2164  0.1335
 9396W        W26244  17.011   8.823  14.946  0.0285  0.0447 -0.0501
 9397W        W26245  12.081   3.598  14.081 -0.2960 -0.2103 -0.0997
 9398W        W26246  15.351   5.959  14.118  0.0721 -0.1862  0.3330
 9399W        W26247   9.013   3.467   1.982  0.2911 -0.2961  0.2327
 9400W        W26248   2.602  16.755  16.266  0.0461 -0.3395 -0.1481
 9401W        W26249   6.394  16.049  13.465 -0.0751 -0.3304 -0.0297
 9402W        W26250   6.201  18.095   3.569  0.0410  0.1163 -0.2255
 9403W        W26251   6.649  13.079   3.434 -0.1833 -0.1043 -0.2263
 9404W        W26252  17.089  11.543  15.010  0.1978 -0.0399  0.2158
 9405W        W26253   5.874   6.196  15.510 -0.1473  0.5380 -0.4690
 9406W        W26254  13.329   4.545  16.183  0.2205  0.1781  0.2585
 9407W        W26255  14.127  13.266  12.026  0.1908 -0.0695  0.1959
 9408W        W26256   5.421  13.780   0.112  0.0037  0.0564  0.1264
 9409W        W26257   3.158   9.273   0.510  0.3719  0.1848 -0.1787
 9410W        W26258  17.566  10.385   1.439 -0.0014  0.2215  0.1686
 9411W        W26259   5.458  17.223  12.912 -0.2374  0.1115 -0.0770
 9412W        W26260  10.869  13.482   5.627 -0.1521  0.2371  0.1787
 9413W        W26261  16.221  16.375  11.364  0.2966  0.1516 -0.1604
 9414W        W26262   6.476   7.978  13.411  0.0254  0.3583  0.1097
 9415W        W26263   3.766   0.222  14.580 -0.0955  0.0807 -0.1660
 9416W        W26264   9.753   8.689  11.658 -0.2537 -0.1765  0.3951
 9417W        W26265   3.213   2.211   5.107  0.1427 -0.3139 -0.0195
 9418W        W26266   7.382  11.726   2.749  0.0096  0.4288 -0.3632
 9419W        W26267   4.005  16.879  13.841  0.1010  0.1496  0.1197
 9420W        W26268   2.916  11.978  12.461 -0.1207  0.0350  0.0351
 9421W        W26269   4.780   5.909   0.639 -0.1060 -0.2131  0.0344
 9422W        W26270  10.480   1.802   0.213  0.1265  0.1167 -0.2077
 9423W        W26271  12.150   4.431  11.138  0.2592  0.1624  0.0160
 9424W        W26272  15.687   5.422  12.949 -0.2695 -0.1759 -0.4383
 9425W        W26273   3.914   7.213  14.681 -0.1349  0.1107 -0.1678
 9426W        W26274  11.077   6.292   2.042  0.1780 -0.4050  0.1191
 9427W        W26275   2.461  11.182  12.773  0.1419 -0.0520  0.1679
 9428W        W26276   0.664  17.575   2.599 -0.2184  0.0281  0.2323
 9429W        W26277   9.743   8.597   3.479  0.0047 -0.0054 -0.0263
 9430W        W26278   7.349   1.187  10.457 -0.0823  0.0410  0.1849
 9431W        W26279  12.138  17.642  12.499 -0.0608 -0.2728  0.0244
 9432W        W26280  13.133  11.688  13.562 -0.0304 -0.0423  0.4989
 9433W        W26281  17.982  10.569   0.644  0.2312 -0.1260  0.1275
 9434W        W26282  14.311   8.553   3.570  0.0376 -0.3888  0.1653
 9435W        W26283   8.663   3.653   2.638  0.3310 -0.0992  0.0295
 9436W        W26284  13.845   7.837   5.495  0.0226 -0.0485  0.1227
 9437W        W26285  14.962   2.460  16.307  0.0831  0.1614 -0.1045
 9438W        W26286  18.043  11.229  10.663  0.1898  0.1156  0.0269
 9439W        W26287   3.163  10.365  11.637  0.0559  0.1574  0.2243
 9440W        W26288  11.753  14.635  13.380  0.1073  0.1543  0.0240
 9441W        W26289  13.327  11.898   3.628  0.0770  0.1028 -0.0537
 9442W        W26290   5.098   6.427   4.238 -0.0887  0.3688  0.0212
 9443W        W26291  10.287  13.921   1.397  0.2169 -0.0664  0.1440
 9444W        W26292   7.039  11.294   0.529 -0.2256 -0.0623  0.5098
 9445W        W26293   8.905  12.079  15.264 -0.0216 -0.2069  0.2679
 9446W        W26294  12.840   0.285  14.945 -0.0115 -0.0706  0.1405
 9447W        W26295  10.513  14.251   2.907  0.2821  0.1918  0.2565
 9448W        W26296   9.577   1.775   2.945 -0.1023 -0.0214 -0.0924
 9449W        W26297  14.868   6.725   2.733 -0.2512  0.1182  0.1084
 9450W        W26298   6.707  14.021   1.840 -0.1098 -0.3036 -0.0457
 9451W        W26299   8.503  12.644  12.094 -0.0013 -0.2015 -0.0343
 9452W        W26300   7.879   9.259  16.147  0.5170 -0.3562 -0.0407
 9453W        W26301  10.930   2.971  14.640 -0.1805  0.2666 -0.3781
 9454W        W26302   4.098   7.413  12.584 -0.0430 -0.1803 -0.0701
 9455W        W26303   2.617  12.445  12.485 -0.1024  0.0721  0.1693
 9456W        W26304   8.910  11.772   4.217  0.0398  0.2187 -0.0002
 9457W        W26305   4.755   0.544   3.581 -0.1244 -0.3651 -0.4130
 9458W        W26306  16.551   6.539  12.865  0.2517 -0.5039 -0.1695
 9459W        W26307   8.834   6.577   3.271 -0.1462 -0.0553  0.3384
 9460W        W26308   9.483  14.947  13.947 -0.2039 -0.0640  0.0976
 9461W        W26309  16.049   2.720  13.165  0.1957 -0.0889 -0.3754
 9462W        W26310   4.017   9.140   5.138 -0.3125  0.1973 -0.0995
 9463W        W26311  13.447  12.121  15.644  0.1222  0.0470  0.0528
 9464W        W26312   4.525   4.375   0.359 -0.1668 -0.1380 -0.2988
 9465W        W26313  12.209  17.884   0.165 -0.0383  0.0373  0.1164
 9466W        W26314   7.219   4.353   4.336  0.2227 -0.0801 -0.0408
 9467W        W26315   1.190  11.157  14.129  0.3395 -0.3146 -0.0237
 9468W        W26316   0.470  12.613  12.396  0.3138  0.2562 -0.1549
 9469W        W26317   7.454   6.875   3.800 -0.3097  0.1267 -0.1174
 9470W        W26318  15.430   0.049  13.829  0.2379 -0.2420  0.1025
 9471W        W26319   7.643   1.976  12.692  0.1842  0.4414  0.3898
 9472W        W26320  14.334   7.320  16.262  0.1070  0.0546 -0.1650
 9473W        W26321   4.177  12.201  16.217 -0.2317 -0.1189  0.1097
 9474W        W26322  12.473   0.753  11.793 -0.0865  0.0887 -0.2180
 9475W        W26323  10.252  11.872   2.628  0.0623  0.1196 -0.0461
 9476W        W26324   5.961  15.170  13.926  0.0539  0.0129  0.2604
 9477W        W26325  10.363  14.474  13.640 -0.1092  0.0371  0.1281
 9478W        W26326  11.191  13.529  13.902 -0.1130 -0.2246 -0.1187
 9479W        W26327   0.399   9.750   0.907  0.1077 -0.0518  0.1656
 9480W        W26328  14.984   6.260   2.622 -0.5000 -0.1640  0.0621
 9481W        W26329  17.702  13.299  11.129  0.0841  0.1270  0.1721
 9482W        W26330   9.822   8.583   0.172  0.1859  0.0478  0.0918
 9483W        W26331  14.713   9.065  11.699 -0.0428  0.1389 -0.2650
 9484W        W26332  14.072   7.543  11.241  0.0061  0.0243  0.0788
 9485W        W26333  16.424  10.836  12.864  0.2141  0.1508  0.3364
 9486W        W26334   4.220  17.553  14.643  0.0535 -0.1355  0.2137
 9487W        W26335  14.085   1.869   4.115  0.1945 -0.0516 -0.1800
 9488W        W26336  15.957   1.020  11.283  0.1775  0.0211 -0.1460
 9489W        W26337   4.631  16.263  13.600 -0.0810  0.0614 -0.0186
 9490W        W26338   7.806  12.012   0.603 -0.0292 -0.1101 -0.2287
 9491W        W26339  13.069  14.115   3.161  0.1841  0.1017 -0.0293
 9492W        W26340   2.592   0.003   4.820 -0.0727  0.1593 -0.0951
 9493W        W26341   9.406  17.119  15.772  0.0100  0.1958  0.1597
 9494W        W26342   1.073  13.683  15.727 -0.0236 -0.1696  0.2379
 9495W        W26343  10.338   0.746   2.452 -0.2151 -0.2609 -0.1428
 9496W        W26344   5.948  11.062   5.232  0.3724  0.2268  0.0310
 9497W        W26345   6.519  14.859   5.142 -0.1422 -0.1379  0.0294
 9498W        W26346  16.051   3.542  13.636  0.3632 -0.1085  0.1753
 9499W        W26347   7.690   1.652   0.493 -0.1669 -0.0928  0.2020
 9500W        W26348   0.508  13.545   2.965  0.0989 -0.0454  0.1669
 9501W        W26349   1.562  11.770  15.893 -0.2556  0.2298  0.2038
 9502W        W26350  14.448   1.663  14.651  0.2460 -0.0229 -0.2106
 9503W        W26351   3.169  14.955   0.874  0.2164  0.2082 -0.0360
 9504W        W26352   3.895  11.929  12.499 -0.0273  0.0599  0.0943
 9505W        W26353   1.700   9.499   3.152 -0.0515 -0.0573  0.2494
 9506W        W26354   2.415   6.187   4.805 -0.0164 -0.1434 -0.0366
 9507W        W26355  12.316  13.336  11.758 -0.0084 -0.1553 -0.3153
 9508W        W26356  12.479  13.658  15.849  0.1457 -0.3242  0.2370
 9509W        W26357   9.956  11.681   0.372 -0.2397 -0.0944  0.0975
 9510W        W26358  17.354   1.984  12.321  0.0736  0.1213 -0.1439
 9511W        W26359  11.026   2.130  12.423 -0.0292  0.0892 -0.0170
 9512W        W26360  13.759   7.245  12.522  0.2057 -0.0316  0.0490
 9513W        W26361  12.654  17.482  11.309 -0.0200  0.1831 -0.2534
 9514W        W26362   5.755  15.353  11.484  0.1578  0.4700 -0.2012
 9515W        W26363   7.605   9.462  15.758  0.2335 -0.4746 -0.6476
 9516W        W26364  16.982   4.654   1.242  0.1395 -0.0829  0.2937
 9517W        W26365  14.844   7.272   0.719 -0.3625 -0.0241  0.0923
 9518W        W26366  13.387  14.499  12.507  0.1751  0.1205  0.0107
 9519W        W26367  11.409  10.988   2.946  0.1819 -0.0268  0.2494
 9520W        W26368   6.042  13.716   0.705  0.2713  0.0490  0.1263
 9521W        W26369  16.616   8.975  10.903  0.4842 -0.2137  0.1465
 9522W        W26370   5.758   9.444  15.286  0.0755  0.5757 -0.1464
 9523W        W26371  14.586   8.443  15.869  0.0303 -0.1317  0.1268
 9524W        W26372  12.627  12.652  11.969 -0.0195  0.3026 -0.0458
 9525W        W26373   3.524  15.020  14.299 -0.2627 -0.3180  0.2725
 9526W        W26374   5.058   9.264  13.163  0.0935 -0.1202  0.0143
 9527W        W26375   6.664  10.344   1.497 -0.0803  0.1589 -0.0142
 9528W        W26376   3.159  11.507  15.949  0.2602 -0.0251 -0.3605
 9529W        W26377  11.538   8.547   5.240  0.0260  0.0343 -0.0751
 9530W        W26378  10.198  14.742  15.974 -0.1874 -0.1185  0.0679
 9531W        W26379   5.887  14.426  15.112 -0.1080 -0.1203 -0.2896
 9532W        W26380   3.287  14.478   4.428  0.3040  0.2055 -0.0152
 9533W        W26381   0.829   0.358  14.240 -0.0392 -0.0049  0.0471
 9534W        W26382  16.028  15.602  15.029 -0.0838  0.2346 -0.1010
 9535W        W26383   3.423   4.538   2.085 -0.0929  0.4238  0.2918
 9536W        W26384   2.828  11.615   1.113  0.0009 -0.1068  0.0710
 9537W        W26385   4.774  13.016   1.910  0.2128  0.3052  0.4323
 9538W        W26386   9.863   2.672   5.197  0.3718 -0.2142  0.2628
 9539W        W26387   3.400  10.643   0.450 -0.3073  0.0877  0.1706
 9540W        W26388   5.205   6.423  11.604 -0.0132  0.1169  0.5365
 9541W        W26389  12.333   7.569  15.014  0.2258 -0.1950  0.0137
 9542W        W26390  12.074   5.558   0.802  0.0302 -0.3084  0.1329
 9543W        W26391   4.503   9.533   3.057 -0.3710 -0.2145 -0.2717
 9544W        W26392   0.726  16.026   4.037 -0.1098  0.1654 -0.2066
 9545W        W26393  14.207  13.800   0.079 -0.0409  0.0448 -0.0583
 9546W        W26394  10.497  14.376  12.136  0.1387  0.1195  0.1920
 9547W        W26395   2.322   5.050   3.242  0.0238  0.0244  0.0826
 9548W        W26396  10.342  10.225  15.230 -0.1447 -0.0321  0.1934
 9549W        W26397   4.338   1.704  14.706  0.2716  0.0854 -0.2144
 9550W        W26398  16.726   1.782   0.152  0.0426  0.0317 -0.0379
 9551W        W26399   5.581  10.555   0.778 -0.4072  0.0798  0.2644
 9552W        W26400   1.880  14.543   4.393  0.0038  0.0748  0.0783
 9553W        W26401   0.986   8.654   0.211  0.0629  0.1079  0.1175
 9554W        W26402   2.939  11.720   1.616 -0.2701  0.3474 -0.0636
 9555W        W26403  13.133   5.863   5.310 -0.1189 -0.0946 -0.1227
 9556W        W26404  16.306  14.687   1.580 -0.1024 -0.2656 -0.0506
 9557W        W26405   2.896   9.926  13.100  0.0206 -0.0850 -0.0272
 9558W        W26406  15.327   7.268   4.821 -0.0389  0.0753  0.0261
 9559W        W26407  16.204  16.010  11.712 -0.3086 -0.0358  0.0601
 9560W        W26408   0.163  12.617   4.357 -0.0626  0.1211 -0.0480
 9561W        W26409  17.099  10.251   2.436  0.0403  0.0782 -0.0797
 9562W        W26410   1.422  13.516  11.187  0.0985 -0.1600  0.3035
 9563W        W26411  14.674  10.237  14.908 -0.1985  0.6600 -0.1224
 9564W        W26412  12.674  16.264  15.670 -0.0878 -0.2562 -0.0592
 9565W        W26413   7.628   5.562  16.113 -0.0410 -0.0988  0.0230
 9566W        W26414   0.717   8.805  13.010  0.1351  0.1726 -0.3006
 9567W        W26415  14.155   7.433   3.640  0.1842  0.0269  0.0957
 9568W        W26416  12.815   9.957  12.541 -0.0814 -0.0650  0.3636
 9569W        W26417   1.327  13.440   4.396  0.4293 -0.0310  0.3390
 9570W        W26418   0.630   8.889   4.420  0.0264  0.1573  0.0481
 9571W        W26419   3.003  15.769   2.670  0.0580  0.0599  0.0576
 9572W        W26420   6.069  13.194  12.761  0.2056 -0.0461  0.0509
 9573W        W26421  15.244   4.481   2.026 -0.0476 -0.3204 -0.1250
 9574W        W26422  10.763  10.914  13.961  0.0384  0.0527 -0.1651
 9575W        W26423   5.343   9.758   3.654 -0.2387 -0.1341  0.0975
 9576W        W26424   6.418   6.417   4.329 -0.1826 -0.1657 -0.0666
 9577W        W26425   5.503   2.837  15.506 -0.3812  0.2235  0.0516
 9578W        W26426  11.597   8.949   0.569  0.2402 -0.3395  0.0294
 9579W        W26427  10.595   2.599   3.232  0.0774 -0.1051 -0.2404
 9580W        W26428   1.134   7.558  11.466 -0.0330  0.0591  0.0404
 9581W        W26429   5.471   3.338  13.099  0.1383 -0.1479  0.1327
 9582W        W26430   2.014  14.330  14.413  0.2749 -0.0633 -0.0905
 9583W        W26431  12.775   2.344  15.844  0.2109 -0.2470  0.2390
 9584W        W26432   8.444   5.618  11.265  0.1318  0.4564  0.1122
 9585W        W26433   0.909  11.309  14.834 -0.0091 -0.0370  0.1622
 9586W        W26434   4.859  18.039  13.772 -0.0259 -0.3646  0.0716
 9587W        W26435  13.270  13.058  11.625  0.2384  0.0279  0.0158
 9588W        W26436  11.219   3.363   1.367  0.0055 -0.0854  0.0996
 9589W        W26437   8.700   7.426   3.748  0.2355 -0.0276  0.0070
 9590W        W26438  15.980   4.423   1.245 -0.0098 -0.0629  0.1908
 9591W        W26439  13.297  15.023  14.200 -0.1467 -0.0254 -0.1930
 9592W        W26440  11.829  13.722   5.658 -0.0341  0.1376  0.1052
 9593W        W26441  16.805  12.591   0.589 -0.0461  0.1495 -0.0702
 9594W        W26442   2.645   4.381   0.316 -0.2632  0.2183  0.0390
 9595W        W26443   0.547   7.034   3.079  0.0833  0.1182  0.1476
 9596W        W26444   2.226  12.845  15.611  0.1879  0.0261 -0.0502
 9597W        W26445   9.885  13.033   2.379 -0.1360  0.2421  0.5371
 9598W        W26446   7.662   2.313  13.006 -0.2113  0.1739 -0.1041
 9599W        W26447   5.269   6.566  13.901  0.1188  0.0450  0.1147
 9600W        W26448  17.109   2.764   2.503  0.1935  0.1345  0.1562
 9601W        W26449  15.995  15.007   3.809  0.2037 -0.0539  0.2794
 9602W        W26450   3.488  16.090   1.175 -0.3173  0.0974 -0.1406
 9603W        W26451   6.458  13.435   0.033 -0.0657  0.0122 -0.0598
 9604W        W26452   2.396   7.278   4.769  0.2720 -0.2634 -0.1561
 9605W        W26453   0.862  17.458   3.461  0.3266  0.1235 -0.2263
 9606W        W26454  15.607  10.441   4.781 -0.0121 -0.0319 -0.4417
 9607W        W26455  12.103   0.038  12.902  0.3610  0.1832  0.0742
 9608W        W26456   7.997   2.470   3.148  0.0770  0.0822 -0.0482
 9609W        W26457   9.696  12.382  16.263  0.2063  0.2111 -0.1082
 9610W        W26458   1.304  10.845  13.694  0.1754  0.1648  0.0440
 9611W        W26459   4.197   3.703   3.042  0.1637 -0.1813 -0.0339
 9612W        W26460   8.197  15.999   3.963  0.4087  0.0332  0.0373
 9613W        W26461  13.082   2.478  12.508  0.5422  0.0127 -0.1030
 9614W        W26462   8.867  10.099   0.365  0.0678 -0.0138  0.0043
 9615W        W26463   8.693  15.005  13.405 -0.0556 -0.0808  0.0330
 9616W        W26464   0.087  12.285  13.791  0.0680 -0.0593  0.0185
 9617W        W26465  17.821   3.432  11.792 -0.0859  0.0493 -0.1646
 9618W        W26466   0.635   9.078   5.066  0.0962 -0.1982 -0.2219
 9619W        W26467   1.454  17.797   2.974 -0.0519  0.2665  0.1975
 9620W        W26468  10.297  18.010  15.738 -0.2229  0.3170 -0.0593
 9621W        W26469  17.371   9.292   4.908 -0.0206  0.0691 -0.1175
 9622W        W26470   0.532   6.385  15.811  0.0721  0.2123 -0.0068
 9623W        W26471   7.254   0.401   2.448 -0.1761 -0.0096  0.0461
 9624W        W26472   4.399  15.206  14.943  0.0278 -0.2894 -0.2176
 9625W        W26473   5.060   7.255   0.915 -0.0703 -0.2990 -0.0565
 9626W        W26474  16.986   5.294   2.576  0.1908  0.1100  0.0044
 9627W        W26475  12.229  13.728  12.144 -0.0844  0.1788  0.2393
 9628W        W26476  11.455  10.867   3.958  0.0964  0.0167  0.0157
 9629W        W26477  12.935  15.816   0.926 -0.0434  0.2279  0.0967
 9630W        W26478   4.662   3.373   2.907  0.1619 -0.0344 -0.1873
 9631W        W26479   1.852   9.229   1.059  0.3192 -0.0731 -0.2598
 9632W        W26480  10.835   0.685   0.670 -0.2764  0.0118  0.1252
 9633W        W26481   5.223  15.316   3.557 -0.0871 -0.0495  0.3495
 9634W        W26482   0.093   1.520   1.156 -0.1569 -0.1030 -0.2145
 9635W        W26483   2.974   5.190  11.995  0.0328 -0.1770  0.3592
 9636W        W26484  10.808  16.324   2.456 -0.0897  0.3343 -0.0697
 9637W        W26485   6.519   1.209  15.735 -0.1003 -0.2215 -0.3235
 9638W        W26486   1.422   8.394   2.939  0.1601  0.0035 -0.0835
 9639W        W26487   7.995   4.861   2.787 -0.0849  0.0194 -0.1014
 9640W        W26488  13.513  16.560  11.426  0.1140 -0.5846  0.2359
 9641W        W26489   1.326  11.319   4.146  0.1529  0.1659 -0.5236
 9642W        W26490  17.476   2.642   0.933 -0.0245  0.2258  0.1347
 9643W        W26491  12.402   7.617   2.500 -0.1370 -0.1097  0.0254
 9644W        W26492   2.218   5.860  10.816 -0.0421 -0.1227  0.2546
 9645W        W26493   5.124  15.275   2.190  0.0642 -0.3730  0.0938
 9646W        W26494  13.381   2.678  12.880  0.2758  0.1846 -0.0317
 9647W        W26495   0.981   8.345   2.740  0.1385 -0.0346 -0.1486
 9648W        W26496   7.074  11.290  14.981  0.0143 -0.2254 -0.0308
 9649W        W26497  17.988   1.553   3.573  0.0428 -0.1332  0.2252
 9650W        W26498   6.293  10.821   4.970 -0.0360 -0.3023 -0.1488
 9651W        W26499  12.877   4.836  16.176  0.1645  0.2250  0.1881
 9652W        W26500  10.899  17.470   3.062  0.1379  0.0261 -0.0718
 9653W        W26501  13.288   8.411  16.188  0.2726  0.0153  0.0317
 9654W        W26502   4.453  17.953   4.472  0.1367 -0.0178  0.5418
 9655W        W26503  12.742  13.614  13.772 -0.1801 -0.0630 -0.0174
 9656W        W26504  15.158  13.293  11.092  0.1329  0.0854 -0.4271
 9657W        W26505   5.354   9.452  14.930  0.3668 -0.0137 -0.1062
 9658W        W26506   9.280  12.164   0.029  0.2669 -0.0751  0.0421
 9659W        W26507   1.112   1.458   1.739 -0.1093  0.1340  0.2379
 9660W        W26508  15.751   1.261  13.532  0.2557 -0.1609  0.2714
 9661W        W26509  13.471  14.018  11.497  0.0816 -0.1021 -0.1769
 9662W        W26510  17.012  17.923  13.866 -0.1332 -0.1372 -0.0078
 9663W        W26511   3.543   5.388  12.205 -0.0457  0.0669 -0.0977
 9664W        W26512  17.085   1.349  11.652 -0.3229 -0.1630  0.0822
 9665W        W26513   2.696   2.916   4.556 -0.0794 -0.2546 -0.0025
 9666W        W26514   0.478   7.997   2.173  0.0234  0.2400  0.0444
 9667W        W26515  12.993  17.482  15.151  0.0384 -0.2325 -0.0672
 9668W        W26516   7.924  17.094   3.244  0.0525 -0.2629 -0.1728
 9669W        W26517  14.500  17.387   0.709  0.0150  0.2798  0.0507
 9670W        W26518   2.296  16.115  13.745 -0.0473  0.0047  0.1194
 9671W        W26519   5.726  11.528  15.953 -0.0613 -0.3260  0.1995
 9672W        W26520  17.194   1.151   2.120  0.1614 -0.4078 -0.0309
 9673W        W26521   4.776   6.320   4.620 -0.2604  0.0549 -0.0751
 9674W        W26522  10.470  10.298  11.403 -0.2269 -0.3901 -0.3179
 9675W        W26523  10.291  13.489  12.335  0.2225 -0.0291 -0.2701
 9676W        W26524   9.679   9.228   0.281 -0.2050  0.2865 -0.1456
 9677W        W26525  12.495   1.225  12.549 -0.3179  0.0265  0.5512
 9678W        W26526  17.908  15.520  14.649 -0.0376 -0.3173  0.2362
 9679W        W26527   5.479   4.824   1.451  0.0864 -0.0705 -0.2005
 9680W        W26528   0.879   0.854   1.214  0.0041 -0.1827 -0.0228
 9681W        W26529  13.755   8.257   4.383 -0.1156  0.0807  0.2979
 9682W        W26530   5.017  13.358   1.623  0.2335 -0.1240  0.1099
 9683W        W26531  13.485   1.920  11.132 -0.0652  0.1982  0.0849
 9684W        W26532   6.128  11.053   1.166  0.2741 -0.1809  0.5723
 9685W        W26533  13.763   4.149   3.744  0.3423 -0.0464 -0.4978
 9686W        W26534  14.228  15.820  14.712 -0.0024 -0.3551  0.0335
 9687W        W26535   2.920  17.600   1.841 -0.1239 -0.2709  0.1295
 9688W        W26536  14.024   8.006  15.070 -0.3691  0.2425  0.1960
 9689W        W26537   3.773  12.158  13.203 -0.1018  0.1592  0.2976
 9690W        W26538   6.294   5.044  11.919 -0.2643  0.2674  0.0344
 9691W        W26539   7.285   9.821   3.459 -0.0263  0.2790  0.5416
 9692W        W26540   3.199  17.747   6.052 -0.0158  0.1442 -0.3360
 9693W        W26541  17.601  14.912  12.149 -0.0033  0.0613 -0.0214
 9694W        W26542  14.391  13.233   2.758  0.1317  0.2974 -0.0168
 9695W        W26543  15.411  11.393  11.325 -0.0222 -0.1062 -0.1022
 9696W        W26544  10.504   2.393   0.836 -0.3799  0.0550 -0.2125
 9697W        W26545  16.193   1.195   1.305 -0.0147 -0.2054 -0.0752
 9698W        W26546  17.131  10.012   0.204 -0.1318 -0.0270  0.0575
 9699W        W26547  10.483   2.623  11.228 -0.0507  0.0046 -0.0426
 9700W        W26548  15.213  10.689  12.036  0.1005  0.0670  0.0803
 9701W        W26549  14.683  10.307  14.174  0.2957  0.2897  0.1396
 9702W        W26550  14.630   0.672  13.682 -0.0053 -0.2951 -0.0701
 9703W        W26551   1.947   6.948   4.797 -0.0318  0.2074 -0.0908
 9704W        W26552   9.704  15.306   1.628 -0.2598  0.2525  0.0273
 9705W        W26553   7.706  16.849   3.651  0.0978  0.2108 -0.2490
 9706W        W26554   6.146   9.240  15.895  0.2837 -0.0204 -0.0521
 9707W        W26555   5.016  12.776   0.836  0.0825  0.0853 -0.1998
 9708W        W26556  17.377  15.532   4.714 -0.0565  0.2350  0.1629
 9709W        W26557  15.876  14.700   1.857  0.1328 -0.0940  0.1380
 9710W        W26558  16.269  13.192   4.102  0.2548  0.0704  0.1902
 9711W        W26559   8.745  17.842  14.723 -0.3378 -0.3727  0.0742
 9712W        W26560  16.502  13.790  13.693 -0.0744 -0.3022 -0.4658
 9713W        W26561   5.252  14.555  14.771 -0.1224 -0.1497 -0.2819
 9714W        W26562   6.156  13.861  13.997 -0.2537  0.0616 -0.0009
 9715W        W26563  12.995   0.682  13.787  0.0312  0.0776  0.0267
 9716W        W26564   4.344   1.258   2.105 -0.3378 -0.0424  0.1706
 9717W        W26565  10.579  10.558   5.447 -0.1308  0.1325 -0.3672
 9718W        W26566  11.717  14.711   5.156 -0.0311  0.1741  0.1542
 9719W        W26567   1.853  17.838   4.320 -0.1687 -0.2681 -0.1398
 9720W        W26568  10.245   6.286   0.522  0.0409 -0.1073 -0.2525
 9721W        W26569   6.935   9.680   5.826  0.0030 -0.2006 -0.0952
 9722W        W26570   5.996  17.528   3.583 -0.0855 -0.3834  0.1329
 9723W        W26571   1.377   1.059   4.421 -0.2615 -0.0660 -0.3709
 9724W        W26572  11.520  12.322  13.353  0.0646  0.0295  0.3675
 9725W        W26573   9.599   2.410  15.526  0.2302  0.0578  0.0213
 9726W        W26574  16.051  11.913   0.327 -0.3057 -0.0479  0.1508
 9727W        W26575   8.634   7.080  10.827 -0.0588  0.2166  0.0278
 9728W        W26576   4.726   3.689  12.819 -0.0850  0.1221 -0.0416
 9729W        W26577   8.228  12.614   1.235  0.0918 -0.0740  0.0725
 9730W        W26578   0.095   2.011   3.331  0.1798 -0.0932 -0.2793
 9731W        W26579  13.314   2.978   3.482  0.2104  0.1257  0.1021
 9732W        W26580   4.634   4.353  12.464 -0.0391 -0.0757  0.1105
 9733W        W26581   5.596  16.287   3.257 -0.1580  0.1203 -0.1853
 9734W        W26582   4.346  13.614  15.357  0.0554  0.0639 -0.2080
 9735W        W26583  17.222  15.637   3.810 -0.1596 -0.0831  0.1425
 9736W        W26584   1.519  17.529  12.164  0.2341 -0.1424  0.0304
 9737W        W26585   6.151  17.620  11.740 -0.0710 -0.1014  0.2889
 9738W        W26586  14.322   9.535   0.293 -0.2605  0.4709 -0.0056
 9739W        W26587  11.971  17.905   3.135 -0.0271  0.1132 -0.0473
 9740W        W26588  15.745  17.892   0.066  0.0569 -0.2069  0.1157
 9741W        W26589   6.802   2.089   2.387 -0.0126 -0.1646 -0.1834
 9742W        W26590  14.776  13.923  14.514  0.1246 -0.0089  0.0920
 9743W        W26591  16.806   4.574  15.845  0.1269  0.2332 -0.0434
 9744W        W26592   3.300  10.393   1.093  0.0192  0.2211 -0.0462
 9745W        W26593  10.041  11.059  12.601 -0.1561 -0.1607 -0.0092
 9746W        W26594  15.014  16.701  14.116  0.1185 -0.0542  0.3405
 9747W        W26595  16.567  13.215   3.054 -0.0311  0.0311 -0.1150
 9748W        W26596  15.278  14.059   4.353 -0.1941  0.1902 -0.1067
 9749W        W26597  13.282   8.892  11.785 -0.0201  0.2134 -0.2186
 9750W        W26598  14.309   9.726   1.878  0.1394 -0.2382 -0.3169
 9751W        W26599  11.540   6.187  16.182 -0.0116  0.1541 -0.0502
 9752W        W26600  14.643  14.358   3.890 -0.2040  0.0534 -0.0553
 9753W        W26601   9.655  10.461  16.117  0.0143  0.2083  0.5289
 9754W        W26602  16.608   6.054  15.979  0.2935  0.0641  0.4817
 9755W        W26603   3.200   6.962   2.396 -0.0197 -0.1802  0.0364
 9756W        W26604   6.810   4.149  12.124  0.0430 -0.0398 -0.2569
 9757W        W26605  17.350   3.259  14.247 -0.2026 -0.1285  0.0271
 9758W        W26606  17.440   4.847  12.677  0.2730 -0.1406 -0.0235
 9759W        W26607   4.177   0.011   2.157 -0.1821  0.0083 -0.1519
 9760W        W26608   2.180   5.193   0.146  0.0397  0.1332  0.1029
 9761W        W26609  15.359   7.765   0.810  0.1139 -0.0788 -0.0142
 9762W        W26610   4.803  11.278  13.587 -0.1634 -0.0524 -0.2959
 9763W        W26611  12.824   4.428   0.400  0.0875  0.0049 -0.0776
 9764W        W26612   6.979   4.118  13.121 -0.0144 -0.1601  0.1035
 9765W        W26613   4.971   7.250  12.719 -0.4118  0.0136 -0.0935
 9766W        W26614   2.068   3.224   1.942  0.0804  0.0256 -0.1577
 9767W        W26615  10.803   7.207   3.071 -0.2555 -0.2429  0.2740
 9768W        W26616   0.101  16.358   2.627 -0.1337  0.3099  0.1370
 9769W        W26617   2.686  10.807   3.886 -0.1542 -0.1429 -0.0188
 9770W        W26618  18.067  11.067  12.005  0.0633  0.1494  0.1413
 9771W        W26619   2.551   3.384   1.820 -0.0740 -0.1851 -0.0231
 9772W        W26620   2.025  13.859  11.418 -0.2040 -0.0011 -0.0496
 9773W        W26621   8.077  15.549   1.773 -0.4244  0.3340 -0.2373
 9774W        W26622   5.919   1.914   5.037  0.0516 -0.1742 -0.0623
 9775W        W26623  17.917  10.571  15.036  0.1033 -0.0475  0.1693
 9776W        W26624  14.081   3.319  13.938  0.0721 -0.0706  0.2017
 9777W        W26625  17.665  10.276  13.144 -0.3337 -0.2382  0.0474
 9778W        W26626  16.117   3.259  13.080 -0.2423  0.1501 -0.0184
 9779W        W26627   4.327   8.778   4.899 -0.2451  0.1014  0.1225
 9780W        W26628   8.892  13.790  14.557  0.0422 -0.0541 -0.3936
 9781W        W26629  11.618   8.983  14.428 -0.0738  0.3612 -0.0740
 9782W        W26630   0.861   4.207   3.071  0.1266  0.0027  0.1376
 9783W        W26631   8.965  12.781   4.505 -0.1445 -0.1392 -0.0863
 9784W        W26632  12.550   6.458  16.212  0.2034  0.2850 -0.0756
 9785W        W26633  11.629   5.192  12.246  0.0103  0.2507 -0.0347
 9786W        W26634   2.032  14.607   3.734 -0.3293 -0.1643  0.0651
 9787W        W26635  18.088  13.336   0.645 -0.3745  0.1685  0.1766
 9788W        W26636   1.734  10.061  15.370  0.2725 -0.3132  0.0995
 9789W        W26637  15.211   9.777  12.298 -0.1221  0.0111 -0.0273
 9790W        W26638  16.472  14.043   3.539 -0.1344 -0.0172 -0.1951
 9791W        W26639   6.030   2.451  14.830 -0.0973 -0.1316  0.2328
 9792W        W26640   5.445   4.008  12.409 -0.3585 -0.0085 -0.0991
 9793W        W26641   8.801  17.614  15.182  0.1343 -0.0739 -0.2013
 9794W        W26642   5.926   5.391   1.839 -0.2033  0.2905  0.0303
 9795W        W26643   9.168  12.833   0.888 -0.1548  0.1546  0.0289
 9796W        W26644   1.724   6.556  10.938  0.2728 -0.1873  0.2226
 9797W        W26645   7.290   2.284   4.818  0.0362  0.1210 -0.0555
 9798W        W26646   5.229   5.697   4.831 -0.2650  0.2187 -0.3528
 9799W        W26647  14.227  17.235   2.668 -0.0297  0.0591  0.3811
 9800W        W26648  11.645  10.695  14.548 -0.0583  0.2745  0.2191
 9801W        W26649  17.617   3.116  15.795  0.2598  0.0295 -0.2775
 9802W        W26650   1.801   3.681  14.659  0.0343  0.0837  0.0287
 9803W        W26651   8.052   7.892   3.124  0.0003  0.1389  0.0154
 9804W        W26652   1.150   2.281   3.382 -0.0675 -0.1754 -0.0093
 9805W        W26653   3.340   8.562  10.417  0.0016  0.0668  0.2464
 9806W        W26654  15.456   8.459   4.669  0.1756  0.0974  0.2078
 9807W        W26655   4.517   3.486   1.102 -0.0633 -0.3738  0.1356
 9808W        W26656   0.747   5.089   4.026  0.0917  0.1799  0.2910
 9809W        W26657   0.397  15.219   4.054 -0.1360 -0.0492 -0.2525
 9810W        W26658   6.395  13.840  12.180  0.0468 -0.0569  0.1375
 9811W        W26659  11.486   8.370  14.353  0.1044 -0.2905  0.1347
 9812W        W26660   8.493  17.610   0.532 -0.1122  0.0534  0.0612
 9813W        W26661  11.835  14.690   4.118  0.0996  0.0372  0.3205
 9814W        W26662   3.084  10.460   4.672 -0.1275 -0.0662 -0.1658
 9815W        W26663   8.019  11.465  11.728  0.1649  0.1335  0.4360
 9816W        W26664  16.879   8.291  11.912  0.1748  0.1319 -0.0678
 9817W        W26665  13.512  16.690   0.679 -0.1517  0.0801 -0.2123
 9818W        W26666   1.053   0.055  15.244  0.0529  0.0332 -0.0640
 9819W        W26667  12.004   3.594   4.578 -0.0195 -0.2853 -0.0699
 9820W        W26668  15.324  11.280  14.278 -0.0009 -0.2382  0.0254
 9821W        W26669   3.173   8.366  11.706  0.3967 -0.0160 -0.0970
 9822W        W26670   2.028   5.432   5.319  0.1305  0.1050 -0.1046
 9823W        W26671  15.196  16.434  16.063 -0.1067  0.2074 -0.1423
 9824W        W26672   3.404   5.496  13.153  0.1669  0.1334  0.1397
 9825W        W26673   3.898  13.168   1.614  0.2125  0.1718 -0.1660
 9826W        W26674   7.906  16.431   5.169 -0.1573 -0.1745 -0.1482
 9827W        W26675   2.210   8.048   3.524  0.0264  0.1267  0.3520
 9828W        W26676   1.581   3.485   1.770  0.0975  0.0654 -0.0118
 9829W        W26677  15.690  14.587   0.274  0.3220 -0.0461 -0.1384
 9830W        W26678  16.709   3.231  15.797 -0.0984 -0.1746  0.3725
 9831W        W26679   6.627   2.799   0.594  0.0576  0.3473 -0.2531
 9832W        W26680   1.217  15.367   1.067  0.1678  0.0311 -0.0549
 9833W        W26681  15.547   8.872  13.190  0.1633 -0.1028  0.1739
 9834W        W26682   1.255  13.615   0.904  0.1192 -0.0481 -0.0039
 9835W        W26683  16.389  13.596   3.816  0.2330  0.2429  0.2543
 9836W        W26684  13.816   4.152   2.369 -0.3168  0.0433  0.0436
 9837W        W26685  15.781   0.355  13.525  0.0325  0.0566  0.1076
 9838W        W26686   7.733  10.591  14.940 -0.0250 -0.2787  0.5021
 9839W        W26687   6.804   9.715   3.421  0.0386  0.2344  0.1784
 9840W        W26688   7.103   7.757   1.186 -0.0649  0.2503  0.2674
 9841W        W26689  11.920   9.453   3.316  0.0412  0.4002  0.0571
 9842W        W26690   2.863  11.464   5.175 -0.3409 -0.0599 -0.1817
 9843W        W26691  13.800   2.790   2.113  0.3480 -0.2760  0.1135
 9844W        W26692   4.608   2.057   3.846 -0.0016  0.4420 -0.1758
 9845W        W26693  14.312   5.067  12.613 -0.1068  0.0080 -0.0603
 9846W        W26694   6.769  12.804  15.444  0.0370 -0.2447  0.0124
 9847W        W26695  11.892   6.879   3.830  0.0609 -0.0445  0.0381
 9848W        W26696   8.595  14.691   0.970  0.1169  0.0875  0.1920
 9849W        W26697   6.065  14.604  16.028  0.4560  0.1057  0.0564
 9850W        W26698  17.282  11.832   3.734  0.1628 -0.1245  0.0005
 9851W        W26699  11.224   2.767   3.933  0.0080  0.0398 -0.1008
 9852W        W26700   6.748   8.645  11.690 -0.0701 -0.0877 -0.1596
 9853W        W26701   1.217   2.348  15.390 -0.0319  0.1249  0.2087
 9854W        W26702   9.986   1.452  13.913 -0.0912  0.1021 -0.1090
 9855W        W26703   1.334  10.790   4.972  0.0088 -0.1049 -0.3065
 9856W        W26704  10.051  13.653  13.575 -0.2149  0.3282 -0.1796
 9857W        W26705   5.748  12.810   1.633  0.2935 -0.2386  0.2310
 9858W        W26706   8.923   8.737  12.828  0.0883 -0.0323 -0.4700
 9859W        W26707   2.938   3.662  15.943  0.0286  0.1421 -0.0094
 9860W        W26708   5.333   3.470   3.939 -0.1154  0.3530 -0.0523
 9861W        W26709  17.525  13.447   2.921  0.1749  0.2491 -0.1366
 9862W        W26710  17.565   6.428  11.948  0.1710 -0.0538 -0.1320
 9863W        W26711   3.540   6.575  11.581 -0.2322  0.0498 -0.0186
 9864W        W26712   5.437  10.440  13.868 -0.0857 -0.0540  0.1367
 9865W        W26713  12.798  10.598   0.205 -0.0823 -0.1005  0.1676
 9866W        W26714   1.970   4.435  11.705  0.0290  0.1097 -0.1104
 9867W        W26715  10.980  13.312   5.060 -0.3787 -0.1081  0.2188
 9868W        W26716  12.695  10.995  12.975  0.2060  0.1106  0.0726
 9869W        W26717   5.651  15.929   1.324  0.2726  0.1852 -0.2601
 9870W        W26718  15.155  16.336   0.681 -0.1167 -0.3682  0.0551
 9871W        W26719   0.832  15.446   4.103 -0.0792 -0.1716  0.1379
 9872W        W26720   6.385  13.904   4.732  0.1328  0.1873 -0.1008
 9873W        W26721  17.870   9.144   3.136 -0.1796 -0.0008 -0.1075
 9874W        W26722   1.010   8.027   4.377  0.0838  0.0872  0.0895
 9875W        W26723   5.129   1.667   3.754  0.0899 -0.0206 -0.2946
 9876W        W26724  13.457  11.312  13.627 -0.1119  0.0736  0.1212
 9877W        W26725   9.408  10.268   0.507  0.1841 -0.0420 -0.2505
 9878W        W26726   5.878   7.518  12.073 -0.2928  0.1318 -0.0909
 9879W        W26727   9.787   2.628  11.534 -0.1783 -0.2326  0.0263
 9880W        W26728  14.179   0.743   3.599  0.0433  0.2321  0.0666
 9881W        W26729   5.413  17.671  16.101 -0.1306 -0.1464  0.0834
 9882W        W26730  11.234  11.268   3.761  0.5044  0.2595  0.2619
 9883W        W26731   1.865  11.662  16.285 -0.1855  0.0192  0.1529
 9884W        W26732  14.901  17.523  12.434  0.2232 -0.0703 -0.0063
 9885W        W26733  13.989  10.467   6.178  0.1967  0.3179 -0.1350
 9886W        W26734   2.212  14.655  12.125 -0.0699 -0.0330 -0.1161
 9887W        W26735   6.726   0.343  12.687 -0.2331 -0.0485 -0.0855
 9888W        W26736  14.741   2.720  11.321  0.0747 -0.1880 -0.0564
 9889W        W26737  15.591  11.776  13.544 -0.1218  0.1013 -0.1807
 9890W        W26738   1.378   8.626   3.966 -0.2425 -0.1791 -0.1024
 9891W        W26739   0.665   3.397  15.997  0.2165  0.0954 -0.4034
 9892W        W26740  13.379   2.704   0.258 -0.1831 -0.0143  0.0636
 9893W        W26741   3.689   2.825   2.097 -0.1060 -0.1532 -0.0896
 9894W        W26742   8.028   3.454   3.401 -0.0796  0.0232 -0.0034
 9895W        W26743  11.337   0.963  14.750 -0.2296 -0.0760  0.0215
 9896W        W26744  14.830  17.041  13.653  0.2360  0.0699  0.2227
 9897W        W26745   7.574  16.844  12.619 -0.0600  0.0834 -0.0673
 9898W        W26746   9.960   2.043  12.935  0.1642 -0.2700  0.0434
 9899W        W26747  10.838  14.455  15.386 -0.0672 -0.0342 -0.1419
 9900W        W26748  17.781   1.380   2.224 -0.1705  0.1216 -0.0450
 9901W        W26749  14.347   9.935  11.208 -0.3017 -0.1395 -0.0315
 9902W        W26750  13.289  12.071  14.564  0.1424 -0.1807 -0.3263
 9903W        W26751   0.824   2.918  13.038  0.2112 -0.0412 -0.1079
 9904W        W26752   1.796   2.714   4.000 -0.0549 -0.0173 -0.1053
 9905W        W26753  16.262   3.073  15.613 -0.0440 -0.2219 -0.1878
 9906W        W26754  14.456  17.924  16.038  0.2674  0.6078  0.0348
 9907W        W26755  17.768  12.515  11.634  0.0830  0.0285 -0.1074
 9908W        W26756  14.752   0.176  14.620  0.1880 -0.1921  0.0752
 9909W        W26757  16.595   1.899   1.318  0.0849  0.5574 -0.1472
 9910W        W26758   3.586  17.968  11.544  0.4053 -0.0776 -0.1071
 9911W        W26759   7.900   1.168   5.628 -0.1210  0.0699  0.1233
 9912W        W26760  12.879   3.761  14.638  0.0467  0.1257  0.0767
 9913W        W26761  16.661  12.862   3.821 -0.0502  0.4058 -0.2952
 9914W        W26762  11.874   1.770   0.129  0.1098  0.1836  0.4168
 9915W        W26763   9.094   9.164  13.134  0.2185 -0.1239 -0.0241
 9916W        W26764   3.055   5.622  14.643  0.2247  0.4464  0.4228
 9917W        W26765   3.211   2.482  14.669  0.2239 -0.2435 -0.1439
 9918W        W26766   6.184  13.076   0.253  0.0407  0.0192  0.0527
 9919W        W26767   5.339  11.392  11.350  0.2151  0.0067  0.0211
 9920W        W26768   7.130   7.510  12.683 -0.3588 -0.1318 -0.0513
 9921W        W26769   7.458  15.078  13.775  0.1335  0.1026 -0.1980
 9922W        W26770  17.968   2.609   2.079  0.1330  0.0754  0.0948
 9923W        W26771   1.046  11.290  11.301  0.2461  0.2722  0.0108
 9924W        W26772   7.043   1.124   2.032  0.3845  0.0108  0.1425
 9925W        W26773   3.208   2.805   3.013 -0.1266  0.0568 -0.1386
 9926W        W26774   3.605   8.762   1.257  0.0193  0.1790 -0.0288
 9927W        W26775   2.419  15.919   0.119  0.0453 -0.2782 -0.0083
 9928W        W26776   0.017  17.379   1.790  0.1483 -0.4543  0.1870
 9929W        W26777   6.077   6.638  10.491 -0.2990  0.1605 -0.0599
 9930W        W26778   8.831   5.610   4.133  0.1612  0.0158 -0.2300
 9931W        W26779  16.803   0.721   4.136 -0.2225 -0.2208  0.1563
 9932W        W26780  16.581   4.967   3.441  0.0477  0.0457 -0.2179
 9933W        W26781   2.009   0.811   3.817  0.0557 -0.0004  0.1660
 9934W        W26782   0.184   2.284  14.639 -0.4255 -0.1008 -0.0057
 9935W        W26783  13.559  14.096   4.133  0.0629  0.0293 -0.1783
 9936W        W26784   7.624  12.245  11.700 -0.0851  0.1352  0.0931
 9937W        W26785   7.885  14.504  13.194 -0.0366 -0.0029  0.1222
 9938W        W26786   6.509  11.534   2.045  0.2662 -0.2500 -0.0580
 9939W        W26787   1.177   0.312   2.328 -0.1054 -0.0976 -0.5637
 9940W        W26788   2.212  14.337  13.963 -0.0423  0.0093  0.2336
 9941W        W26789  11.763   8.188  12.680  0.0091 -0.1104 -0.1323
 9942W        W26790   5.328  11.144   2.633 -0.0342  0.2234 -0.2829
 9943W        W26791   3.227  17.365   1.078  0.1858 -0.1509  0.3162
 9944W        W26792   5.592  15.155   3.046 -0.1757  0.1851 -0.4101
 9945W        W26793   4.307   7.045  15.345 -0.3827 -0.0045  0.0222
 9946W        W26794   8.032   2.953  12.360  0.1238 -0.0502  0.1304
 9947W        W26795   5.223   4.791   4.654 -0.2482 -0.2267  0.0721
 9948W        W26796   6.015   7.725  11.506  0.1207  0.0536  0.3442
 9949W        W26797   0.841  17.964   1.598 -0.0464 -0.2240 -0.0666
 9950W        W26798   4.848   4.848  14.708 -0.0603  0.0938 -0.2396
 9951W        W26799  13.569   0.321   0.458  0.1952  0.0404 -0.3171
 9952W        W26800  11.598   6.830  14.887 -0.0146  0.0977  0.1043
 9953W        W26801   1.117   5.140  15.523  0.1362 -0.0288 -0.2426
 9954W        W26802   2.642  14.638  11.931 -0.1863  0.2640  0.1776
 9955W        W26803   9.983  12.315  15.845 -0.2613  0.1142 -0.1618
 9956W        W26804  10.136   4.362  10.882  0.0456 -0.0526  0.3041
 9957W        W26805  17.568  17.378  14.873 -0.3004 -0.1119 -0.2151
 9958W        W26806  16.770   2.470   3.935  0.1681  0.1283 -0.0152
 9959W        W26807  16.436  13.750  15.213 -0.0216 -0.0908 -0.1532
 9960W        W26808  12.253   5.528  14.438 -0.2185  0.1529  0.1835
 9961W        W26809   3.120   9.214   3.799 -0.2859  0.0769  0.3896
 9962W        W26810   7.773   4.068  13.036  0.3936 -0.1333 -0.0069
 9963W        W26811  14.947   9.233   2.944  0.1930  0.3094  0.1787
 9964W        W26812  17.926  12.535  12.131  0.0442  0.0948 -0.1437
 9965W        W26813   2.237  14.722  13.627  0.0143  0.2499  0.6826
 9966W        W26814  13.290   3.522  12.685  0.1099 -0.3946  0.0777
 9967W        W26815  14.690  13.893   2.908  0.1298  0.0827 -0.0846
 9968W        W26816  14.417   7.660  13.450  0.2675  0.2552  0.0098
 9969W        W26817   8.637   9.501  14.372 -0.0339 -0.0358 -0.2879
 9970W        W26818   4.938   0.950   1.627 -0.0663  0.0647 -0.4284
 9971W        W26819  14.865   6.052   4.944  0.1396 -0.1524 -0.1279
 9972W        W26820  14.118  15.000   1.016 -0.1626 -0.0999 -0.2750
 9973W        W26821   9.041   4.487   1.034 -0.5346 -0.3647 -0.3114
 9974W        W26822  18.088   6.381  11.313  0.0366  0.0856 -0.0164
 9975W        W26823   3.839   7.906   1.680  0.4549  0.0370  0.2239
 9976W        W26824   8.666   9.960   3.093  0.0533 -0.2168 -0.0950
 9977W        W26825  12.013   7.175   2.941  0.1189 -0.0173  0.0677
 9978W        W26826  17.929  13.717   4.917 -0.3424  0.3202 -0.1959
 9979W        W26827   4.585   4.168  12.969  0.1686 -0.0391  0.0006
 9980W        W26828   7.716  16.594  14.710 -0.1785  0.1251 -0.1290
 9981W        W26829  16.286  17.916  15.267  0.1402  0.1983  0.1408
 9982W        W26830   6.390   0.715  14.969  0.0186 -0.1660  0.2652
 9983W        W26831   3.402   4.128  12.453 -0.1616  0.0459  0.0518
 9984W        W26832   3.852   1.284  15.292 -0.0844  0.3752  0.0751
 9985W        W26833  15.408   9.497   1.466 -0.0368 -0.2015  0.0217
 9986W        W26834   5.078   4.007   1.810  0.0773 -0.0079  0.0241
 9987W        W26835  14.233   1.811  16.186 -0.3187  0.0428 -0.0978
 9988W        W26836   3.687  14.065  13.023  0.0421 -0.1530 -0.1177
 9989W        W26837  10.491   2.840   1.048  0.0643  0.0674 -0.1304
 9990W        W26838   4.970  15.897   5.503  0.2694 -0.1063 -0.0615
 9991W        W26839  16.219  15.519   4.054 -0.2805 -0.1409  0.1279
 9992W        W26840   0.409   5.408   3.116 -0.0829  0.0333 -0.1180
 9993W        W26841  11.826   1.649   3.414  0.1024 -0.2902 -0.0062
 9994W        W26842  10.103   0.669  10.461  0.2371  0.0571 -0.1647
 9995W        W26843   0.852   2.407   4.695 -0.0150 -0.2752  0.3366
 9996W        W26844   8.999  12.346   1.130 -0.0372 -0.0634 -0.1238
 9997W        W26845   5.337  16.761   4.400  0.5455 -0.0159 -0.4742
 9998W        W26846   8.662   7.348   5.564 -0.1939  0.0417  0.1823
 9999W        W26847   1.792  17.681   2.661  0.0192 -0.2551 -0.1405
10000W        W26848   2.798   5.020   2.801 -0.1192 -0.1549  0.0599
10001W        W26849  10.506  16.549  15.633  0.0318 -0.3195  0.0831
10002W        W26850   4.653   2.885   1.918 -0.1217  0.0782  0.1811
10003W        W26851  11.235  11.799  16.304  0.3643 -0.1438 -0.1224
10004W        W26852   3.734   4.322  15.559 -0.0471  0.0104 -0.0976
10005W        W26853  17.596  10.708   3.531  0.1618  0.0794  0.2400
10006W        W26854   1.954  10.944   2.037 -0.1605 -0.2710  0.0152
10007W        W26855  14.129   0.768  16.144 -0.0000 -0.1316 -0.0671
10008W        W26856   8.082   2.897   3.414  0.0804 -0.2400 -0.3127
10009W        W26857   3.738   1.600   4.919  0.0204 -0.1762  0.1231
10010W        W26858   8.444  10.665  15.320 -0.0041  0.2893  0.0540
10011W        W26859   2.837  16.170   4.183  0.0289 -0.0029 -0.0927
10012W        W26860  10.463   0.333  14.031 -0.1635 -0.0278  0.3148
10013W        W26861   5.633   9.664  12.641  0.0885 -0.0886  0.1137
10014W        W26862  16.360   9.409  11.758 -0.0037 -0.1841 -0.0994
10015W        W26863   6.597   9.478  15.808 -0.2105 -0.3010 -0.1834
10016W        W26864   8.552  15.050   2.806  0.1727 -0.1279 -0.1862
10017W        W26865  12.798   1.926   4.491 -0.3594  0.2128 -0.1245
10018W        W26866  16.567  12.495   1.109 -0.0298  0.2071  0.0566
10019W        W26867   5.147   7.451   3.904 -0.0411 -0.1041  0.1493
10020W        W26868   4.672  17.864  11.770 -0.1297  0.2142 -0.1973
10021W        W26869  13.577   4.164  11.025  0.1675  0.0229 -0.1626
10022W        W26870   4.213   5.016  14.029  0.0449 -0.0058 -0.0327
10023W        W26871   0.250   6.317   4.143 -0.0979 -0.2367 -0.1558
10024W        W26872   6.348   6.765  13.900  0.0039  0.0822  0.2221
10025W        W26873   4.963   3.392   4.283 -0.0780 -0.0821 -0.0410
10026W        W26874   6.445   5.951   3.822  0.2096  0.2592  0.3827
10027W        W26875   4.420  12.759   4.342  0.1814 -0.1398 -0.0224
10028W        W26876   8.567   7.296  13.803 -0.0272  0.0898  0.0009
10029W        W26877   8.831  13.757   3.496  0.2816  0.1764 -0.0656
10030W        W26878   1.237  10.196   1.297  0.0115 -0.0775  0.0393
10031W        W26879   3.712  10.951  12.823  0.1961 -0.0660  0.0313
10032W        W26880  13.011   3.445   0.561 -0.1130  0.1818  0.0528
10033W        W26881  17.669  15.099  14.825 -0.0531  0.0026 -0.0378
10034W        W26882   5.086   2.845  15.816  0.0979 -0.0125 -0.1319
10035W        W26883   4.294   5.891   4.199 -0.0183  0.2831 -0.1982
10036W        W26884  16.109  10.867  13.300  0.0824 -0.3813  0.1209
10037W        W26885   2.279  16.062   6.168 -0.0217  0.1036  0.0145
10038W        W26886   9.147  10.060   2.917  0.1281  0.2135 -0.0149
10039W        W26887   0.580   2.124   0.741 -0.0994 -0.1144 -0.2072
10040W        W26888   2.001   4.020  14.190  0.1496  0.0817  0.0666
10041W        W26889  16.738  15.496  11.591  0.4954 -0.2032  0.0556
10042W        W26890  15.146  14.421  13.065 -0.0037  0.0357 -0.0997
10043W        W26891  10.832  14.777  13.648 -0.2484 -0.1095  0.2067
10044W        W26892  15.810   5.701   5.846  0.0169  0.0020  0.3222
10045W        W26893   4.026   9.688  13.714 -0.3650  0.0346 -0.1931
10046W        W26894   0.544  15.683   1.851 -0.0007  0.2256  0.0015
10047W        W26895  13.132   9.106  13.933 -0.2198 -0.0405 -0.0475
10048W        W26896   6.063  16.406   1.199  0.0855  0.2711 -0.2052
10049W        W26897  12.346  17.154  12.949 -0.0318 -0.1348  0.0061
10050W        W26898   8.596   0.589  14.353  0.2002  0.2090 -0.0092
10051W        W26899   0.064  15.632   4.102 -0.1893  0.2024 -0.1107
10052W        W26900  16.846   1.245  13.800 -0.1760 -0.1107 -0.0252
10053W        W26901   2.707   6.370   3.119  0.3940  0.2363 -0.0429
10054W        W26902   7.223   5.824  16.010 -0.1681  0.0900  0.2051
10055W        W26903  17.529   6.521   4.555  0.1910  0.1870  0.2267
10056W        W26904   9.553   8.614  13.871 -0.0924  0.2011  0.4239
10057W        W26905  11.052  11.495  12.432  0.3010  0.1521 -0.1092
10058W        W26906   0.720  12.627  15.934 -0.4327  0.1856  0.1090
10059W        W26907   9.197   6.275   0.742 -0.1236  0.3227 -0.2536
10060W        W26908   1.106  16.640  15.205 -0.0005  0.0082 -0.1701
10061W        W26909   5.281   8.524  14.997  0.0896 -0.2000 -0.2166
10062W        W26910   7.568  13.033   3.259  0.4890 -0.1248  0.1183
10063W        W26911  10.231   5.996  16.320 -0.1775  0.1170  0.0895
10064W        W26912   6.050   6.862  14.437  0.0257  0.0628  0.5139
10065W        W26913  17.022   1.508  14.811  0.1668  0.0115  0.3290
10066W        W26914   9.567   6.912   2.608 -0.2999  0.1050 -0.2192
10067W        W26915   2.473   1.423   4.542  0.1937  0.1260  0.1605
10068W        W26916  15.254  13.009  13.499 -0.1873 -0.1846  0.4528
10069W        W26917  10.201   3.601   0.410  0.0107  0.0705 -0.0584
10070W        W26918  13.102   4.066   0.049  0.1655 -0.1644  0.1922
10071W        W26919  16.270   6.376  12.382 -0.1609 -0.1435 -0.0870
10072W        W26920   7.590  11.284   9.915  0.0863  0.0924  0.2825
10073W        W26921  12.378  12.369  14.290 -0.2468  0.0323 -0.0161
10074W        W26922   7.406   9.801   4.495 -0.1334 -0.2812  0.0437
10075W        W26923   5.451   2.345  14.288 -0.1752 -0.2403 -0.4113
10076W        W26924  16.376  12.304   3.619 -0.1568 -0.1663 -0.1211
10077W        W26925  14.025   8.412   1.626 -0.1122 -0.2395 -0.1162
10078W        W26926  16.970  12.019   5.023 -0.0098 -0.0652 -0.0955
10079W        W26927   7.011  15.393  14.920  0.3051  0.1737  0.1348
10080W        W26928   5.171   9.176   3.911 -0.3205  0.0024 -0.1155
10081W        W26929   8.606   8.346  12.676  0.0609  0.0707 -0.0235
10082W        W26930  14.862   0.992  12.721  0.0032  0.1949 -0.4081
10083W        W26931   3.624   5.977  12.703 -0.0703  0.2908 -0.4394
10084W        W26932  13.719  12.560  11.724 -0.3055 -0.1160  0.0998
10085W        W26933  17.157   3.293  11.999 -0.0732 -0.0768  0.0297
10086W        W26934  13.429   6.141   4.182 -0.4133  0.0455  0.0348
10087W        W26935  12.256   6.162   4.134 -0.2093  0.0034  0.3211
10088W        W26936  13.146   9.809  14.577  0.2145 -0.1781  0.0357
10089W        W26937   8.438   2.308  14.811 -0.2257 -0.0694 -0.5927
10090W        W26938  13.345   8.289  11.614 -0.0065  0.2273  0.4208
10091W        W26939   4.388  11.514   2.816  0.1592  0.2780  0.2449
10092W        W26940   3.224   7.561   4.574  0.0042  0.0865  0.0032
10093W        W26941  11.740   3.264  16.150 -0.1653 -0.0371 -0.0409
10094W        W26942   5.992   7.608  10.247  0.3216 -0.2055 -0.0203
10095W        W26943  16.655   0.197  15.190 -0.1807 -0.1357  0.1235
10096W        W26944   7.235   5.614  11.247  0.3218  0.1594  0.0613
10097W        W26945  15.365   0.235   1.377  0.0221 -0.1444  0.4492
10098W        W26946   8.747   5.676  15.974 -0.2673 -0.1814 -0.1933
10099W        W26947  14.395  12.683  13.273 -0.0071  0.0569 -0.0444
10100W        W26948   6.209   6.117  15.917  0.0809  0.0239 -0.0957
10101W        W26949   2.558  13.784  16.110 -0.1010  0.0283 -0.0386
10102W        W26950  17.666   6.096   4.278 -0.2170 -0.5003  0.2324
10103W        W26951  17.143  10.352  15.298 -0.2543  0.2657 -0.2677
10104W        W26952  14.322   8.247  13.626 -0.1522 -0.0904 -0.0617
10105W        W26953   2.102   5.711   6.112 -0.4468 -0.0206 -0.3171
10106W        W26954   1.019  14.130  11.846 -0.1953 -0.4710 -0.0117
10107W        W26955   8.747   6.409  12.733  0.1887 -0.1570 -0.2317
10108W        W26956  12.538   3.868   3.896  0.0264  0.1270  0.2828
10109W        W26957  17.872  15.089  16.274 -0.0400 -0.1170  0.3435
10110W        W26958   4.131   6.605   1.755  0.1995  0.0621 -0.2206
10111W        W26959  14.406   8.654   0.374  0.2023 -0.3435 -0.2880
10112W        W26960  10.967   1.327  14.886 -0.0386  0.1395  0.0449
10113W        W26961  16.112  10.024   0.570  0.2222  0.1593 -0.1557
10114W        W26962  14.076   8.989  13.347 -0.0162  0.3004 -0.1225
10115W        W26963  17.162  13.681  15.419  0.0815  0.1106 -0.2362
10116W        W26964  10.569   4.582   4.207  0.1210 -0.1980  0.0651
10117W        W26965   4.142  17.181  11.680  0.0284  0.1422 -0.0346
10118W        W26966   6.019   4.086  14.368  0.0973 -0.1445 -0.2927
10119W        W26967   2.178  12.795  15.045 -0.0926 -0.1781 -0.0469
10120W        W26968   1.839   4.451  15.870 -0.1589  0.0643 -0.0409
10121W        W26969   0.578   5.426  13.167 -0.4228  0.1532  0.3967
10122W        W26970   2.070  10.653  11.442  0.0569 -0.2652  0.1118
10123W        W26971  12.426   2.148   4.218  0.0588  0.6185  0.0720
10124W        W26972   7.758  17.591   2.658  0.3617  0.0363  0.1994
10125W        W26973   3.535  12.255  12.711 -0.2561  0.1932  0.0015
10126W        W26974   6.420   3.342  12.130 -0.1824 -0.0299  0.2496
10127W        W26975  10.575   0.984   3.498 -0.0116 -0.0611 -0.0162
10128W        W26976  17.903   1.612   4.546  0.0437  0.0066  0.1579
10129W        W26977   5.559  15.487  13.875  0.3139  0.0792 -0.0360
10130W        W26978   4.999   0.468   0.194  0.0179 -0.2451  0.1487
10131W        W26979   4.820   9.842   3.274 -0.2627  0.2785  0.0286
10132W        W26980  11.065  17.970  13.515 -0.0572  0.2345  0.1447
10133W        W26981   4.013   9.016   3.050  0.0045  0.1719 -0.0032
10134W        W26982   7.175  14.417   1.900 -0.1722  0.0500  0.0879
10135W        W26983   3.136   8.565   2.071 -0.0466  0.1839  0.0312
10136W        W26984   3.520  15.855  14.369 -0.0054  0.1117  0.0731
10137W        W26985   7.036   5.634  14.273  0.3489  0.0559 -0.1058
10138W        W26986  10.359   6.848   0.015 -0.0648 -0.4000  0.0803
10139W        W26987   2.483   6.262   0.136 -0.1856  0.1867  0.0574
10140W        W26988  11.517  11.718  13.744 -0.4127 -0.0152 -0.1419
10141W        W26989   6.718  11.627  12.983 -0.0353 -0.1655  0.0861
10142W        W26990   5.319   5.998   0.650 -0.4591  0.2850  0.0258
10143W        W26991   8.476   6.458   2.805  0.1803  0.1090 -0.2728
10144W        W26992   5.795   5.100   0.573 -0.1205  0.2398 -0.1961
10145W        W26993  15.185   8.154  13.600  0.1225  0.1370 -0.2443
10146W        W26994   8.423  10.963   0.066 -0.1392 -0.0932 -0.1951
10147W        W26995   7.187  11.628   3.752  0.0838 -0.3680 -0.1396
10148W        W26996  11.893   1.987  12.252 -0.1338 -0.1668 -0.0832
10149W        W26997  11.839   5.180  13.620 -0.2815 -0.1292  0.2248
10150W        W26998  15.312  15.706   2.040  0.3612 -0.1704  0.0389
10151W        W26999   6.326  16.040   2.535 -0.1264  0.1192  0.1916
10152W        W27000   6.088  17.737   4.623  0.3353 -0.0591 -0.0181
10153W        W27001   3.513  12.933  14.319  0.4486 -0.3039 -0.1193
10154W        W27002  10.087   6.151   5.592 -0.2025  0.0393  0.1360
10155W        W27003  16.044   8.935   0.992 -0.1147 -0.0555 -0.0292
10156W        W27004   1.766   9.619  13.244 -0.1932  0.0129  0.0216
10157W        W27005   3.019   9.944   0.736  0.0449 -0.1209  0.0443
10158W        W27006   2.247  16.840   1.252  0.0270 -0.1154 -0.3025
10159W        W27007  17.428   9.282  13.154  0.2087 -0.0972 -0.0578
10160W        W27008  12.122  16.178  16.209 -0.0039 -0.1990  0.0478
10161W        W27009   7.384  17.023  15.706  0.0139 -0.1503  0.1224
10162W        W27010   7.165   4.745   1.011 -0.0768  0.0028  0.1384
10163W        W27011  17.188  17.875  16.165 -0.3849 -0.1024  0.3912
10164W        W27012   3.976   2.212   5.419 -0.2843 -0.0699  0.0589
10165W        W27013  17.566   9.258   3.555  0.1098  0.3344 -0.1300
10166W        W27014  15.319   2.424   4.921 -0.1842 -0.1514 -0.3406
10167W        W27015   8.618   3.687   5.133 -0.1550  0.1493 -0.1238
10168W        W27016  15.990  12.313   0.665  0.1196  0.0012 -0.0904
10169W        W27017  17.057   0.820   2.511 -0.1746  0.0303  0.1139
10170W        W27018   5.736  13.527   1.035 -0.2778 -0.1811 -0.1350
10171W        W27019   6.027   7.895  12.969 -0.2923 -0.1823  0.1786
10172W        W27020  13.206   3.701  16.000 -0.1460 -0.1193 -0.4840
10173W        W27021   8.777  16.423   5.569  0.4472 -0.3450  0.1052
10174W        W27022  15.208   2.977   3.514 -0.1546  0.1948 -0.0124
10175W        W27023   8.577   2.495   1.287  0.0502 -0.0708 -0.1952
10176W        W27024  11.995  12.501  11.580 -0.0555  0.0088 -0.3150
10177W        W27025  13.367  16.142   4.459 -0.2469 -0.1429  0.3546
10178W        W27026   3.265   7.299  13.275 -0.1238  0.2641 -0.0313
10179W        W27027  10.900  11.486  15.362  0.1436  0.1453  0.1302
10180W        W27028   7.776   7.092  11.825 -0.2102 -0.2902 -0.4072
10181W        W27029   4.379   1.345  12.313 -0.1568  0.2490 -0.0360
10182W        W27030   8.843   0.168  14.452 -0.1454  0.0729  0.2444
10183W        W27031  17.309   5.688  12.803  0.1645 -0.3876  0.2114
10184W        W27032   4.265   7.617   3.597  0.1588 -0.0930 -0.2451
10185W        W27033  13.896   0.322   3.981 -0.0296 -0.0198 -0.1620
10186W        W27034   4.435   7.126  12.374 -0.0128  0.0302  0.0815
10187W        W27035   0.495   0.187   1.816 -0.0517  0.0282 -0.2086
10188W        W27036  12.725   4.072  11.768 -0.0809 -0.2716  0.0729
10189W        W27037  15.610   8.396  13.397 -0.0585  0.0665 -0.0822
10190W        W27038   6.299   1.296  14.822 -0.1551  0.1287  0.2081
10191W        W27039  15.156   0.602  10.940  0.0674  0.0355 -0.2023
10192W        W27040   6.753  10.623  15.801 -0.1590  0.1412  0.1833
10193W        W27041   6.116   8.118  13.918  0.1587  0.1516  0.3586
10194W        W27042  17.324  16.853   3.851 -0.3209 -0.3284  0.0483
10195W        W27043  13.110   5.485   0.517 -0.5392  0.0900 -0.0889
10196W        W27044  10.612  13.059   1.682  0.0687 -0.0045  0.1916
10197W        W27045  16.828   6.005   4.585  0.0021 -0.0340 -0.0379
10198W        W27046   3.585   5.782   3.547 -0.3645  0.1908 -0.1106
10199W        W27047   6.257  12.932   2.031  0.0982 -0.2864  0.2686
10200W        W27048   8.488   3.669  12.449 -0.1763  0.0215 -0.0579
10201W        W27049  16.979   6.437  16.099  0.2413 -0.0879 -0.0911
10202W        W27050   7.249   3.698  11.069  0.0416  0.0878 -0.3786
10203W        W27051  12.191  13.256  15.542 -0.1239 -0.1163  0.3470
10204W        W27052  14.228   2.467  15.036  0.2427 -0.0731 -0.0638
10205W        W27053   0.148  11.631   0.005  0.0674  0.4058  0.0132
10206W        W27054   3.263  15.495  11.605 -0.0377  0.1710  0.1544
10207W        W27055  14.229   0.498  13.925 -0.3694  0.0683 -0.1304
10208W        W27056   7.044  16.884  15.204  0.2270 -0.1670  0.0633
10209W        W27057   8.365  15.238  15.565 -0.1305  0.2175 -0.0220
10210W        W27058  17.261  12.173   3.363 -0.2499  0.0826 -0.0615
10211W        W27059  13.303   3.014  13.480 -0.1254 -0.2892  0.2482
10212W        W27060  12.746   5.504  13.192 -0.1059 -0.0421 -0.0062
10213W        W27061  14.565   8.880   1.137  0.2273  0.0133 -0.0277
10214W        W27062  17.762   5.386   0.212  0.1375 -0.1455 -0.1283
10215W        W27063  13.495   4.293  12.271 -0.1761 -0.1535  0.0410
10216W        W27064  13.479  10.791  14.715 -0.2055  0.1659 -0.5921
10217W        W27065   2.479  14.651   2.838 -0.3885 -0.1820  0.0247
10218W        W27066   2.999  14.154   5.231  0.0883 -0.4326 -0.0294
10219W        W27067  11.188   9.342  15.699  0.1266 -0.3377  0.0834
10220W        W27068   3.581  17.894  13.514 -0.1031  0.2473 -0.1984
10221W        W27069   0.281   8.806   1.021  0.2087 -0.3124  0.1737
10222W        W27070   0.124   5.823  16.265  0.2912 -0.1600 -0.2266
10223W        W27071   2.467  11.740  11.682  0.0170  0.1403 -0.1484
10224W        W27072  17.021   1.160  13.180  0.1430 -0.2103  0.1060
10225W        W27073   6.488  17.549  10.993 -0.2570 -0.0715 -0.2609
10226W        W27074   9.400  17.577   1.674 -0.1201  0.1026 -0.2677
10227W        W27075   0.474  13.576  11.358  0.0220  0.0620  0.1717
10228W        W27076   1.194   1.018   1.536 -0.0588  0.2878 -0.3231
10229W        W27077  16.236   7.047  15.120 -0.0680 -0.1710  0.1688
10230W        W27078   6.234   3.601  11.210 -0.0967 -0.0350  0.1315
10231W        W27079   8.570   7.157  11.594 -0.2357  0.1800  0.2720
10232W        W27080  17.913  16.832   4.315  0.5036  0.2336 -0.1358
10233W        W27081   5.219   6.788   4.719  0.2300  0.0453  0.0483
10234W        W27082  17.940   1.129   0.796 -0.0194 -0.1598  0.0183
10235W        W27083  16.670  12.794   0.144  0.2595 -0.1159  0.3849
10236W        W27084  15.626   6.157  14.536  0.0121 -0.0589 -0.0200
10237W        W27085   6.674   8.779  12.991  0.0576  0.1256  0.1991
10238W        W27086  15.003   0.263  11.959 -0.0868 -0.1372 -0.0214
10239W        W27087  11.763   4.305  13.402  0.0991  0.1544 -0.1410
10240W        W27088   5.590  10.499   4.841 -0.2516 -0.1396 -0.1563
10241W        W27089  10.828   0.986   2.785  0.0126  0.0805  0.3012
10242W        W27090  13.815   9.555   1.926  0.1077 -0.1125  0.0245
10243W        W27091   6.899   7.390  14.966  0.2069 -0.0460  0.0597
10244W        W27092   4.969  13.691   0.288  0.1585 -0.1636 -0.0416
10245W        W27093  10.593  11.313  11.101 -0.3840  0.1204  0.0391
10246W        W27094   2.016  13.351   4.829  0.2189  0.1385  0.1262
10247W        W27095   9.788   5.234   3.261 -0.1010 -0.0190  0.0242
10248W        W27096  14.249  16.964   0.456 -0.6965  0.1282  0.0341
10249W        W27097   0.494   3.694   4.250 -0.2938  0.1197  0.1856
10250W        W27098   1.357  10.835  12.688  0.1042 -0.1006  0.2647
10251W        W27099   9.963   0.240   4.858 -0.0995  0.2459  0.1051
10252W        W27100  10.975   2.036  15.778 -0.0495 -0.0318 -0.2319
10253W        W27101   0.150   5.354   0.164  0.1984 -0.1331  0.3853
10254W        W27102   1.608  14.000   4.221 -0.1323  0.0575 -0.3303
10255W        W27103  11.027  17.941   2.178 -0.0370  0.0296 -0.1253
10256W        W27104  16.111   7.658  14.470  0.0095  0.1540  0.0810
10257W        W27105   5.394  14.587   1.741 -0.1513  0.1066  0.0331
10258W        W27106   6.547   8.774   2.992  0.1829 -0.0173 -0.2569
10259W        W27107  16.614  12.028  13.715  0.1702 -0.2755  0.1800
10260W        W27108   6.189  10.900   0.212  0.0953  0.2802 -0.0401
10261W        W27109   0.660  17.099   1.240  0.2047 -0.2067  0.1400
10262W        W27110  11.178   6.084  12.032 -0.0465 -0.0153 -0.1066
10263W        W27111  14.745   8.932   2.622  0.0815  0.1173 -0.0868
10264W        W27112  13.131  15.957   3.181  0.0271 -0.0985 -0.1722
10265W        W27113  11.930  12.633  12.403  0.0281 -0.0110 -0.2221
10266W        W27114   1.955   5.199  15.074  0.0743 -0.1669 -0.3792
10267W        W27115  10.237  16.427   2.282 -0.0131 -0.0907 -0.3601
10268W        W27116  15.541   5.612  16.034  0.1351  0.2067 -0.0357
10269W        W27117  15.078   6.444   0.607 -0.2620 -0.2145  0.0484
10270W        W27118  11.706   7.087   0.150 -0.1052 -0.2237  0.2418
10271W        W27119   6.626  17.899   3.972  0.2117 -0.1090 -0.0455
10272W        W27120  10.031   0.097   3.427  0.3051  0.0548  0.1115
10273W        W27121   1.651  12.300   2.514  0.0981  0.1104  0.1817
10274W        W27122   8.534  12.482   2.089 -0.1710  0.2747 -0.1715
10275W        W27123  11.207  14.120  15.197 -0.0627  0.2978 -0.1367
10276W        W27124  17.358   2.470   0.435  0.0434  0.0429 -0.1079
10277W        W27125  11.449   6.398  12.975  0.1527  0.2176 -0.3348
10278W        W27126  14.313   8.748   4.941  0.2391  0.2941 -0.0944
10279W        W27127   4.335   5.744   0.749 -0.0278 -0.1043  0.2600
10280W        W27128  11.493  14.652   1.781 -0.1314  0.0831  0.4059
10281W        W27129  16.736  18.045   1.787 -0.0760  0.0045 -0.0275
10282W        W27130  12.947   6.262  13.765  0.6324 -0.1293 -0.1323
10283W        W27131   4.344   0.387  10.742 -0.0436  0.1048 -0.1011
10284W        W27132   0.693   3.694  11.913  0.3279  0.2542 -0.0453
10285W        W27133  15.447  17.937   2.734 -0.0056  0.1030 -0.2154
10286W        W27134   7.010   3.569   3.844 -0.0181  0.0390 -0.1498
10287W        W27135   6.040  11.339  15.335  0.2063 -0.0800  0.0256
10288W        W27136   6.604   9.117  14.262 -0.1778 -0.0673 -0.1769
10289W        W27137   7.949  11.694   4.624  0.0838  0.0327 -0.1646
10290W        W27138  17.199  11.734   2.008 -0.1655  0.0764 -0.0068
10291W        W27139   3.763   2.729   4.591 -0.1715 -0.0120 -0.0223
10292W        W27140   0.807   6.163  14.645  0.0573  0.0837 -0.3383
10293W        W27141   9.565   7.030  13.631  0.0445  0.0248 -0.0386
10294W        W27142  13.401   9.760   1.630  0.0641  0.3867 -0.1227
10295W        W27143  15.242  16.346   5.167 -0.1612 -0.0296 -0.1807
10296W        W27144  17.492   4.676  13.183  0.0165 -0.1103 -0.0382
10297W        W27145   3.719  16.422  12.560  0.1858  0.3620 -0.2172
10298W        W27146   1.885   4.691  14.923 -0.1429  0.2440 -0.1939
10299W        W27147  15.404   9.108  12.760 -0.0681  0.1173  0.1078
10300W        W27148  17.641  14.779   1.047 -0.0176 -0.0276 -0.2846
10301W        W27149  16.867  13.780   6.386  0.0669  0.4424  0.1111
10302W        W27150   8.500  13.284  12.713  0.3175  0.2031 -0.1951
10303W        W27151   4.259   3.550   4.954 -0.5006 -0.0307 -0.0209
10304W        W27152   2.829   1.223  12.001 -0.0035  0.0523  0.0758
10305W        W27153   0.825   3.450   0.887 -0.0483 -0.0147 -0.1425
10306W        W27154   5.010   9.260   4.947 -0.2626  0.2671  0.1974
10307W        W27155   4.985  12.350   4.054 -0.0166 -0.2716  0.1271
10308W        W27156   5.626   2.464  11.317 -0.1658 -0.0732  0.0691
10309W        W27157  10.650  11.933   0.931 -0.0218 -0.2069  0.0903
10310W        W27158   0.713   6.698  13.021 -0.1365 -0.1358  0.2884
10311W        W27159  10.380  12.084   1.397 -0.2375 -0.0720 -0.1350
10312W        W27160   7.944  17.550  13.085  0.2425  0.0688  0.0076
10313W        W27161  10.391   8.719   0.906  0.2708 -0.1284 -0.1031
10314W        W27162  14.596   0.596   2.603  0.1680 -0.0731 -0.0247
10315W        W27163  12.777  17.889  15.514 -0.1550 -0.2372 -0.0602
10316W        W27164   1.349   0.502   4.328  0.0748 -0.3557 -0.1807
10317W        W27165  14.289  10.630   2.954 -0.2872  0.1355 -0.0326
10318W        W27166  14.938  14.416  12.519 -0.0572  0.1071 -0.3569
10319W        W27167   8.389  17.039  13.409 -0.2034 -0.3077 -0.1606
10320W        W27168  16.402   6.961  12.298  0.1212 -0.0969  0.0600
10321W        W27169  12.552  10.484   2.564  0.1574 -0.2025 -0.0566
10322W        W27170  13.515  13.221   0.786  0.0897  0.0232 -0.2531
10323W        W27171  14.631  11.298  15.687 -0.1479 -0.1611 -0.1223
10324W        W27172   7.559   8.647  14.335 -0.0464 -0.2653 -0.0912
10325W        W27173   5.206  12.301   6.387 -0.1963 -0.2309  0.1064
10326W        W27174   7.248  15.488  11.184  0.0452  0.2999 -0.3173
10327W        W27175   9.861   7.779   2.185 -0.2598 -0.0972 -0.1949
10328W        W27176   1.287   7.042  12.241  0.0029  0.0901  0.0151
10329W        W27177   6.643   9.701   5.377  0.1648  0.0977  0.1805
10330W        W27178   8.963  13.468   2.221 -0.2843  0.1235  0.1160
10331W        W27179   3.270   4.795   1.091  0.0473  0.1983 -0.1876
10332W        W27180  12.900   7.076  11.438 -0.0867  0.1433  0.0455
10333W        W27181  16.349  11.547  15.678  0.1400 -0.1831  0.0470
10334W        W27182   0.060   3.250  12.813  0.0889  0.3249 -0.1254
10335W        W27183  17.347   9.237   4.370  0.4859  0.1133 -0.1496
10336W        W27184  12.398  18.091   2.099 -0.1487  0.2084  0.1620
10337W        W27185   8.729  15.582  14.596 -0.3751 -0.0495  0.0806
10338W        W27186   0.667  15.708   2.401 -0.5610 -0.2920 -0.2673
10339W        W27187  12.377   2.740  12.587  0.2495  0.0391  0.0437
10340W        W27188   3.220   2.581  10.028  0.1487 -0.0195 -0.1120
10341W        W27189   5.492   0.178  15.060  0.1751 -0.0090  0.0755
10342W        W27190  16.891  15.445  16.289  0.2073 -0.0338  0.1534
10343W        W27191  11.630   5.750   5.167  0.0786  0.2305  0.0193
10344W        W27192  15.850   5.260  14.305 -0.0259 -0.0954 -0.0687
10345W        W27193  15.052   8.362  14.053 -0.1824  0.1920 -0.0579
10346W        W27194   9.374   5.667   2.588 -0.0737 -0.0545  0.1945
10347W        W27195  17.307  15.546   2.954  0.2395 -0.2130 -0.1025
10348W        W27196  15.413   9.358   5.069 -0.3136  0.1477 -0.0933
10349W        W27197  13.207   9.501  13.601 -0.0798  0.1899  0.2153
10350W        W27198   4.335   7.552  14.602  0.1326  0.0168  0.2317
10351W        W27199   4.203  15.513  11.108  0.1780 -0.1752  0.1979
10352W        W27200   7.510  11.139   0.497  0.0115  0.0885 -0.2479
10353W        W27201  12.382   0.376   4.269 -0.0466  0.0738  0.1104
10354W        W27202  14.727  12.114  13.762 -0.0286 -0.0868 -0.0400
10355W        W27203   9.342   5.986  12.150 -0.5193 -0.0689 -0.1358
10356W        W27204  17.107   6.977  14.156 -0.0349 -0.2890 -0.0339
10357W        W27205  15.467   1.894  11.838  0.0794 -0.0710  0.0168
10358W        W27206  16.964  13.096  13.211 -0.1018 -0.1223  0.0645
10359W        W27207  10.367   3.043  10.976  0.0118 -0.0847  0.0265
10360W        W27208   8.472   6.635   4.363  0.0868  0.1206 -0.1602
10361W        W27209   8.272   3.871  14.909 -0.1200  0.1166 -0.0331
10362W        W27210   4.702   5.612  12.047 -0.3648  0.0256 -0.0110
10363W        W27211  11.689   6.994  15.862 -0.1428  0.0131 -0.1770
10364W        W27212  11.237   5.253   3.778  0.2684  0.3539 -0.0857
10365W        W27213  15.623  12.806   3.344  0.0056 -0.0101 -0.0842
10366W        W27214  12.866  11.598   1.013  0.3739  0.0339 -0.1776
10367W        W27215   5.092  17.673  12.837  0.2575 -0.0655  0.1769
10368W        W27216   1.514  14.852  12.857  0.0246 -0.1125 -0.0519
10369W        W27217  10.601   2.978   0.577 -0.1942 -0.1861  0.0094
10370W        W27218  15.236  15.049  13.766  0.0677  0.0473 -0.3238
10371W        W27219   4.316   1.215  15.063  0.0089 -0.0427  0.0570
10372W        W27220   1.442   1.166   4.894  0.0788 -0.2893 -0.0981
10373W        W27221   5.935   6.702  15.250 -0.2016  0.4999  0.1415
10374W        W27222   8.326  10.285  12.083  0.3067  0.1298  0.1834
10375W        W27223   6.152   6.781   3.544  0.0283  0.5138  0.2171
10376W        W27224   0.112  14.540   3.379 -0.1771 -0.0862  0.0140
10377W        W27225  17.631   7.497   5.187 -0.3522 -0.1278  0.1040
10378W        W27226   2.338  14.283   5.940  0.1337 -0.1162 -0.2109
10379W        W27227  17.626   2.041   2.137  0.2389  0.0883  0.1085
10380W        W27228   8.929  11.574   3.662  0.0715 -0.0482  0.0794
10381W        W27229   8.618   4.136  12.688  0.2833  0.1099 -0.0959
10382W        W27230  16.022   4.394  14.804  0.0763  0.1771  0.0176
10383W        W27231   5.056   6.289   1.454 -0.0262 -0.0592  0.0069
10384W        W27232  17.587   3.774  14.958  0.1435  0.0926  0.1444
10385W        W27233  13.304   0.849  12.050 -0.2094 -0.1825  0.0335
10386W        W27234   3.824   6.226  15.769 -0.0347 -0.0563  0.0676
10387W        W27235  11.213   2.184  16.285 -0.0843  0.1233  0.0243
10388W        W27236   1.444  15.032  13.893  0.2867  0.1961  0.0697
10389W        W27237  17.559   7.499  14.925  0.1209  0.1286 -0.0106
10390W        W27238  15.113  13.453   4.900 -0.4096 -0.2597  0.0606
10391W        W27239   5.585   9.651  14.511  0.2541 -0.1160  0.1116
10392W        W27240   9.394   8.946  16.318  0.0570 -0.2563  0.0336
10393W        W27241   0.879   2.642   0.617  0.0133  0.2395 -0.1064
10394W        W27242   1.386  15.981   3.286  0.0875  0.0296 -0.2147
10395W        W27243  13.449   9.426  16.272  0.0665 -0.2353 -0.1223
10396W        W27244  14.815   5.097  12.491 -0.4713 -0.0741  0.2346
10397W        W27245   6.263   0.076  12.990 -0.2898  0.1558  0.0254
10398W        W27246  16.449   2.990   4.392 -0.1297 -0.0888  0.0111
10399W        W27247   7.695   3.701  14.756 -0.0622 -0.4072 -0.1394
10400W        W27248  17.099  15.154   1.437  0.2884 -0.1212  0.0172
10401W        W27249  14.355  12.173   1.089  0.2736 -0.2506  0.1599
10402W        W27250  17.533  14.597   2.624  0.1232  0.0347  0.0571
10403W        W27251  11.998   2.105   3.523 -0.2517  0.2198  0.5108
10404W        W27252  10.695  16.060  14.808 -0.0266  0.2062 -0.0461
10405W        W27253  10.475   9.531  12.514  0.1700 -0.2105 -0.1230
10406W        W27254  18.053   6.373   2.259  0.0635 -0.1677  0.1796
10407W        W27255   3.364  11.338  12.822  0.0986  0.0415 -0.1886
10408W        W27256   9.764   8.832  13.296  0.0862  0.1617  0.0826
10409W        W27257  13.863  10.610   1.980  0.2032  0.0857  0.1639
10410W        W27258  14.909  17.251  15.654  0.1627 -0.2751  0.2358
10411W        W27259  17.775  10.022   3.741  0.0107 -0.1226  0.0610
10412W        W27260  11.682  13.584  12.441 -0.0934  0.3723 -0.0003
10413W        W27261   0.084  16.554   3.367 -0.1654 -0.1889  0.1803
10414W        W27262   9.168  14.965   3.923  0.1995  0.0961  0.3755
10415W        W27263  10.600  12.216   1.831  0.1987  0.0231 -0.2239
10416W        W27264   2.876   9.861  14.393 -0.0644  0.1461  0.1807
10417W        W27265  13.813   6.829  14.297  0.1107  0.1072  0.0864
10418W        W27266   8.643  12.954  15.713  0.1879 -0.0910 -0.2486
10419W        W27267   4.437   3.933  14.977  0.1154 -0.0780 -0.0388
10420W        W27268   1.393   5.096  10.675 -0.0006 -0.1253  0.1292
10421W        W27269   7.121   5.356  16.097  0.1186 -0.2626  0.0051
10422W        W27270  16.438  15.142  11.816  0.0279 -0.2814 -0.2540
10423W        W27271  14.558  13.216   1.900  0.0766  0.3927 -0.0040
10424W        W27272  16.081  13.727  14.482  0.0084 -0.0531 -0.0048
10425W        W27273  14.391  10.768  13.667 -0.1439  0.0536  0.1767
10426W        W27274   0.206   6.880   4.269 -0.2248  0.0247  0.1754
10427W        W27275  12.814   0.131   3.554  0.0319  0.0910 -0.2905
10428W        W27276   8.225  12.749   2.544 -0.1029 -0.0825  0.2453
10429W        W27277   2.598   7.111   1.956  0.1239 -0.3302  0.2913
10430W        W27278  13.750   4.611  11.910  0.0622 -0.0596  0.1282
10431W        W27279  11.879  16.055   4.057 -0.2978  0.2107 -0.0400
10432W        W27280  12.691   4.861   3.962  0.0944 -0.0556 -0.0289
10433W        W27281   5.177   9.251   0.136  0.0924 -0.0527  0.1915
10434W        W27282   7.223   1.251  12.899 -0.1679 -0.0589  0.3568
10435W        W27283  16.172   6.829   4.973 -0.0383  0.0026  0.0722
10436W        W27284   1.452  16.435  12.424 -0.0530 -0.0033  0.2663
10437W        W27285   6.092  10.138   1.385  0.0184  0.0475  0.1501
10438W        W27286  10.998   8.556   1.993  0.4166 -0.1204 -0.0353
10439W        W27287   5.483  13.354  11.640  0.1149  0.0850 -0.0144
10440W        W27288   4.632  13.006  11.180 -0.1564 -0.2175 -0.0121
10441W        W27289   8.352  10.173   4.119 -0.1242 -0.0605  0.0908
10442W        W27290   4.034   0.579   1.989 -0.0625 -0.1023 -0.2026
10443W        W27291  13.385  17.079  13.723 -0.2946  0.1075 -0.0100
10444W        W27292   2.094   1.643   2.934 -0.0920  0.0917  0.2665
10445W        W27293   6.441  14.258   2.248  0.1426 -0.1471 -0.1796
10446W        W27294  12.471  14.533   5.488 -0.0209 -0.0424 -0.0967
10447W        W27295   5.571  13.718  15.981 -0.0689 -0.1009 -0.0187
10448W        W27296  12.517  17.498   4.683 -0.0946 -0.1248 -0.2936
10449W        W27297  14.604   6.092  14.878 -0.2832 -0.1363  0.1986
10450W        W27298   4.983   3.879   4.478  0.2427 -0.0341 -0.3433
10451W        W27299  16.428   6.524  13.897 -0.1764  0.0622  0.1144
10452W        W27300   4.273  17.788   5.265  0.2868 -0.0175  0.2439
10453W        W27301   0.532   7.506  12.794 -0.2308 -0.0801  0.0439
10454W        W27302   1.680  17.211  14.791 -0.0883 -0.1593  0.2071
10455W        W27303   5.922   4.890   2.790 -0.0790 -0.1046 -0.0768
10456W        W27304  13.465  14.865  11.742  0.1096  0.0449 -0.0092
10457W        W27305  11.754   2.629   2.793 -0.1344  0.0710 -0.1149
10458W        W27306   0.941   3.221  12.378  0.1522 -0.1110  0.0662
10459W        W27307  13.319   0.112  14.584 -0.0907  0.1890 -0.0334
10460W        W27308   5.637   6.795  16.129  0.3142 -0.0151  0.0452
10461W        W27309   6.423   7.439  12.104  0.0402  0.3126  0.2648
10462W        W27310   8.662   6.887   3.603  0.0008 -0.2962 -0.0381
10463W        W27311  17.854  12.395   0.387  0.0858  0.0066  0.0254
10464W        W27312  11.711   6.197  13.343  0.1101  0.3008 -0.1381
10465W        W27313   9.093   9.309   2.323 -0.0237  0.1926 -0.0029
10466W        W27314  15.150  12.298  13.909 -0.1939  0.0437 -0.1662
10467W        W27315  15.972  10.531   5.627 -0.2135  0.0951 -0.2231
10468W        W27316  17.135   8.040   4.545  0.0107 -0.2333 -0.0240
10469W        W27317  17.144   1.381  12.160 -0.1504 -0.0855 -0.1159
10470W        W27318   7.676  11.226   0.974  0.1696  0.1473  0.1417
10471W        W27319  12.846   1.871  12.853  0.4384  0.0990  0.2098
10472W        W27320  14.860   0.279  10.740 -0.0872 -0.0885  0.2623
10473W        W27321  12.871   5.577   1.121 -0.1385 -0.1706 -0.3086
10474W        W27322  17.875   5.573  13.393  0.2235 -0.1538 -0.2425
10475W        W27323   3.076   5.153  13.102  0.1383  0.1278 -0.0286
10476W        W27324   1.794  17.109  16.080 -0.0729  0.0811 -0.1376
10477W        W27325   3.095   2.452   0.101 -0.2303 -0.1042  0.1125
10478W        W27326   6.264   1.721   4.249  0.0673  0.0079 -0.1085
10479W        W27327  16.375  10.840  11.579  0.0330 -0.0692  0.0118
10480W        W27328  10.231  14.845  15.031  0.3106  0.0682  0.4159
10481W        W27329   4.133   9.253  12.348  0.2718  0.2815 -0.0195
10482W        W27330   1.825  18.062  15.834 -0.2435  0.1862 -0.0988
10483W        W27331   4.582   4.796  13.766  0.0307  0.3512 -0.0510
10484W        W27332   6.045  12.688   0.729 -0.0243 -0.0424 -0.0028
10485W        W27333   0.433   2.157  15.141 -0.0370  0.1354  0.0743
10486W        W27334  15.481   0.272   0.020  0.2502 -0.3137  0.2294
10487W        W27335   3.725  10.512  15.384  0.0040  0.1413 -0.0130
10488W        W27336   3.467   8.718   1.732 -0.1657 -0.1395  0.1682
10489W        W27337   0.811   3.627   0.373 -0.0849  0.0895 -0.3618
10490W        W27338  12.045   5.770  12.904 -0.0679 -0.1170  0.2083
10491W        W27339   4.471  15.867   0.089 -0.0587  0.0492  0.1166
10492W        W27340  12.021  13.817   5.192  0.1600  0.1369 -0.1522
10493W        W27341   4.516   3.412  11.826  0.1062 -0.1796  0.0221
10494W        W27342   1.135   6.548   2.107  0.3537 -0.0066  0.0587
10495W        W27343  11.349   5.309   1.340 -0.0746 -0.0230 -0.1981
10496W        W27344   7.652   3.396   2.590  0.0417 -0.0803 -0.1567
10497W        W27345   7.482   3.979   3.200 -0.2539  0.1815  0.2615
10498W        W27346   0.878  17.473   2.088  0.1530  0.0417 -0.0807
10499W        W27347   2.602   6.959  12.242  0.1625 -0.0149  0.0250
10500W        W27348   3.222   9.138   0.014  0.1607 -0.1077  0.3135
10501W        W27349  11.921   4.895   0.246 -0.2251 -0.0985 -0.1034
10502W        W27350  15.575   2.406  12.597 -0.0362 -0.1654  0.0225
10503W        W27351   1.172   7.905   0.514 -0.3176  0.1836 -0.1243
10504W        W27352   0.567   3.123  14.755 -0.1098  0.1437  0.0472
10505W        W27353   0.461   9.160  12.236  0.0877 -0.0372 -0.0240
10506W        W27354   7.476   6.905   1.566 -0.0197  0.0206  0.0921
10507W        W27355  14.057   5.111  11.900  0.0809 -0.0337 -0.1630
10508W        W27356   5.339   6.531   3.780  0.1732  0.0630 -0.1050
10509W        W27357  13.329   6.629  15.825 -0.1144 -0.0921 -0.0690
10510W        W27358   5.838  17.861  12.990  0.0095  0.1817  0.1729
10511W        W27359   6.082  13.962   3.075  0.1449 -0.2023  0.1808
10512W        W27360   9.321  16.924  13.656 -0.0930 -0.1510  0.1287
10513W        W27361  12.747   9.369  11.183 -0.0106  0.0129 -0.2884
10514W        W27362  14.848  11.408  12.987 -0.2023  0.2496 -0.3361
10515W        W27363  17.378   4.832   2.911 -0.0362  0.2217  0.0408
10516W        W27364  14.341  10.384   0.402  0.1076 -0.0260 -0.0309
10517W        W27365   7.781   1.605   4.948  0.1122 -0.2257  0.0155
10518W        W27366   3.512   9.443  13.080 -0.3567  0.0855  0.2525
10519W        W27367   4.322   6.709  16.181 -0.0363 -0.0839  0.0067
10520W        W27368   2.539  10.353   4.860  0.3761 -0.0459 -0.0604
10521W        W27369   9.083  13.876   0.511 -0.0467 -0.2316 -0.1179
10522W        W27370   3.769  11.435   3.296 -0.1709  0.0169 -0.0249
10523W        W27371   2.725  15.956  13.474 -0.1002  0.0041 -0.0427
10524W        W27372   3.393  10.180   5.351  0.2511 -0.3317  0.3344
10525W        W27373   2.156   8.019   2.277  0.2204  0.1272  0.0945
10526W        W27374  17.711   0.762   4.162  0.0092  0.1273 -0.3174
10527W        W27375   0.328  12.073   2.733 -0.0143 -0.1256 -0.2255
10528W        W27376  14.773  16.570  13.471 -0.1220 -0.0071  0.0990
10529W        W27377   7.100   0.781   0.223  0.4177  0.1044  0.0651
10530W        W27378   4.350   2.411  13.994 -0.1083  0.0635 -0.3710
10531W        W27379   4.384   1.207  13.283  0.1279 -0.0712  0.1095
10532W        W27380   3.182   6.498  12.886 -0.2014 -0.1466 -0.2188
10533W        W27381  16.586   7.504   2.351 -0.0150  0.0310 -0.2409
10534W        W27382   4.078  12.917  14.259  0.3789  0.0421 -0.0201
10535W        W27383  15.054   1.471   4.615 -0.0293 -0.0323 -0.4612
10536W        W27384   2.073   7.869   1.737  0.0745  0.1087  0.0139
10537W        W27385  13.576   5.278  15.580  0.1109 -0.0736 -0.1424
10538W        W27386  13.366  12.327  10.871  0.1301  0.2326  0.3229
10539W        W27387   7.379  14.473   3.526  0.5162  0.0644 -0.2960
10540W        W27388  13.971  10.570   3.384 -0.0532  0.0258 -0.3175
10541W        W27389  10.642   6.115   0.186  0.2725  0.0260  0.1696
10542W        W27390   3.706  17.279   4.903 -0.0298  0.2168 -0.2997
10543W        W27391  13.716  12.705   1.104 -0.1428  0.1628 -0.0850
10544W        W27392   8.122  15.694   3.029 -0.2579 -0.0261 -0.2120
10545W        W27393  13.443   7.223  16.244  0.1927 -0.0879 -0.0811
10546W        W27394  10.303   9.230   1.052 -0.1270  0.0704 -0.1044
10547W        W27395   8.018   2.105  15.432  0.2156 -0.1021 -0.0266
10548W        W27396   0.287   1.741  12.168 -0.1735  0.2801  0.1344
10549W        W27397  13.115  16.417   1.070  0.0851 -0.3167  0.1795
10550W        W27398   4.521   2.153   0.769  0.0442  0.3240  0.2929
10551W        W27399  11.158   0.608  12.620 -0.1123  0.1950 -0.1842
10552W        W27400  10.876   1.570  15.852  0.0955  0.0072 -0.1313
10553W        W27401   0.308   9.257   4.052 -0.1814  0.1773  0.2007
10554W        W27402   7.112   4.635  13.048 -0.0052  0.1533  0.1500
10555W        W27403  10.984   7.540  16.021 -0.2672  0.0507  0.0916
10556W        W27404   1.109   6.673   0.331 -0.0754 -0.2593 -0.1043
10557W        W27405   8.470  15.724   0.778  0.0457 -0.0962  0.0723
10558W        W27406  11.179  15.860   1.715  0.5348  0.0457  0.3923
10559W        W27407  11.021  13.891  15.670  0.4126  0.0031 -0.1579
10560W        W27408   9.444   7.371   1.473  0.0490 -0.1937  0.1365
10561W        W27409  10.349  14.171   1.865  0.0784 -0.0457 -0.1403
10562W        W27410   3.382  14.620   0.609 -0.0969 -0.1526  0.0165
10563W        W27411   1.841  12.556  12.850  0.1215  0.1842 -0.1155
10564W        W27412   0.481   0.600   4.113 -0.0338 -0.3394  0.0492
10565W        W27413  16.703  14.666   2.255  0.1316  0.2329 -0.0555
10566W        W27414   9.903   7.400  11.338  0.1069 -0.0122  0.0312
10567W        W27415  16.810  15.543   1.166  0.0693 -0.1521  0.2662
10568W        W27416   1.038   8.226  16.206 -0.0957 -0.1268  0.0216
10569W        W27417   4.506   4.029  13.768  0.3186  0.1180  0.3284
10570W        W27418   1.295  12.917   2.005 -0.1698  0.0956 -0.0677
10571W        W27419   6.693  10.871   1.512  0.1903 -0.1043 -0.2510
10572W        W27420   1.306  14.175   3.820  0.0588 -0.0352  0.0612
10573W        W27421  13.570   4.803   4.426 -0.0951  0.4202 -0.0458
10574W        W27422   8.277  12.768   0.754  0.2986  0.0546 -0.0468
10575W        W27423   9.299  15.254   0.735  0.2655  0.2681 -0.2459
10576W        W27424   6.842   6.798   2.170 -0.4355 -0.1845  0.1393
10577W        W27425  10.880   9.447  11.762  0.0641 -0.1302 -0.0456
10578W        W27426   8.866   1.013  12.784  0.3289  0.0936  0.1206
10579W        W27427   0.175  11.899  12.091 -0.2558  0.3505  0.2347
10580W        W27428   7.359   6.093   0.484 -0.0284 -0.0787 -0.0261
10581W        W27429   3.035   0.341   0.301 -0.1168 -0.0774  0.0127
10582W        W27430  15.881   8.263   3.819 -0.0856 -0.1514  0.4296
10583W        W27431  16.247  12.410  13.457 -0.3753  0.0545 -0.1897
10584W        W27432   2.546   7.198  15.744  0.0330  0.1668 -0.2992
10585W        W27433   3.745  13.231  11.290 -0.0267 -0.0104 -0.1872
10586W        W27434   5.630  11.819  15.493 -0.0377  0.1848 -0.0014
10587W        W27435   1.258  16.224   1.177 -0.2215 -0.1014 -0.0213
10588W        W27436   2.673   4.276  10.980  0.0060  0.2706  0.1375
10589W        W27437   4.221  15.965  11.886  0.0303  0.1125  0.2413
10590W        W27438  11.241  10.243  15.476 -0.1936 -0.2373 -0.3238
10591W        W27439  12.686   8.467  16.111  0.2754 -0.0052 -0.1872
10592W        W27440   0.380   4.434   0.193 -0.3075  0.0744  0.0205
10593W        W27441  16.819  17.638  14.379 -0.0855 -0.2327 -0.1023
10594W        W27442  13.202  12.575  11.771 -0.0135 -0.1150  0.1227
10595W        W27443   1.748  14.240   0.617 -0.0444  0.1695  0.1533
10596W        W27444  14.845   1.921  13.195  0.1494  0.4008  0.1111
10597W        W27445  14.083   8.983  11.222 -0.2510 -0.1833 -0.1336
10598W        W27446  16.856  12.083  13.266  0.2782 -0.1378  0.3686
10599W        W27447  10.793  14.408   2.541  0.0939  0.0445 -0.0792
10600W        W27448  12.794   1.272   4.302  0.3104 -0.1347  0.2080
10601W        W27449   9.127   0.448  16.211  0.1449  0.0599  0.1630
10602W        W27450   0.428  15.685   3.733  0.3476  0.1094  0.0772
10603W        W27451   4.368  13.974  11.865 -0.0227 -0.1429 -0.3147
10604W        W27452  15.579  10.070  11.951  0.1870  0.0138  0.0539
10605W        W27453   3.199  11.086   5.109  0.2150  0.2943  0.3256
10606W        W27454   6.885  16.509   2.822  0.0831  0.1835 -0.0725
10607W        W27455  13.516   8.727   3.542  0.0567  0.0877  0.0867
10608W        W27456   7.755   8.042   1.656 -0.1728 -0.0880  0.0310
10609W        W27457  17.329  13.439  15.028 -0.1524  0.1084  0.1594
10610W        W27458  10.211  14.226   3.819  0.0758 -0.0118 -0.2390
10611W        W27459  11.140  13.112  12.538  0.0911  0.2165  0.3955
10612W        W27460  10.219  15.154   3.705  0.1118 -0.1310 -0.1484
10613W        W27461   7.908   0.035  15.675  0.1089  0.2860  0.2469
10614W        W27462   2.961  17.197   3.606 -0.0557 -0.1537 -0.0019
10615W        W27463  17.890  12.887   2.801  0.1699  0.3209  0.1533
10616W        W27464  13.303  12.774   0.763  0.0846  0.2999  0.1144
10617W        W27465   3.033  17.896  11.450 -0.1594  0.3559  0.0677
10618W        W27466  11.899  14.326   5.368 -0.0656  0.0376  0.1288
10619W        W27467  10.080  11.656   1.197  0.1515  0.1216 -0.2532
10620W        W27468  11.119   3.161   0.487  0.0010  0.0080  0.0642
10621W        W27469  12.875  15.276   5.003 -0.1380  0.0459  0.1007
10622W        W27470  12.115   8.494   3.063  0.0360 -0.0831 -0.1807
10623W        W27471  13.890  15.735  15.118 -0.0891 -0.0313 -0.0169
10624W        W27472   9.492  16.885  12.470 -0.0251  0.1570 -0.4372
10625W        W27473  12.053  14.370  14.854 -0.0295 -0.1211  0.0063
10626W        W27474  17.731   1.841   0.339 -0.4810 -0.0632 -0.0798
10627W        W27475  11.466  10.379   1.250  0.2712  0.2967 -0.0948
10628W        W27476   5.524  14.903   3.493  0.0337  0.2157 -0.1770
10629W        W27477   3.767   2.185   3.855 -0.1070 -0.4190  0.0370
10630W        W27478  15.301  12.023   1.674  0.2264  0.0949 -0.1086
10631W        W27479  10.437   8.285  13.353 -0.0043 -0.1175 -0.0934
10632W        W27480   3.441  15.430  15.604  0.0384  0.3423  0.2399
10633W        W27481  12.575  17.504  11.925  0.1118 -0.1505  0.0955
10634W        W27482  16.208   5.340  15.851 -0.0197 -0.0616  0.0069
10635W        W27483  13.655   6.893  15.387  0.2185 -0.2361  0.2847
10636W        W27484  15.661   7.616  12.744 -0.0236  0.1262 -0.2384
10637W        W27485   5.738   3.239  16.222  0.1193 -0.0001  0.0888
10638W        W27486  10.353   8.557   3.242 -0.3291  0.0948 -0.0536
10639W        W27487   1.447  14.135  12.158 -0.2706 -0.4234 -0.0473
10640W        W27488  17.246   5.134   1.050  0.0326 -0.1399  0.0792
10641W        W27489   5.245   9.428   1.637  0.0919 -0.0045 -0.0004
10642W        W27490   3.915  15.366   2.666  0.0184  0.3566  0.1881
10643W        W27491  11.234  17.428   2.229 -0.4323  0.0864 -0.1519
10644W        W27492  15.421  10.269  13.551  0.3417  0.0972  0.0358
10645W        W27493   0.894   6.757   1.565 -0.2133  0.0971  0.1067
10646W        W27494   8.571   8.433   1.248  0.1497 -0.1284  0.0701
10647W        W27495   3.757   1.936   2.197  0.1068  0.0958 -0.2319
10648W        W27496   9.446  15.222  11.279  0.0226  0.0845 -0.1495
10649W        W27497   0.459  10.276   4.854 -0.0083 -0.1748 -0.2129
10650W        W27498   4.211  15.755   2.823 -0.1339  0.0549 -0.0982
10651W        W27499  11.690  15.083   1.414  0.1761 -0.2721  0.1751
10652W        W27500   1.582  12.213   4.909 -0.0794 -0.0403 -0.3209
10653W        W27501   4.066  15.070  11.916  0.2816 -0.0254  0.0324
10654W        W27502   7.199  16.140  11.797 -0.0709 -0.0963  0.1682
10655W        W27503   2.421   1.949  15.295 -0.1276 -0.1367  0.1758
10656W        W27504  15.850  11.807   2.042 -0.3704 -0.0263  0.2944
10657W        W27505  13.121   5.123  15.376 -0.0597  0.0669  0.2546
10658W        W27506  17.894  16.508   3.796 -0.0799  0.0689  0.3725
10659W        W27507  16.021   1.213   5.247 -0.1739 -0.1241 -0.1615
10660W        W27508  10.366  10.854  11.316  0.1788 -0.0896  0.0256
10661W        W27509  14.332   8.083   3.579 -0.1028 -0.3856  0.2874
10662W        W27510  15.515  10.730   0.683  0.1073 -0.0410  0.2507
10663W        W27511   2.932   5.512   4.438  0.1168  0.0486  0.0172
10664W        W27512   4.286   8.748  15.297  0.0014 -0.2597 -0.0025
10665W        W27513  13.565   6.383  13.018 -0.2128  0.0562  0.1759
10666W        W27514   1.110  16.110   4.381 -0.0056 -0.0744  0.3708
10667W        W27515  14.090  15.200  14.653  0.2377  0.2898  0.0603
10668W        W27516   7.409  12.313   4.422 -0.0109  0.1996  0.3032
10669W        W27517  14.960   7.731   0.523  0.0227 -0.3450  0.0852
10670W        W27518  11.866  13.072   0.582 -0.2536  0.0925  0.0101
10671W        W27519   7.924   9.551  12.396 -0.0764 -0.0543  0.0962
10672W        W27520  14.200   2.165   3.665  0.2537 -0.0291 -0.1807
10673W        W27521  15.353   7.296   2.165  0.1041 -0.2021  0.1501
10674W        W27522   3.467  17.720  13.983 -0.3883 -0.2976 -0.0630
10675W        W27523   5.302   2.594  12.386 -0.1925  0.3115 -0.3210
10676W        W27524   5.374   3.322  11.124 -0.2094 -0.0798 -0.2440
10677W        W27525  10.854  13.812  11.487  0.3502  0.3158  0.0998
10678W        W27526  16.284  17.042  12.494  0.0031  0.1269  0.2856
10679W        W27527  10.703   6.331   3.264  0.0092 -0.3057 -0.5148
10680W        W27528   7.117  16.505   0.320 -0.1250 -0.1882  0.1614
10681W        W27529   0.305  14.148  15.318 -0.0613  0.0323  0.2531
10682W        W27530  15.289   0.710   3.086  0.1499 -0.2761  0.1008
10683W        W27531   2.998   8.806   3.486 -0.2346  0.1861 -0.4509
10684W        W27532  14.885  16.112  12.185  0.2967  0.1073  0.0483
10685W        W27533  10.953  14.275  14.336 -0.0502  0.0589 -0.2016
10686W        W27534  10.155   9.155  12.319 -0.0519 -0.0523 -0.0656
10687W        W27535   3.391  16.720  14.935  0.2637 -0.1304  0.1567
10688W        W27536   3.269  15.649   5.032  0.1515 -0.1305 -0.0894
10689W        W27537   8.291   7.567  16.264  0.0568  0.0521  0.1214
10690W        W27538   1.232  10.843   0.537  0.1030  0.1550  0.0787
10691W        W27539   6.483   0.003  11.003  0.1080  0.1174  0.0013
10692W        W27540   5.788   3.024  13.351 -0.0522  0.1527 -0.1089
10693W        W27541   0.582  16.612   1.622  0.1976 -0.1973  0.2242
10694W        W27542   8.294  14.146   1.218 -0.2555  0.3956  0.1721
10695W        W27543   8.202  10.784   0.691  0.0955 -0.4093  0.1024
10696W        W27544   6.396   6.343   3.398 -0.2793 -0.2347  0.0404
10697W        W27545  13.416   9.441  14.551 -0.1486  0.2019 -0.0934
10698W        W27546   0.112  12.817  13.147  0.1560 -0.1241 -0.3757
10699W        W27547   7.056   6.531  12.360  0.0641 -0.3931 -0.0098
10700W        W27548  10.656  17.999  16.171  0.1224  0.2089 -0.1727
10701W        W27549  10.478   7.054   0.972  0.1178 -0.1433  0.0915
10702W        W27550  17.169  15.103   6.373 -0.1333  0.0189 -0.2063
10703W        W27551  10.135   4.864   1.465  0.2737 -0.3203  0.0822
10704W        W27552  12.531  11.099   3.846  0.0268 -0.1157 -0.0187
10705W        W27553  17.546   7.795   3.552 -0.1115  0.1532  0.3192
10706W        W27554   6.593  15.125  14.991  0.3537  0.1114  0.3235
10707W        W27555   0.540  14.878  15.989 -0.4502 -0.1298  0.0380
10708W        W27556   0.787   4.136  13.888 -0.1629  0.1626 -0.1782
10709W        W27557   6.622   2.447  13.198 -0.0037  0.3938 -0.2305
10710W        W27558   6.045  15.011   1.171  0.1189  0.1040 -0.1385
10711W        W27559   7.041  16.676  13.887 -0.0736  0.0087  0.2143
10712W        W27560   9.661  12.686  12.259 -0.2373  0.4575 -0.1182
10713W        W27561   8.263   6.881  14.893  0.1121  0.2937 -0.3366
10714W        W27562  12.249   7.343  14.506 -0.3156 -0.2320  0.2523
10715W        W27563  15.268   2.768   0.572  0.1976  0.1737 -0.3429
10716W        W27564   1.504   4.038  14.307 -0.0287 -0.1738 -0.2354
10717W        W27565  11.607  13.861   1.909 -0.0376 -0.0058 -0.1816
10718W        W27566   3.538   0.524   0.495  0.0887 -0.0781  0.1576
10719W        W27567  15.952  12.760   0.387  0.0632  0.2621 -0.0109
10720W        W27568   3.526  10.020  12.089  0.3315  0.1629  0.1461
10721W        W27569   7.705  15.208   2.947  0.1144  0.1768 -0.0852
10722W        W27570   8.410  11.511   1.669  0.0165 -0.1164  0.1782
10723W        W27571  12.065  14.351  14.317  0.2336  0.0181  0.4554
10724W        W27572  10.503  12.522  14.433 -0.2105 -0.3026 -0.0910
10725W        W27573   5.732  18.092  11.579  0.0318  0.0140  0.1318
10726W        W27574   2.579   3.070  12.910 -0.0441 -0.0784  0.0656
10727W        W27575  12.717  12.780  16.173 -0.0587  0.0931 -0.1815
10728W        W27576  15.873   8.179  15.246  0.2133  0.1826  0.2051
10729W        W27577  17.662   8.351   0.983  0.1814  0.0235  0.0166
10730W        W27578  11.496   6.455   1.554 -0.0196 -0.0026  0.1709
10731W        W27579   8.723   3.170  12.687  0.2385  0.0095  0.0613
10732W        W27580   0.310   1.113   0.256  0.0096 -0.1080  0.2457
10733W        W27581   5.327  10.536   5.257 -0.2149 -0.1673  0.1396
10734W        W27582   6.201   7.748  15.488  0.1079 -0.0728 -0.7389
10735W        W27583  12.062  11.549  15.028  0.2566 -0.0602 -0.0693
10736W        W27584  17.025  16.805  15.484 -0.3431 -0.0192  0.0133
10737W        W27585  10.001  13.712   3.298 -0.0633 -0.1129  0.3816
10738W        W27586  10.345  12.581   4.845  0.1267  0.1100  0.0946
10739W        W27587   8.600   3.328  15.588 -0.0446  0.0717 -0.1678
10740W        W27588  13.370   0.285  15.562 -0.1253  0.0294 -0.1293
10741W        W27589  11.959   5.686  13.495  0.2257 -0.0740  0.1151
10742W        W27590   1.986   5.011  15.577 -0.1291  0.2317 -0.1330
10743W        W27591  11.114   3.105  13.188 -0.0290  0.0092  0.0228
10744W        W27592   6.711  17.482   1.863 -0.3168 -0.3582 -0.1650
10745W        W27593   6.149  17.275  12.536  0.1604  0.0879  0.3165
10746W        W27594   2.464  11.603  15.186  0.0223 -0.0078 -0.1574
10747W        W27595  13.944   9.879   6.094 -0.2033  0.2965  0.1813
10748W        W27596  14.028   4.171  11.668  0.2181  0.0234  0.0821
10749W        W27597  17.979   5.475   4.534  0.0069 -0.0638 -0.0416
10750W        W27598  17.934   0.472  15.898 -0.3042  0.2662 -0.0297
10751W        W27599  14.080   9.603  12.816 -0.0312 -0.0977 -0.1978
10752W        W27600   0.871   9.080   1.425 -0.0501  0.1483  0.0079
10753W        W27601   4.196  16.268   2.703  0.0350 -0.0772 -0.1006
10754W        W27602   7.346  12.049   3.501 -0.0575 -0.1118 -0.0176
10755W        W27603   2.838  12.151  15.373  0.2164  0.2342 -0.0891
10756W        W27604  17.250   9.529  12.732  0.1368  0.1376 -0.1276
10757W        W27605  17.419   9.641  15.932  0.1142  0.0894  0.1452
10758W        W27606   9.628  10.591   4.336 -0.0955  0.2501  0.2919
10759W        W27607   0.128   1.305  12.965 -0.1702  0.0544  0.0166
10760W        W27608   0.186   3.824   1.712  0.2728  0.1859 -0.0246
10761W        W27609   1.372  12.665   1.102 -0.0085  0.0836  0.0303
10762W        W27610   1.384  11.361  15.728  0.0535  0.0991 -0.0744
10763W        W27611   8.704   2.555   0.784  0.4206  0.0507 -0.0313
10764W        W27612   2.422  15.833  12.571  0.1258  0.1626  0.1890
10765W        W27613  13.615   6.024  15.194 -0.0316 -0.2283  0.0117
10766W        W27614  11.964  17.864  13.365  0.0842 -0.1066 -0.0039
10767W        W27615   6.816  11.969  13.863  0.1711  0.2856 -0.1530
10768W        W27616   6.912  12.292   1.504  0.1115 -0.2051 -0.0797
10769W        W27617  14.062   8.238  15.931 -0.1824  0.1206 -0.3600
10770W        W27618   6.525   8.568  13.554  0.1313 -0.1140 -0.1161
10771W        W27619  17.496  12.060   2.972 -0.4405 -0.0706 -0.0950
10772W        W27620  14.577   0.521  16.036 -0.0067  0.2099  0.1210
10773W        W27621  11.011   5.933  15.330 -0.1349 -0.2005 -0.3824
10774W        W27622  13.136  11.237   2.506 -0.1485  0.1634  0.0496
10775W        W27623   4.314   5.598  11.157  0.0607 -0.2442 -0.0400
10776W        W27624   7.244   4.251  15.257  0.0924  0.1299  0.0756
10777W        W27625  14.741   5.951  12.680 -0.2557  0.1961  0.1891
10778W        W27626   4.354  14.678   2.359  0.0360 -0.2862 -0.0415
10779W        W27627   0.848   3.865  15.096  0.0976 -0.1484 -0.1411
10780W        W27628  12.039  14.114   0.272 -0.1547  0.0354 -0.1083
10781W        W27629  13.782  13.908  14.746  0.1273 -0.0826  0.0757
10782W        W27630  13.090  12.771   4.013 -0.2699 -0.2900 -0.6819
10783W        W27631   5.277  13.268   4.915 -0.2553  0.0520 -0.2009
10784W        W27632   0.503   0.529   1.023 -0.0187 -0.3066  0.0367
10785W        W27633  12.825  15.519   0.364 -0.0320 -0.1111  0.0269
10786W        W27634   0.279  16.940  15.423  0.2621 -0.3825 -0.0430
10787W        W27635   4.193  14.287   4.447 -0.3057 -0.2470 -0.2531
10788W        W27636   2.147  14.359   1.941  0.0638  0.0048  0.1493
10789W        W27637   7.789   0.438   4.196 -0.1735  0.1459  0.0488
10790W        W27638   6.829  16.418   4.599 -0.1589  0.0793  0.2747
10791W        W27639  13.889   2.896   0.148 -0.4191 -0.0018 -0.0531
10792W        W27640  17.712  13.553   0.429  0.0484 -0.0784 -0.0507
10793W        W27641   1.460   8.082  11.386  0.2493 -0.0011  0.0565
10794W        W27642  10.504  13.603  13.897  0.0268 -0.0885 -0.3848
10795W        W27643   8.353   9.938  10.979 -0.0563 -0.0932  0.0876
10796W        W27644   7.805  17.500  14.865  0.2623  0.0442 -0.0684
10797W        W27645   5.751  16.906   4.225 -0.0284 -0.0395 -0.2802
10798W        W27646   5.674  14.918  13.014  0.1210 -0.1165 -0.0022
10799W        W27647   8.502   6.943  13.195  0.1454  0.1101  0.1819
10800W        W27648   6.706   8.267  13.932 -0.1285  0.2172  0.1940
10801W        W27649   5.950   4.613   0.406 -0.0287 -0.0567  0.2713
10802W        W27650   6.277   2.326   2.391  0.1606 -0.0309  0.2292
10803W        W27651  11.264  11.131  12.115  0.0105 -0.0836  0.2336
10804W        W27652   0.705  13.751  15.267  0.0832  0.1817 -0.4677
10805W        W27653  15.858   7.197  12.446  0.0561 -0.2033  0.2037
10806W        W27654  10.452   4.091  12.348 -0.3374  0.0076 -0.1309
10807W        W27655   5.610   0.584  12.605  0.1926  0.1066  0.1137
10808W        W27656   3.004   8.805   4.194 -0.1119  0.0522 -0.1818
10809W        W27657   3.833  14.626   1.434 -0.0500 -0.1896 -0.1348
10810W        W27658   0.644   5.207  15.305 -0.2941  0.0657  0.0193
10811W        W27659  14.378   4.199   4.583  0.2171  0.0852  0.1157
10812W        W27660  11.745   4.111   1.403  0.1992 -0.2392  0.0061
10813W        W27661   0.248   6.563  13.725  0.0507  0.0419  0.0138
10814W        W27662   4.275  12.021  13.300 -0.0050 -0.1735  0.0545
10815W        W27663  11.662   8.428   2.641 -0.0555  0.0448 -0.0523
10816W        W27664  16.829   6.024  10.365  0.1292 -0.2021  0.2242
10817W        W27665   6.008   0.673   4.128 -0.2246  0.1174 -0.3735
10818W        W27666   3.265  15.259   0.055 -0.3594  0.0947  0.0033
10819W        W27667  15.882  13.373  15.953 -0.0020 -0.0298 -0.0172
10820W        W27668  13.635  11.366  15.142  0.1611 -0.1949 -0.1960
10821W        W27669  13.217   7.511   3.298  0.2711 -0.2656 -0.1456
10822W        W27670  14.203  13.714   3.051  0.0465  0.2776  0.0931
10823W        W27671   6.002   9.223  14.930  0.1378  0.0126 -0.2934
10824W        W27672  13.789  11.054  15.582  0.0230  0.0552  0.0585
10825W        W27673  13.475  15.538  14.166 -0.1894 -0.1417 -0.0084
10826W        W27674   0.798  17.728  11.893  0.0594 -0.0733 -0.0281
10827W        W27675  15.495  17.885   4.780 -0.0087  0.2843  0.4154
10828W        W27676   5.746  11.285  13.971 -0.0012 -0.0217 -0.0300
10829W        W27677   3.585   3.676  11.119  0.0479 -0.1171 -0.1302
10830W        W27678  12.958   8.959   0.948  0.2670  0.0480 -0.3839
10831W        W27679  13.937  12.664   5.166  0.0495  0.1549 -0.1820
10832W        W27680   1.823  15.491  15.108  0.2049  0.1000  0.1712
10833W        W27681  13.490   6.134   6.258 -0.1262 -0.1844 -0.5350
10834W        W27682  13.416   9.097   4.453  0.2119 -0.1670 -0.0844
10835W        W27683   3.848   4.860   3.521 -0.2253  0.3414  0.0943
10836W        W27684   8.537  15.583   2.746 -0.2789 -0.4702 -0.1681
10837W        W27685   7.221   9.478  14.493 -0.0814  0.2538 -0.2667
10838W        W27686   4.894  13.009   4.987 -0.0786  0.2952  0.2067
10839W        W27687   8.922   8.552   5.103 -0.1251 -0.0340 -0.0413
10840W        W27688   9.528   9.496   2.108 -0.1716  0.1329 -0.0499
10841W        W27689  16.135   7.776   4.968  0.0050 -0.1452  0.0068
10842W        W27690   2.903  12.448  14.934 -0.3139  0.0312 -0.1163
10843W        W27691  11.250   4.616  13.991 -0.3062  0.1102 -0.0349
10844W        W27692  14.073  15.012  11.957 -0.2176 -0.0038 -0.1302
10845W        W27693  16.332   8.390  15.025  0.2694  0.0444  0.0294
10846W        W27694  11.083   3.032  15.110 -0.3104  0.1789  0.0460
10847W        W27695   4.696   7.178   2.722 -0.0581 -0.0078  0.3284
10848W        W27696  17.591   9.443   5.400 -0.1063  0.0128  0.0002
10849W        W27697  12.595   1.760   0.655  0.0232  0.0939  0.1435
10850W        W27698   5.541   5.045  11.522  0.1567  0.0884  0.3291
10851W        W27699   0.742   7.837  11.489 -0.3462  0.0415 -0.2121
10852W        W27700  15.204   3.780  13.071 -0.1975  0.0645  0.2880
10853W        W27701   8.479   1.177  12.434  0.0865 -0.0417 -0.6622
10854W        W27702  10.353   9.045   4.260 -0.0348  0.0041  0.0451
10855W        W27703  12.420  10.906   0.371  0.0694  0.0355  0.0642
10856W        W27704   6.085   1.958   3.674 -0.6033 -0.2081  0.0397
10857W        W27705   5.409  10.188   4.455 -0.2409 -0.0771 -0.2295
10858W        W27706   3.719   4.410   3.021  0.0941  0.1181  0.1524
10859W        W27707  10.727  11.473   2.613  0.0578  0.0997  0.2211
10860W        W27708   2.541   7.704  11.242 -0.1228 -0.3232  0.2964
10861W        W27709   1.137  16.609  15.723 -0.2625 -0.0814  0.0192
10862W        W27710   3.761  10.995  14.008  0.0735 -0.2001 -0.0385
10863W        W27711  12.706   0.179   4.670 -0.4125 -0.3598 -0.0202
10864W        W27712   1.290   1.576  13.928 -0.1714  0.0926  0.2103
10865W        W27713   3.348  17.457   3.451 -0.0006  0.2441 -0.1209
10866W        W27714   4.196   0.439  14.696  0.1015  0.1309 -0.2123
10867W        W27715   7.552  10.763  13.036 -0.1458 -0.3035  0.0621
10868W        W27716   1.111  12.606  13.937 -0.0167  0.1856 -0.1512
10869W        W27717  12.440  17.002   0.695  0.0042 -0.0875  0.0282
10870W        W27718   8.714  15.321  11.989  0.3407 -0.2018 -0.2130
10871W        W27719   0.676  13.876   3.308 -0.0244  0.1725 -0.4711
10872W        W27720   1.649   1.830   3.959 -0.1134 -0.2403 -0.0420
10873W        W27721   0.464  14.581  15.107 -0.0041 -0.0656  0.1435
10874W        W27722   4.416   6.034  13.812 -0.0503 -0.3266  0.1960
10875W        W27723   0.506   2.363   1.510 -0.0526 -0.0038 -0.3988
10876W        W27724  18.008   7.050  11.310  0.3587 -0.0875  0.4355
10877W        W27725   7.589   9.982  10.753 -0.2485 -0.0190 -0.1286
10878W        W27726  18.032   9.105   0.581 -0.1153 -0.2534  0.0118
10879W        W27727  15.529   3.731   3.124 -0.2532 -0.0236 -0.2487
10880W        W27728   4.025  17.695   2.712  0.0579 -0.0106 -0.1303
10881W        W27729  17.203  11.435   1.586 -0.0557  0.0272  0.0615
10882W        W27730   3.852   8.923  13.950  0.1490  0.2959  0.0295
10883W        W27731  14.238  12.649   0.667  0.2087 -0.0101 -0.3143
10884W        W27732   8.046   7.124   5.010  0.0048  0.0212 -0.1624
10885W        W27733  12.305  15.717  14.117 -0.0613 -0.1835 -0.1580
10886W        W27734  10.229  11.014  15.873 -0.2592 -0.0404 -0.2776
10887W        W27735  18.060  14.660   0.143  0.4088  0.0739 -0.0661
10888W        W27736   0.971   0.720   3.958 -0.1458  0.1846  0.2256
10889W        W27737   2.005  10.852  13.464  0.1116 -0.1584  0.0663
10890W        W27738   4.044  12.820  11.312 -0.0499 -0.2042  0.1447
10891W        W27739  16.786   7.202  15.043 -0.0796 -0.0470 -0.1114
10892W        W27740   9.646  12.778  13.122  0.1116  0.0776  0.1607
10893W        W27741  11.938  11.055  13.258  0.1470  0.0601  0.0881
10894W        W27742   2.433   8.660  13.448 -0.0923 -0.0248 -0.0632
10895W        W27743   4.136   3.811  12.980  0.2322  0.3287 -0.2746
10896W        W27744  13.263  13.585  14.611 -0.1832 -0.1074 -0.0662
10897W        W27745  12.082   3.852   0.329 -0.2706 -0.1189  0.1513
10898W        W27746   4.526   4.520  14.966  0.0882  0.4637 -0.2715
10899W        W27747   0.652   3.528   3.767  0.2400 -0.1512 -0.1176
10900W        W27748   8.803  12.140   0.275 -0.0045  0.1593  0.3152
10901W        W27749  14.864  14.501   4.768  0.2710  0.3764  0.1596
10902W        W27750  11.639   3.914   2.603  0.4765  0.1828  0.1162
10903W        W27751   9.662   6.749   0.725 -0.2325 -0.1247  0.1718
10904W        W27752  15.979   1.683  13.894  0.1258 -0.0603  0.0905
10905W        W27753   7.456   9.375  12.518 -0.1508 -0.0324  0.0701
10906W        W27754   9.964   9.665  13.952 -0.0500  0.4133  0.1085
10907W        W27755  11.018   8.573   3.708  0.0941  0.0890  0.0617
10908W        W27756   5.122  15.484   1.752 -0.3589 -0.1667  0.0584
10909W        W27757  10.071  10.425   5.548 -0.1250  0.0009 -0.0432
10910W        W27758  10.643   3.609   3.695 -0.1588 -0.1230  0.0444
10911W        W27759  17.972  12.111  14.263 -0.0226 -0.2190 -0.0865
10912W        W27760  18.087   9.660   4.201  0.0006  0.2277 -0.1986
10913W        W27761   8.586   2.109  11.253 -0.2888  0.0295 -0.2175
10914W        W27762  17.936  10.698   0.101  0.0438  0.0284  0.3619
10915W        W27763   7.297  14.781  12.373  0.0758  0.0264 -0.0565
10916W        W27764  17.474  10.111   4.869  0.3779  0.0902 -0.0272
10917W        W27765  10.364  12.732   2.452  0.1432 -0.2040 -0.1693
10918W        W27766   4.587   2.329   1.908 -0.2497 -0.2002 -0.1480
10919W        W27767   0.627  16.322   2.592 -0.4036  0.0453  0.0236
10920W        W27768  14.818   3.789   4.344  0.0576  0.2409  0.0534
10921W        W27769  13.518  17.399  15.256  0.0499 -0.1403 -0.2006
10922W        W27770  13.602  11.772   6.322  0.2769 -0.0451  0.1234
10923W        W27771  14.067   5.108  15.554  0.2221  0.0700 -0.1970
10924W        W27772   7.522  15.576   4.329 -0.1879  0.0281 -0.0891
10925W        W27773  12.705  14.270   0.853  0.0450  0.0251  0.0152
10926W        W27774  15.098   5.128   3.684 -0.2802  0.2385 -0.0576
10927W        W27775  17.169  10.456   0.643 -0.1118 -0.2845  0.1428
10928W        W27776   8.644   1.319   5.026 -0.1412 -0.1369 -0.0695
10929W        W27777   8.284   4.179  15.350 -0.1076 -0.1474 -0.0616
10930W        W27778   0.936  14.953  16.245 -0.2925  0.1285 -0.2715
10931W        W27779   8.494   5.478   5.746 -0.1963  0.0808  0.0821
10932W        W27780   9.590   7.585  11.810 -0.2804 -0.1970  0.1879
10933W        W27781   0.836  10.574   2.801 -0.0392  0.2566  0.1433
10934W        W27782  14.303  17.548  12.371  0.0743  0.0024 -0.2197
10935W        W27783  16.492  16.663   1.943  0.1265  0.1830  0.0519
10936W        W27784  14.183   9.082  12.095  0.1025 -0.0611  0.2253
10937W        W27785  13.439  16.437  14.467  0.2616 -0.3445  0.3544
10938W        W27786   2.749   7.879  14.076 -0.3242  0.0801 -0.0407
10939W        W27787   9.921   2.578  13.136 -0.0057 -0.0998 -0.1158
10940W        W27788  10.529   8.515   2.190  0.1181  0.0830 -0.3262
10941W        W27789   5.769  17.439   2.341 -0.2342 -0.1606  0.2253
10942W        W27790  11.386   9.318  12.837  0.3213 -0.0289 -0.0931
10943W        W27791  16.196   6.026  13.969  0.0720  0.0894  0.0015
10944W        W27792   2.228  17.457   3.376  0.1238 -0.1688 -0.2768
10945W        W27793   8.985  14.099   0.919  0.0033 -0.4312 -0.2411
10946W        W27794  10.040  16.270   0.901 -0.1213 -0.2863  0.0874
10947W        W27795   2.349   4.480  16.213  0.1692  0.2492  0.1366
10948W        W27796   7.486  15.141   1.861  0.0383 -0.1137  0.3339
10949W        W27797   3.332  11.900  11.641 -0.0482  0.2530  0.3804
10950W        W27798  16.119  10.883   0.644  0.1800 -0.0159  0.4675
10951W        W27799  13.266  10.754   1.131  0.1967  0.1411 -0.2254
10952W        W27800  17.528   5.125  12.139  0.1168 -0.0374 -0.0414
10953W        W27801   9.071  13.935  15.951 -0.1241 -0.4276  0.2097
10954W        W27802  12.619   3.008   5.194  0.1524  0.2447  0.2214
10955W        W27803   9.523   2.818  13.422  0.0887 -0.0087 -0.0743
10956W        W27804  11.225  11.063  15.224 -0.2125 -0.0878 -0.1649
10957W        W27805   0.090   5.127   3.576 -0.0552 -0.0694 -0.1575
10958W        W27806  15.417   0.995   3.965  0.0075  0.0260  0.0356
10959W        W27807  11.865   6.658  11.628  0.0573  0.1653  0.2785
10960W        W27808   6.548  16.370   1.066  0.0404 -0.0858 -0.1066
10961W        W27809   7.249   8.204   5.575 -0.2186  0.2380  0.0560
10962W        W27810   4.516  13.952  11.384 -0.2181  0.0239  0.0863
10963W        W27811  17.780   5.869   0.142  0.0592 -0.0036 -0.2751
10964W        W27812   1.162   6.144   2.516 -0.1141  0.0951  0.1054
10965W        W27813  17.890   0.189  10.982  0.0472 -0.4633  0.3068
10966W        W27814   3.547   0.189  16.297 -0.0270  0.1193  0.0310
10967W        W27815  16.417  13.425   4.492  0.1019 -0.0694 -0.1355
10968W        W27816   7.336   5.179   0.755  0.0192  0.0246  0.2907
10969W        W27817   8.992  10.375   1.993  0.2886  0.2257  0.0348
10970W        W27818   3.331  17.334  16.136  0.0056 -0.1185 -0.4303
10971W        W27819   0.608  11.239  14.276 -0.1204 -0.0898 -0.1028
10972W        W27820  17.319  15.880  11.279 -0.3109 -0.3570  0.3413
10973W        W27821   5.471  11.682  14.176 -0.0494  0.3125  0.5052
10974W        W27822  11.898  13.885  11.763  0.1479  0.3046 -0.1366
10975W        W27823   4.890   9.474  11.036  0.2222  0.1620  0.2302
10976W        W27824  12.095   6.718  14.945  0.0734  0.0428  0.0454
10977W        W27825   7.036   7.758   0.487 -0.3767 -0.1014 -0.0778
10978W        W27826  11.808   9.824   1.844  0.0653  0.0998 -0.0624
10979W        W27827  17.377  11.585  14.074  0.0496  0.0191  0.3568
10980W        W27828   1.541   4.996  14.810  0.1363  0.3171  0.1583
10981W        W27829   3.796  14.467  13.958 -0.1135  0.0213  0.1458
10982W        W27830   8.083   1.450   2.413  0.0949  0.1643  0.4435
10983W        W27831  16.342   5.354  12.834 -0.0149 -0.0823 -0.2657
10984W        W27832   9.341   4.943  12.102 -0.0424 -0.0394  0.2002
10985W        W27833  14.732  14.028   5.126  0.0596  0.2767 -0.1494
10986W        W27834   5.915  15.778   0.374 -0.1401 -0.0827 -0.1661
10987W        W27835   7.433   6.066  13.338  0.3285  0.1618 -0.0474
10988W        W27836  15.727  15.435  15.712  0.1150  0.1195  0.0373
10989W        W27837   9.982   2.655   0.096  0.0753  0.1523  0.2704
10990W        W27838   9.103  17.102   2.318  0.2539  0.0919  0.0451
10991W        W27839   5.561   3.211   2.882 -0.0117  0.1516  0.1435
10992W        W27840   7.059  15.281   2.481  0.1474  0.1793  0.1338
10993W        W27841   1.983   9.218  16.205  0.1016  0.0124 -0.0762
10994W        W27842  15.055  10.487   0.420 -0.0521 -0.1297 -0.3403
10995W        W27843  15.199  14.252   0.972 -0.0322 -0.1985  0.0130
10996W        W27844   6.322  12.322  10.709 -0.4265  0.1726  0.3615
10997W        W27845   0.721   1.231   3.277  0.2046  0.1047 -0.2334
10998W        W27846  17.472  16.964   1.353  0.1079  0.0913  0.1797
10999W        W27847  14.156   9.064  14.260 -0.2213 -0.1799 -0.1824
11000W        W27848  10.112  12.536   4.079  0.2170 -0.2622  0.2111
11001W        W27849  11.767  15.115  12.559 -0.2466 -0.0036  0.1879
11002W        W27850   9.569   4.903   5.093 -0.0139  0.2545  0.2696
11003W        W27851   5.791  15.421   2.202 -0.0052  0.1184 -0.0465
11004W        W27852   0.652   6.424   5.008  0.1323 -0.0323  0.0320
11005W        W27853   0.063   8.695   1.639  0.4070 -0.1944  0.0236
11006W        W27854   9.326   7.153   4.330  0.1365 -0.0378  0.0386
11007W        W27855   3.726  15.917   0.787  0.0342 -0.0859 -0.2584
11008W        W27856  13.630  14.554  15.849  0.2028 -0.0104  0.1768
11009W        W27857   5.872  16.019  11.488  0.0054 -0.1691 -0.1856
11010W        W27858  15.109  17.284   0.838 -0.2632  0.2572 -0.2803
11011W        W27859   1.268   9.974   3.617  0.0188 -0.4067  0.3087
11012W        W27860   5.954  13.992   1.151 -0.0178 -0.0235 -0.2017
11013W        W27861  16.487   3.128   3.311 -0.0038  0.1290 -0.0242
11014W        W27862   4.316   9.699  11.344 -0.2151  0.0194  0.0285
11015W        W27863  17.723  13.505   0.921 -0.0041  0.0246  0.1224
11016W        W27864  11.518  12.125   4.314 -0.2217  0.2147 -0.1029
11017W        W27865   6.975  10.219   3.703  0.2130 -0.1963 -0.1081
11018W        W27866   3.285   1.351  13.972  0.0104  0.4935  0.3475
11019W        W27867  12.785   1.234   3.265  0.1117  0.1763  0.1262
11020W        W27868   8.166   3.896   5.540  0.0781 -0.0179  0.1176
11021W        W27869  13.781  15.347   4.173 -0.3376 -0.1239  0.0206
11022W        W27870  15.843   5.746  12.087  0.0768 -0.0167  0.2040
11023W        W27871   2.416  15.556   5.319  0.0605 -0.2941  0.1322
11024W        W27872   7.366   0.401   2.971 -0.1891 -0.0312  0.2483
11025W        W27873   4.420   5.209   0.096  0.0286  0.0705  0.0660
11026W        W27874  11.673   8.643   0.975 -0.1252 -0.0215 -0.3805
11027W        W27875   3.145  12.546   1.877  0.3612 -0.1520 -0.0405
11028W        W27876   8.468   4.950   2.061  0.0539 -0.1401  0.1742
11029W        W27877   5.995   6.128  10.310 -0.1248 -0.0072  0.3503
11030W        W27878   6.783  11.698  14.749 -0.1934 -0.0307  0.0335
11031W        W27879   5.497   3.433  10.208 -0.0870 -0.1281  0.0718
11032W        W27880  11.587   0.450  12.309 -0.2484 -0.0683  0.1438
11033W        W27881  16.750   8.036   5.024  0.0894 -0.2047 -0.0705
11034W        W27882  14.750   2.950  12.949 -0.0872 -0.1861 -0.0667
11035W        W27883  15.866   5.813  14.249 -0.1166  0.0955  0.0964
11036W        W27884  14.360  11.224  12.732  0.1535  0.0257 -0.1008
11037W        W27885   0.163  11.873  11.575 -0.3341  0.1311  0.2364
11038W        W27886  16.571  16.729  14.804  0.2021 -0.0581  0.2770
11039W        W27887   5.526   2.243   1.232  0.0118  0.3305 -0.0724
11040W        W27888  12.453   1.221   4.767  0.0246  0.2074 -0.1226
11041W        W27889   9.311   8.670  14.812  0.0219 -0.1982 -0.0439
11042W        W27890   9.722   6.259   1.043  0.0960 -0.1732  0.2035
11043W        W27891  14.234   6.920  13.941 -0.1664  0.0327  0.0307
11044W        W27892  15.642  15.414   3.695  0.0010 -0.0358  0.0941
11045W        W27893  12.476  11.018  15.885  0.2462  0.0807  0.1980
11046W        W27894   0.337   3.529   0.540  0.0486 -0.1607 -0.0043
11047W        W27895   4.612  15.868   0.564  0.2909 -0.4349 -0.2771
11048W        W27896   0.886   3.549  14.668  0.1246 -0.1884  0.0361
11049W        W27897  14.269  10.399  12.142  0.0748  0.1602 -0.1064
11050W        W27898   0.347   6.644  12.195  0.1163  0.0828  0.1912
11051W        W27899   2.323  17.738   4.542  0.0388 -0.2511  0.1710
11052W        W27900   3.473   5.801   1.829 -0.2166  0.0988  0.3167
11053W        W27901   0.519   2.905  10.848  0.0141 -0.0603  0.3796
11054W        W27902  10.904   5.138  13.418  0.0451  0.0312 -0.0415
11055W        W27903   8.420   0.509  11.221 -0.4561 -0.1068  0.0498
11056W        W27904   8.642   8.867   0.990 -0.0679  0.0622 -0.0646
11057W        W27905   4.388  13.649   5.565  0.0187 -0.0180 -0.1195
11058W        W27906   4.030  15.703   0.349  0.0467  0.2940 -0.0604
11059W        W27907  10.859   7.760  14.540 -0.0585 -0.0576 -0.0484
11060W        W27908   5.171  12.698  15.798 -0.1966  0.0180  0.2206
11061W        W27909  10.653   3.122   3.334 -0.0788  0.0258 -0.1193
11062W        W27910  16.685   3.673  14.516  0.0635  0.2926  0.1264
11063W        W27911   2.085  17.079   4.629  0.1317  0.2940 -0.3573
11064W        W27912   0.603  17.874  15.412  0.1212  0.2523 -0.1812
11065W        W27913  16.642  14.044  14.595  0.2436  0.1640 -0.0775
11066W        W27914   7.392  12.003  12.595 -0.1944  0.1042  0.2620
11067W        W27915   6.316  17.409   2.177  0.1751  0.1632  0.1796
11068W        W27916  13.291   8.221   4.248  0.0415 -0.0673  0.0442
11069W        W27917  10.666   4.452  16.261 -0.2645 -0.0240  0.0900
11070W        W27918  10.803  13.453  15.900  0.0905  0.0699  0.1541
11071W        W27919  14.927   7.024  16.071 -0.1450  0.0703  0.2859
11072W        W27920  12.198   4.833  11.945  0.0809 -0.1049  0.0169
11073W        W27921  11.062   5.533  10.405 -0.0485  0.1467 -0.1660
11074W        W27922  12.656   3.142  15.459 -0.1784 -0.2837 -0.1689
11075W        W27923  11.710   0.282  14.023 -0.1666 -0.1334 -0.3833
11076W        W27924  15.324   9.955  15.039  0.0431  0.2177 -0.1500
11077W        W27925  14.938   9.744   1.521 -0.1179 -0.2921  0.2725
11078W        W27926   4.567   0.427   4.021  0.2406 -0.0763  0.3002
11079W        W27927  12.326   6.373   3.400 -0.0641  0.0815  0.0911
11080W        W27928  10.206  14.383   1.436 -0.0185 -0.0644 -0.2417
11081W        W27929   3.278   2.661   4.677 -0.2285 -0.2715 -0.0354
11082W        W27930  10.114   8.347  11.799 -0.0275 -0.1181  0.2425
11083W        W27931   9.505  13.660  11.598 -0.2958  0.0093 -0.1586
11084W        W27932   8.462   7.616   0.530  0.3803 -0.2269 -0.3543
11085W        W27933  11.658  11.979   5.212 -0.3351  0.0303  0.0830
11086W        W27934  12.596  14.036  15.021 -0.0115  0.0290 -0.1355
11087W        W27935   8.200   6.547   3.782  0.1645  0.0000 -0.0508
11088W        W27936   8.709  15.811   3.756 -0.0327 -0.4162 -0.3764
11089W        W27937   8.404  12.109   5.911  0.0643 -0.2050  0.2418
11090W        W27938   6.717   1.132   2.435  0.1382 -0.1660  0.1492
11091W        W27939  14.722  11.488  13.449  0.1634 -0.4855 -0.0694
11092W        W27940  16.761  12.195   5.463  0.0590 -0.0893 -0.0651
11093W        W27941  17.254   0.865   3.488 -0.0835 -0.2303  0.2500
11094W        W27942  15.168  13.232  12.405 -0.1640  0.1108 -0.1499
11095W        W27943  11.474   0.895   2.351  0.2998  0.1235 -0.1333
11096W        W27944   0.133  10.076   2.276 -0.0842 -0.0301 -0.2531
11097W        W27945  11.719  15.930   2.388  0.0485 -0.0444  0.0330
11098W        W27946   9.231  17.676  12.701  0.0135  0.0899  0.2456
11099W        W27947   9.634   0.940   3.606 -0.1357 -0.0733 -0.1018
11100W        W27948   7.389  11.061  12.060  0.1910 -0.1425  0.0755
11101W        W27949   8.795   2.062   1.053 -0.1118  0.0619  0.0508
11102W        W27950   2.945  13.828  15.233 -0.0569 -0.3707  0.5903
11103W        W27951   7.619  12.392   4.884 -0.0136 -0.0167  0.2062
11104W        W27952  12.007   9.029   0.891 -0.1265 -0.0600  0.1967
11105W        W27953   0.350   8.221  13.125  0.0163  0.1198  0.0642
11106W        W27954  17.297   2.979   0.312 -0.2844 -0.0294 -0.0417
11107W        W27955  12.737  11.825   0.603 -0.1892 -0.0894  0.0904
11108W        W27956  14.805  14.753  12.911  0.1053 -0.0641  0.1444
11109W        W27957  15.766   7.253  14.470 -0.3541  0.0501 -0.2355
11110W        W27958   6.786  13.049  14.980  0.0145 -0.0548  0.0554
11111W        W27959   6.806   1.938   4.270  0.0539 -0.0967 -0.2616
11112W        W27960   8.502   4.104   2.728  0.3085 -0.0475 -0.0581
11113W        W27961  12.911   1.204  13.693 -0.2020 -0.0533 -0.1525
11114W        W27962   1.799  13.702   2.272  0.0333 -0.0631  0.2143
11115W        W27963   3.900  15.119   1.316 -0.2629 -0.0460 -0.0725
11116W        W27964   3.208  15.315   3.197  0.4446  0.3717 -0.0819
11117W        W27965   0.664   2.506   1.041 -0.1256  0.2296 -0.1961
11118W        W27966   7.376  16.612  14.361  0.2493 -0.2199  0.2051
11119W        W27967   6.797   8.851   0.099 -0.2553  0.0503  0.1739
11120W        W27968   3.367  11.004  15.909  0.0541  0.2280  0.2107
11121W        W27969   5.670  12.018  15.963 -0.0427  0.1910  0.1359
11122W        W27970   4.472  16.439  12.725 -0.1725  0.1969  0.0739
11123W        W27971   0.533  13.979  12.767  0.0555 -0.2158  0.0388
11124W        W27972  11.199   9.778  12.712  0.0146  0.0952 -0.1523
11125W        W27973  17.184   9.497   0.290  0.1684  0.0615  0.2735
11126W        W27974   2.243  13.996   1.530  0.1826  0.0882  0.2360
11127W        W27975   0.251   7.623   2.630 -0.0689  0.1371 -0.3526
11128W        W27976   3.572   0.770  16.279 -0.1912  0.2376  0.1105
11129W        W27977  11.544  12.076   2.488 -0.1023  0.0066  0.1126
11130W        W27978  17.605   0.174  13.881 -0.1909  0.2788 -0.1044
11131W        W27979  11.182   8.717  12.199 -0.0599  0.0603 -0.1486
11132W        W27980   1.786  13.448   3.098  0.2861 -0.0534 -0.2006
11133W        W27981   3.754   1.119  14.021  0.0096  0.1039 -0.3166
11134W        W27982  14.507   0.100   2.227 -0.2035  0.0565 -0.0764
11135W        W27983   9.535   1.032   1.351  0.0697 -0.1345 -0.2087
11136W        W27984  13.974   1.703   3.583  0.1389  0.0905 -0.2672
11137W        W27985   0.424   9.318   4.617  0.0411  0.1547 -0.1802
11138W        W27986  18.044   4.007   1.324  0.0302 -0.4564  0.0685
11139W        W27987  17.776  10.093  14.719  0.3714 -0.0855 -0.3194
11140W        W27988   7.802   6.045  14.094  0.1356 -0.0340 -0.0454
11141W        W27989   7.168  14.181   3.848 -0.1174  0.2384  0.0887
11142W        W27990   7.803   1.966   4.546  0.0291 -0.4008 -0.0885
11143W        W27991  17.629   7.869   1.333  0.1602  0.0013 -0.1079
11144W        W27992  17.712  16.320   2.625  0.2445  0.0076  0.1196
11145W        W27993  12.733   6.505  14.229 -0.2140  0.1625  0.2327
11146W        W27994   7.229   3.812   2.071 -0.0716  0.1241 -0.0368
11147W        W27995   9.126   9.070   1.821  0.0692 -0.0409 -0.4175
11148W        W27996  13.187  17.523   2.460 -0.0632 -0.2006 -0.0879
11149W        W27997   3.255   7.603  15.552  0.0579 -0.0232 -0.0322
11150W        W27998  12.957   3.989  12.820 -0.1195 -0.0532 -0.1633
11151W        W27999   3.934   3.888  14.869 -0.3497 -0.0962  0.1510
11152W        W28000  13.886   8.541   2.271  0.1686  0.0753  0.2990
11153W        W28001  16.509   9.776   4.357 -0.3058 -0.1320  0.2520
11154W        W28002   8.560   0.789   5.010  0.0118  0.2544 -0.2020
11155W        W28003   0.302  16.277   4.108 -0.1067  0.1577 -0.5627
11156W        W28004   9.315   3.229  12.258 -0.1211  0.1007 -0.0777
11157W        W28005   0.101   5.240  13.152 -0.3008  0.0084  0.4223
11158W        W28006   8.829  15.906   1.808 -0.0370  0.2160  0.2396
11159W        W28007   5.459   7.916   3.139 -0.0296  0.3057  0.0214
11160W        W28008  12.758  13.914  16.283  0.1387  0.2313 -0.1717
11161W        W28009   3.344  11.210  14.642 -0.2315 -0.0300  0.3920
11162W        W28010   4.894   3.312   3.759 -0.0889 -0.0808  0.1563
11163W        W28011   4.583  11.819  12.076  0.0980 -0.0834 -0.0928
11164W        W28012  14.741  16.199  14.687 -0.1724  0.0407  0.0086
11165W        W28013  15.371  12.271  13.497  0.3661 -0.0229 -0.1711
11166W        W28014   7.985   5.335   2.974 -0.2124 -0.2146  0.2573
11167W        W28015  12.877   0.316   4.119  0.2367 -0.1367  0.1413
11168W        W28016   2.037   1.941  12.176  0.0911  0.0904  0.3097
11169W        W28017  14.077   1.449   1.111 -0.1111 -0.1648  0.1363
11170W        W28018  16.843  17.217   4.972 -0.0261 -0.3354 -0.0093
11171W        W28019  14.249   7.778  16.009  0.1191 -0.1981 -0.2878
11172W        W28020  16.099  17.199   2.847 -0.0531  0.2951 -0.1891
11173W        W28021  11.801  15.291  14.757  0.0614 -0.1803 -0.0555
11174W        W28022  13.770  17.096  16.139  0.3596  0.1266 -0.1182
11175W        W28023   8.125   6.378   0.437 -0.3295 -0.1638 -0.1399
11176W        W28024  15.989   8.163  11.337 -0.0130  0.1275  0.0251
11177W        W28025  12.895   4.759   1.847  0.1368  0.0545  0.2983
11178W        W28026   1.079   2.162  12.623  0.4245  0.1511 -0.0101
11179W        W28027  11.819   5.855   4.117  0.0378  0.2553 -0.1037
11180W        W28028   1.186   4.971   3.759  0.0312  0.0995 -0.2343
11181W        W28029   6.235   5.675  12.025  0.3108 -0.0491  0.3322
11182W        W28030   3.850   6.399   4.597 -0.0852 -0.0607  0.0745
11183W        W28031  10.684   4.185   1.181  0.1955  0.2949  0.1730
11184W        W28032   0.413  14.549  15.609  0.2170 -0.2220  0.2501
11185W        W28033  10.108   8.992   3.377 -0.1092  0.0302 -0.1210
11186W        W28034   5.988  12.269  12.720 -0.4353  0.0586  0.3232
11187W        W28035   4.822   9.881  13.501  0.0671 -0.0547 -0.1191
11188W        W28036   0.524   0.413  11.506  0.1103 -0.2937  0.0019
11189W        W28037   1.616  18.058  12.081  0.0160 -0.1534  0.0027
11190W        W28038   7.897   9.080  15.092 -0.3776  0.2480 -0.1928
11191W        W28039  17.071   2.989   4.539  0.0924  0.0021 -0.1636
11192W        W28040   5.213  17.827   0.293  0.2768  0.0649  0.1806
11193W        W28041   8.351  10.811  10.937  0.0480 -0.0320  0.4154
11194W        W28042  14.822   3.941  12.764 -0.0458 -0.0133 -0.2272
11195W        W28043  11.987   1.646   2.915  0.0646 -0.1494  0.0218
11196W        W28044   5.698   5.147   5.917  0.3551  0.1613  0.2451
11197W        W28045  17.090  15.953   4.886  0.1772 -0.0678 -0.1934
11198W        W28046  17.919  17.101  15.320  0.2090  0.0431  0.2529
11199W        W28047   1.585  17.960  10.831  0.2274  0.0513 -0.1247
11200W        W28048   9.210   1.823  11.758 -0.2362  0.0506  0.1534
11201W        W28049   0.065  16.472   4.557  0.0966  0.0355 -0.1561
11202W        W28050   9.988  13.525   0.293  0.0263 -0.0622  0.0548
11203W        W28051   0.733   7.356  11.770  0.1026  0.5162  0.0467
11204W        W28052   3.674  14.715  12.066  0.0890  0.0840 -0.0305
11205W        W28053   4.561  15.811   5.208 -0.2763 -0.4148 -0.2193
11206W        W28054  12.395   6.345   2.557 -0.0623 -0.0909 -0.2768
11207W        W28055   0.489  13.804   0.584  0.2334 -0.1226  0.0587
11208W        W28056   3.627   2.112   4.832 -0.1709  0.1225  0.2229
11209W        W28057   5.417  11.012   5.117  0.0781  0.1987 -0.1832
11210W        W28058   9.794  15.493   4.111 -0.2937  0.0401 -0.0012
11211W        W28059   8.720  14.733   5.003 -0.1039  0.1002 -0.1978
11212W        W28060   3.043   4.607  14.618  0.0458 -0.0576 -0.3063
11213W        W28061   1.163  10.509   0.893  0.0308 -0.4576 -0.0327
11214W        W28062  14.790   2.194   2.212 -0.4406 -0.2744  0.0529
11215W        W28063  13.597   9.625   1.155  0.1930 -0.1223  0.0651
11216W        W28064  11.033   1.135   0.211 -0.1015  0.0982  0.0608
11217W        W28065  17.838  12.292   2.513  0.1103  0.0639  0.0065
11218W        W28066  10.092   0.982   4.411  0.0374  0.1248  0.2585
11219W        W28067  17.055  14.294  14.891 -0.5494 -0.0228  0.1084
11220W        W28068   5.549   1.307   1.127  0.1853  0.0139  0.1996
11221W        W28069   7.505  17.907  15.457 -0.1843 -0.1260  0.0845
11222W        W28070  16.396  10.402   4.894  0.3288  0.0394  0.1376
11223W        W28071   6.475  16.316   3.026 -0.0909 -0.1735 -0.3536
11224W        W28072   3.773  15.947   2.851 -0.0732 -0.0712  0.0632
11225W        W28073  12.307   2.012   1.005  0.1389  0.2120 -0.0878
11226W        W28074   6.787   8.342  13.223  0.0021  0.0367 -0.0390
11227W        W28075  16.058   1.631   4.528  0.2038 -0.0485 -0.1390
11228W        W28076   2.415   8.965   0.043  0.1837 -0.0430 -0.2185
11229W        W28077  16.667   7.892   2.672 -0.2120 -0.4900 -0.0217
11230W        W28078   3.453   7.660  10.982 -0.0859 -0.1743  0.0179
11231W        W28079  16.324   1.221  15.607 -0.0775  0.4336  0.1495
11232W        W28080   6.362   8.671  12.464  0.2117  0.0096 -0.1651
11233W        W28081   9.273  15.701  15.256  0.0829 -0.1119  0.0986
11234W        W28082   9.806  15.650  11.040  0.0384  0.0149 -0.3048
11235W        W28083   9.791   8.896  14.611 -0.0029  0.1137 -0.5897
11236W        W28084  10.979  10.837   0.590 -0.1064 -0.1045 -0.0451
11237W        W28085   1.014   9.159   3.410  0.1565 -0.4319  0.1178
11238W        W28086   2.279   9.100   4.527  0.0996 -0.0460  0.0685
11239W        W28087   6.961  11.209  12.438  0.0653  0.0793  0.0007
11240W        W28088  18.011   2.294   2.519 -0.1078 -0.3140  0.0846
11241W        W28089  15.351  15.999   1.596  0.1741 -0.1658 -0.3157
11242W        W28090  14.355  17.614  13.279  0.1728  0.1560 -0.1625
11243W        W28091   1.015   3.859  14.310  0.2246  0.2107 -0.2754
11244W        W28092   9.572  15.042   2.030 -0.2639 -0.0860  0.2199
11245W        W28093   8.524  15.689  15.506  0.0960  0.1046  0.2511
11246W        W28094   0.302   9.996  12.043  0.1266  0.2846  0.0668
11247W        W28095   4.980   4.944   1.659  0.0613  0.0081  0.2419
11248W        W28096   9.569  15.435  13.148 -0.1550  0.0812 -0.0248
11249W        W28097  16.343   4.560   3.676  0.1132 -0.3354 -0.3845
11250W        W28098   5.273  13.705   3.237  0.1327 -0.1589  0.2291
11251W        W28099   0.444  12.593  14.755 -0.3171 -0.2045  0.2631
11252W        W28100   2.910   6.916   6.110 -0.0466  0.1185 -0.0862
11253W        W28101   7.476   8.680   5.785  0.1780  0.2025 -0.0829
11254W        W28102   9.009  14.165  13.029 -0.5799 -0.1329 -0.0761
11255W        W28103   1.128  13.438   1.472 -0.0190 -0.1994  0.0013
11256W        W28104  13.972  15.705   3.343  0.0524  0.0306  0.0808
11257W        W28105  14.006  16.807   5.230 -0.0251  0.2782  0.2158
11258W        W28106   2.537   7.442  14.269 -0.1361 -0.2634 -0.1186
11259W        W28107  16.282   5.360   0.241  0.2393 -0.1199  0.0292
11260W        W28108   2.921   5.226   3.885 -0.1552 -0.0917  0.1311
11261W        W28109   0.006  15.726  14.211 -0.2331 -0.2494 -0.3451
11262W        W28110   8.369  11.918  14.351 -0.0156 -0.0924  0.0727
11263W        W28111   3.799   1.648  14.911 -0.1283  0.2370  0.0875
11264W        W28112  12.217  11.493  12.300 -0.0892  0.0825  0.1755
11265W        W28113   0.809   3.736   2.319 -0.0415 -0.3256  0.0859
11266W        W28114   5.416  11.643   2.870  0.2835 -0.0164 -0.2900
11267W        W28115   4.819   4.931  13.278  0.2915 -0.3023 -0.1280
11268W        W28116   3.882   4.536  14.131  0.1836  0.0256 -0.1480
11269W        W28117   8.306  12.686   3.439 -0.2440  0.1511  0.1332
11270W        W28118   6.229  16.708   0.807  0.2128  0.1914 -0.1369
11271W        W28119   0.120  12.244  12.425  0.1651 -0.0530 -0.0518
11272W        W28120  13.009   5.178  14.334 -0.0869 -0.0597  0.2425
11273W        W28121  10.044  13.756   6.128 -0.0832  0.1577  0.1065
11274W        W28122   3.474   7.953  15.134  0.0053  0.1299  0.1749
11275W        W28123   4.249   2.684  14.880 -0.2939 -0.1414  0.2280
11276W        W28124  17.097   9.943   1.586  0.2832  0.0124 -0.4151
11277W        W28125   6.856   6.959   0.725  0.1381 -0.1728  0.2016
11278W        W28126  10.564  12.885  12.738  0.0055  0.0274 -0.1303
11279W        W28127   6.182  12.802  12.458 -0.1133 -0.0208 -0.1806
11280W        W28128   2.173   2.798   3.168 -0.4011  0.1387  0.2826
11281W        W28129   8.162   9.809  14.323 -0.1041 -0.2447  0.2628
11282W        W28130   8.571  17.697   1.918 -0.1435  0.1714 -0.0612
11283W        W28131   9.132  14.043  13.638  0.0337 -0.2450 -0.0632
11284W        W28132   3.455  11.568  14.971  0.1587 -0.1130  0.2758
11285W        W28133   1.758   1.397   1.960 -0.1724  0.0891 -0.0694
11286W        W28134   5.357   3.040   4.166  0.0891  0.0816 -0.1920
11287W        W28135  10.929  11.859   1.775 -0.1741 -0.1471  0.1442
11288W        W28136   4.232  12.405   5.223  0.0386  0.1930 -0.1459
11289W        W28137  10.205   5.390   4.679  0.0361 -0.0988  0.0016
11290W        W28138   9.621  11.057   3.052 -0.0671  0.0673 -0.2960
11291W        W28139   7.628   4.839  12.066  0.0818 -0.0080  0.1558
11292W        W28140   2.586   0.817  12.923 -0.0410  0.1157 -0.0747
11293W        W28141  17.632  17.061   5.147 -0.1633  0.1047 -0.2687
11294W        W28142  17.705   8.819   1.798  0.0877 -0.0074 -0.2680
11295W        W28143   9.799   0.138  16.146 -0.2145  0.3693 -0.0108
11296W        W28144   6.213  11.519  12.686  0.3198  0.0037 -0.1299
11297W        W28145  15.896  12.268   5.106  0.0356  0.1215 -0.3517
11298W        W28146   3.046   8.001  11.360  0.4203 -0.2251 -0.0844
11299W        W28147  11.387   9.328   0.795  0.1629 -0.1935  0.1397
11300W        W28148  10.472  10.845  14.470  0.1357 -0.1510  0.2694
11301W        W28149   8.822   3.430  12.027 -0.1382 -0.2671  0.0274
11302W        W28150   7.037   4.494  14.121 -0.1442  0.1990  0.0173
11303W        W28151   5.228   8.501  12.924 -0.2762 -0.4950 -0.1472
11304W        W28152  12.186  15.843   4.443 -0.2441  0.3845 -0.0257
11305W        W28153   4.209  12.595  12.460  0.0638  0.0663  0.2428
11306W        W28154  15.779  16.148  12.168  0.2747 -0.2985  0.1696
11307W        W28155   7.435  12.540  15.600 -0.0644  0.1970 -0.1283
11308W        W28156   3.381   1.950   4.000  0.2606 -0.3079  0.2924
11309W        W28157   8.091  11.532   2.117  0.1985  0.0971  0.1295
11310W        W28158  14.129   1.377  14.251 -0.4873 -0.0159 -0.0447
11311W        W28159   3.835   3.835  15.771  0.3252 -0.3058 -0.0759
11312W        W28160  11.989  17.157   5.216  0.2904 -0.2396 -0.0843
11313W        W28161   3.254   1.044  15.992 -0.2968 -0.0815 -0.1590
11314W        W28162   1.299  18.021   0.870  0.0639 -0.1586  0.4387
11315W        W28163   7.013  11.328   2.792 -0.0007 -0.2864 -0.0425
11316W        W28164  13.678  16.708   4.872 -0.3775  0.0912  0.0920
11317W        W28165   4.234  15.635  13.877 -0.0147 -0.1471 -0.2118
11318W        W28166   9.547  14.702  14.388  0.1169 -0.3245  0.0046
11319W        W28167   1.725  12.206   4.435 -0.1207 -0.0402 -0.3877
11320W        W28168  10.149   3.655   0.927  0.0450  0.0686 -0.0729
11321W        W28169   4.321   5.294   1.002 -0.0034  0.3231  0.1646
11322W        W28170   2.595  10.538  14.882  0.1481  0.1464 -0.1780
11323W        W28171   9.069  12.352   4.830  0.0310  0.3018 -0.0669
11324W        W28172  17.493   2.531  15.820 -0.1034 -0.0532  0.0645
11325W        W28173   6.896  11.293   2.306  0.3756 -0.0264  0.0900
11326W        W28174   9.178  11.879  14.813  0.1897  0.2934  0.0111
11327W        W28175  11.694  11.850  15.185 -0.0207  0.0640 -0.1400
11328W        W28176  10.179   1.124   0.537  0.1042 -0.0646 -0.0180
11329W        W28177  17.754  14.187   0.261  0.0070  0.1684 -0.0576
11330W        W28178   0.451   8.757  14.437  0.0178 -0.2186 -0.1817
11331W        W28179  12.386  12.618   1.706 -0.3677  0.1540 -0.1382
11332W        W28180  14.221  15.320   2.953  0.1545  0.0976  0.1213
11333W        W28181   5.899   6.237   0.581  0.2914  0.1038  0.1858
11334W        W28182   1.037   5.785   0.214  0.0568  0.1518 -0.0398
11335W        W28183   4.924  11.888   3.862 -0.1758 -0.1580 -0.0119
11336W        W28184   1.032  17.579  12.731  0.2125 -0.1143  0.4292
11337W        W28185   9.792  16.066   3.311  0.1705  0.1413 -0.4186
11338W        W28186  14.705   2.535   6.164  0.4289  0.0606  0.1590
11339W        W28187   4.518   7.358  12.887 -0.0002  0.2637 -0.1729
11340W        W28188   0.734  16.766   2.768 -0.1245  0.1163  0.1478
11341W        W28189   9.284   4.713   1.492 -0.3685 -0.2683 -0.2083
11342W        W28190   3.858  13.011  11.771  0.0573 -0.1893 -0.1581
11343W        W28191  14.159  12.123  11.036 -0.0305 -0.1375  0.1267
11344W        W28192   3.416   4.331  11.139  0.0229  0.1762 -0.0034
11345W        W28193  16.176  16.499  13.811  0.0101  0.3329 -0.2445
11346W        W28194   2.456  14.208  11.302  0.1683 -0.1057  0.1610
11347W        W28195  12.337   8.060   0.837  0.1969 -0.0071 -0.2511
11348W        W28196  16.688  16.224  13.163  0.2033 -0.1409 -0.1925
11349W        W28197  11.714   8.453  11.483 -0.0318  0.1706  0.1380
11350W        W28198   2.132   1.378   1.099 -0.1140 -0.0728  0.2485
11351W        W28199   0.735   2.256   4.118 -0.0237 -0.2169  0.1352
11352W        W28200   9.555   4.572   4.224 -0.0951  0.3116  0.3235
11353W        W28201  12.633   1.285   0.631 -0.0327  0.1295 -0.0413
11354W        W28202   8.063  13.030  13.134  0.1998  0.0328  0.2236
11355W        W28203  16.757   8.465  10.744 -0.0590  0.0634 -0.0793
11356W        W28204  13.177  17.350   1.359 -0.0163 -0.3423  0.0931
11357W        W28205   7.470  15.489   3.822  0.2757  0.4131  0.1963
11358W        W28206   5.563  14.137  12.254 -0.1603 -0.1950 -0.0578
11359W        W28207  14.550  16.332   0.572 -0.1160 -0.3500  0.0358
11360W        W28208  16.720   5.088   1.175  0.2217 -0.0180 -0.0278
11361W        W28209  10.392   6.712   1.405 -0.1620  0.1232  0.1421
11362W        W28210  10.343   7.053  13.197 -0.0202 -0.1097 -0.2868
11363W        W28211   4.797  13.872   1.122  0.1292  0.1077 -0.0258
11364W        W28212   5.770  12.165   4.362 -0.0251  0.1199  0.1044
11365W        W28213   6.792  12.150   4.496 -0.1793  0.1773 -0.1086
11366W        W28214  16.315   3.572  14.894  0.0919  0.0922  0.2092
11367W        W28215   3.927   5.312  13.166  0.1182 -0.0149 -0.1921
11368W        W28216  12.591   8.620   0.929  0.1210 -0.1861  0.1537
11369W        W28217  14.734   4.008  16.255 -0.2192 -0.2819 -0.0177
11370W        W28218   4.485   4.994  15.841  0.1960 -0.1880 -0.2586
11371W        W28219   2.752   5.872   3.377  0.0402 -0.0210  0.3205
11372W        W28220  11.899   3.745  16.173 -0.0499 -0.0662  0.0434
11373W        W28221   3.612   4.078  13.437  0.1897 -0.0828 -0.3581
11374W        W28222   4.449   6.588  15.245 -0.0029  0.1675 -0.3323
11375W        W28223  13.246   6.442  10.958 -0.1875 -0.1407  0.0441
11376W        W28224  11.194   6.168   3.446 -0.1978  0.1591  0.4339
11377W        W28225  15.101   1.620  11.211  0.0521  0.0874 -0.0130
11378W        W28226  10.911  15.315  15.809 -0.1339  0.0058  0.2401
11379W        W28227  15.709  15.588   4.189  0.0617  0.3207  0.0452
11380W        W28228   6.513   0.716   5.642 -0.0267  0.1510  0.4935
11381W        W28229   2.130  16.970   5.396  0.1424  0.0135  0.3042
11382W        W28230  16.817  15.998   2.731  0.2053  0.1583 -0.2265
11383W        W28231   8.618  14.953  14.289 -0.2876  0.0571  0.0153
11384W        W28232  10.791  13.849  14.187  0.0088 -0.2375 -0.2257
11385W        W28233  10.789  18.084  12.119  0.1093 -0.0224 -0.0202
11386W        W28234  13.159   8.687  14.184 -0.1515  0.0117  0.1666
11387W        W28235  12.405   6.962  13.457 -0.0453 -0.0250 -0.1259
11388W        W28236   9.878   1.582  12.085 -0.1293  0.0900 -0.0735
11389W        W28237   1.827  13.138  14.216 -0.2676 -0.1144  0.1830
11390W        W28238   2.129   4.271  12.763 -0.0430 -0.0935 -0.1592
11391W        W28239   8.012  13.393  10.906 -0.1169  0.1430 -0.0510
11392W        W28240  14.176   6.077   3.025  0.0675 -0.4993  0.1807
11393W        W28241   5.181   5.527   3.566  0.0829  0.4084  0.2204
11394W        W28242   3.374  11.237  13.815 -0.0328  0.0793 -0.0390
11395W        W28243  18.036  15.294  12.187  0.1220 -0.2876  0.1527
11396W        W28244   2.788  12.391  12.012  0.1323  0.0610 -0.0983
11397W        W28245  13.345  16.931  12.671  0.0665  0.1115  0.0785
11398W        W28246   2.585  11.187  14.942 -0.3122  0.0133  0.0964
11399W        W28247   2.860  12.859   1.525 -0.2249 -0.1923 -0.2726
11400W        W28248   6.475   0.281   2.891 -0.2024  0.2140  0.0381
11401W        W28249   5.336  17.557  13.311  0.4675 -0.1107 -0.3596
11402W        W28250   0.057  15.184   4.986  0.3672  0.2405  0.2103
11403W        W28251  13.068   4.817  11.690 -0.0994 -0.2293  0.0097
11404W        W28252   4.713   5.574   1.144 -0.1837 -0.0155 -0.0554
11405W        W28253  17.755  10.539   4.080 -0.3774 -0.0733 -0.1497
11406W        W28254  10.792  11.561   0.126 -0.3322 -0.2740  0.3521
11407W        W28255   8.509   6.250   4.038  0.1890  0.0334 -0.1419
11408W        W28256  15.848   7.177  12.936 -0.1419  0.0190  0.0097
11409W        W28257   6.099  15.729   1.718 -0.1778 -0.0709 -0.2545
11410W        W28258   0.764   9.773  16.190 -0.2514  0.2057  0.0065
11411W        W28259  11.135  17.673  12.642  0.4153 -0.1138 -0.0562
11412W        W28260   5.810   8.283   2.563  0.1772 -0.1399  0.4216
11413W        W28261   9.464  12.726  14.841  0.0656  0.2965  0.0391
11414W        W28262  16.951  16.834  12.815  0.2649 -0.1259 -0.1475
11415W        W28263  10.067   9.242  13.341  0.0370  0.0685  0.2661
11416W        W28264  14.090   2.606   0.924  0.2958 -0.1309 -0.0927
11417W        W28265  16.201  13.190   4.848 -0.1900 -0.0035 -0.1241
11418W        W28266   0.018  13.152  14.037  0.3350  0.1352 -0.3710
11419W        W28267   1.775  12.451  16.217 -0.0863 -0.1721  0.0388
11420W        W28268   3.501   4.786   3.924  0.0860  0.1597  0.1960
11421W        W28269   5.202  12.753  13.393  0.0772  0.1344 -0.0874
11422W        W28270  11.677  11.820   1.004 -0.0042  0.0579  0.2011
11423W        W28271  17.693  15.661  13.054 -0.1567  0.1374 -0.0685
11424W        W28272   8.335   9.380  15.292 -0.0816 -0.2114  0.4474
11425W        W28273  17.899   9.714  15.564 -0.3376  0.1853  0.0986
11426W        W28274   0.621   4.915   0.448  0.0621  0.0315  0.0194
11427W        W28275  12.637   9.219  15.724  0.2336 -0.1487  0.2692
11428W        W28276  10.274  17.570  15.567 -0.1351 -0.0943  0.0607
11429W        W28277   7.922   2.130   0.472  0.0205  0.0713  0.0301
11430W        W28278  10.428   7.130   4.236  0.0522  0.2133  0.1128
11431W        W28279  16.876   5.591  15.431  0.1403  0.0724 -0.0185
11432W        W28280   1.735   8.575  14.183  0.1131  0.2802  0.1000
11433W        W28281   1.971  15.958   2.002 -0.0636  0.3458  0.1944
11434W        W28282  10.437   0.503  14.484 -0.3275  0.0486  0.0675
11435W        W28283  15.613  17.389  14.239  0.0364 -0.0493 -0.1417
11436W        W28284   3.281  10.329  15.354  0.0065  0.0329 -0.1006
11437W        W28285   4.860   7.767  15.918 -0.1485  0.1115 -0.1377
11438W        W28286   8.099  10.777  14.406 -0.1748  0.0142  0.0724
11439W        W28287   3.614  16.395   2.645  0.1259 -0.1024 -0.0807
11440W        W28288   6.418   4.914   2.892  0.1428  0.3194  0.0607
11441W        W28289  11.782   7.379  10.270  0.1050 -0.0759  0.0297
11442W        W28290   9.602   2.220   5.176  0.5010 -0.3667  0.0851
11443W        W28291   2.927  14.279   4.068  0.1284 -0.0647 -0.0717
11444W        W28292  10.051   2.510   3.141 -0.1517  0.0854  0.2289
11445W        W28293   0.483   3.554  12.349  0.0752  0.0228  0.0154
11446W        W28294   7.464   9.566   2.325  0.0946  0.0485 -0.0350
11447W        W28295  15.839   5.935   4.833  0.1020  0.0326 -0.3946
11448W        W28296   7.556   0.393  15.769 -0.0287 -0.0860 -0.0459
11449W        W28297   2.032  13.061  12.711 -0.1445 -0.1202 -0.3105
11450W        W28298  16.376  16.984   1.332 -0.1624  0.2925 -0.0830
11451W        W28299   2.069   6.977  11.867  0.1721 -0.0960  0.0671
11452W        W28300   5.880  15.881  14.168  0.0300 -0.1084 -0.3718
11453W        W28301   2.750  10.887   4.522 -0.2537 -0.1129 -0.4674
11454W        W28302  11.244  13.581  14.431  0.0529 -0.1407 -0.2387
11455W        W28303   7.025  16.405  12.822 -0.0765  0.1537  0.0277
11456W        W28304  12.780   7.989   4.617 -0.2650  0.1774 -0.1378
11457W        W28305   7.236   1.749   3.232 -0.3963 -0.0395 -0.0155
11458W        W28306   4.324  13.730   0.947  0.0655  0.2030  0.1654
11459W        W28307   2.801  17.589  13.420  0.0291  0.1236 -0.0377
11460W        W28308   6.561   2.691   0.028  0.1654 -0.0034  0.1593
11461W        W28309   9.551  17.620  15.652  0.0683 -0.1387  0.1539
11462W        W28310  14.806  16.243  13.072  0.3683  0.2169 -0.0664
11463W        W28311  13.021  14.822   4.024 -0.2576  0.0390  0.3486
11464W        W28312   3.981   2.700   2.627 -0.1866 -0.5156 -0.0348
11465W        W28313   8.969  15.776   6.031 -0.2050  0.1944  0.0432
11466W        W28314   5.726   3.749   2.273  0.0139  0.4136 -0.0032
11467W        W28315   3.785  10.329   1.250 -0.0053  0.0368  0.1476
11468W        W28316   9.049   2.843  10.843  0.3560 -0.0004 -0.3258
11469W        W28317  12.396  13.909   4.188  0.2371 -0.1113 -0.1149
11470W        W28318  14.332  11.867   0.253  0.0328  0.2265  0.1464
11471W        W28319   9.145   5.396   0.949  0.1424  0.3957 -0.2892
11472W        W28320  14.885   2.377   0.697 -0.2619 -0.2247  0.0527
11473W        W28321   4.745  17.611   0.254 -0.3436 -0.0810 -0.1290
11474W        W28322   0.092  14.605   5.009  0.1833  0.0707  0.0192
11475W        W28323   3.369   8.370   4.289 -0.3879  0.3305 -0.2380
11476W        W28324  10.611   0.831  11.277 -0.0142 -0.0137  0.1742
11477W        W28325   3.200  16.546  12.668 -0.0486 -0.0962 -0.0729
11478W        W28326   2.168  11.466   4.039  0.1268  0.4969 -0.1802
11479W        W28327   8.778   3.082  11.332  0.0624  0.0704 -0.0045
11480W        W28328  16.684  12.590  14.625 -0.0899  0.2866  0.1748
11481W        W28329   5.577   3.356  15.749  0.0977 -0.0109 -0.1268
11482W        W28330   0.576   8.564  15.785 -0.3390 -0.0748  0.0939
11483W        W28331   7.677  15.721  12.127  0.0994  0.2664 -0.1682
11484W        W28332  11.236  16.010  14.529 -0.1050  0.0504  0.0127
11485W        W28333   7.627  16.525   0.644 -0.3242  0.1116  0.0583
11486W        W28334  12.405   7.557  16.132 -0.2276 -0.3036 -0.0663
11487W        W28335  14.867   9.969   3.461 -0.3869 -0.2287  0.0475
11488W        W28336   4.536   3.790  13.318  0.1501 -0.0150  0.2586
11489W        W28337   3.625   3.083   4.217  0.1643  0.1040 -0.1994
11490W        W28338  14.083  14.366  15.681 -0.1151 -0.0621 -0.1473
11491W        W28339  14.850  10.193   2.494  0.1537 -0.1078  0.1194
11492W        W28340  17.442  13.957  13.319  0.1695 -0.0481 -0.5524
11493W        W28341   0.780   7.486   4.942 -0.0510  0.3795 -0.0449
11494W        W28342   5.054   1.149   4.422 -0.1122 -0.1173  0.0325
11495W        W28343  10.904   6.820   3.873 -0.0064 -0.1682  0.3165
11496W        W28344  15.073   1.565   0.564  0.0585 -0.2632 -0.2806
11497W        W28345  17.402   0.869  12.767 -0.0538 -0.0597 -0.0655
11498W        W28346  12.756  13.332   1.130  0.0076 -0.2726 -0.4062
11499W        W28347   7.929   0.146  13.661  0.0273  0.0620 -0.4083
11500W        W28348  16.886   9.512   1.599  0.0962 -0.1397  0.2474
11501W        W28349  14.162  14.744  14.389  0.1039  0.0961 -0.3212
11502W        W28350   5.056  15.571   4.408  0.0039 -0.1497 -0.1979
11503W        W28351   7.024  14.705   5.542  0.2565 -0.1413  0.1187
11504W        W28352   3.737  16.888   3.370  0.0576 -0.0269 -0.1297
11505W        W28353   0.324  16.395   0.076 -0.3699  0.0535  0.0382
11506W        W28354   9.249  17.404  14.064  0.1487  0.2224  0.3309
11507W        W28355  14.418   3.468   3.950  0.0480  0.1266  0.0730
11508W        W28356   4.787  12.605   4.564 -0.0055  0.0035  0.0484
11509W        W28357   5.917  17.564  15.933 -0.3009 -0.2224 -0.0158
11510W        W28358   0.952   1.091  11.794 -0.2778  0.2726 -0.0421
11511W        W28359  13.184   6.179   0.352  0.2308 -0.1007  0.1063
11512W        W28360  11.665   9.662  12.918  0.0941 -0.1936 -0.0610
11513W        W28361   3.386  14.201  15.215  0.2209 -0.6577 -0.3668
11514W        W28362   2.796   1.236   4.199  0.0692  0.3092  0.0627
11515W        W28363   8.721   7.014   3.087 -0.0978 -0.0704  0.3078
11516W        W28364   2.931   5.556   3.008  0.4954 -0.0970  0.0031
11517W        W28365   2.519   9.563  14.031  0.1998 -0.0380  0.0526
11518W        W28366  17.105  17.534   1.987 -0.0280  0.0361  0.3486
11519W        W28367  14.924   9.926  11.877 -0.0534  0.1801  0.1387
11520W        W28368   9.219   8.701  10.905 -0.2374  0.0379  0.1852
11521W        W28369   0.414  13.278   3.781  0.1561 -0.1486 -0.2528
11522W        W28370   6.800  15.507  12.524  0.0502  0.1080  0.0312
11523W        W28371   3.639   0.991  10.659 -0.1068 -0.0686  0.2011
11524W        W28372   5.794  14.629  15.601 -0.0667  0.0665  0.0311
11525W        W28373   0.347  10.111  15.612  0.2055  0.0477  0.1195
11526W        W28374  10.982  16.420   1.238  0.2912 -0.0571  0.3637
11527W        W28375  17.339   3.834  15.836  0.2627 -0.1427  0.0185
11528W        W28376   2.982   4.697   3.697  0.0651 -0.2952  0.0769
11529W        W28377  10.628   2.463   2.309 -0.1261 -0.0022  0.0238
11530W        W28378  17.155   0.024   0.346 -0.0473  0.0828  0.3686
11531W        W28379   1.251   9.202   1.005 -0.3327 -0.0158  0.0151
11532W        W28380  10.225  15.221  12.271  0.1479 -0.1927 -0.2103
11533W        W28381   3.795   9.351  12.670 -0.0690  0.0634 -0.0753
11534W        W28382   4.460   5.302  12.328  0.0168 -0.1464  0.1647
11535W        W28383  15.493  15.830   1.031  0.0641  0.2170 -0.1454
11536W        W28384  11.453   1.786   2.082 -0.4225 -0.0030  0.1277
11537W        W28385   2.317   4.450   1.330  0.1208 -0.1059  0.0903
11538W        W28386   1.947   0.189   3.357  0.3518 -0.1402  0.2030
11539W        W28387   6.341   1.520   6.366 -0.2495  0.2478  0.1987
11540W        W28388   6.413   9.852   1.708  0.0494 -0.1409  0.0230
11541W        W28389  13.429   7.921  11.974 -0.3237  0.0118 -0.0871
11542W        W28390   7.917  12.514  14.329  0.0622 -0.2687  0.3102
11543W        W28391  16.148   3.535  12.233 -0.1932  0.1579  0.0479
11544W        W28392  16.615  13.375   1.297  0.1241  0.1228  0.3617
11545W        W28393   9.620   1.963   3.760 -0.3568 -0.1360 -0.0599
11546W        W28394  13.267   5.737   2.125 -0.1495 -0.2145 -0.0171
11547W        W28395   4.623  16.284   5.462  0.1390  0.0132 -0.1829
11548W        W28396   4.370  10.885   1.691 -0.3223  0.0416  0.2030
11549W        W28397   6.286   8.633  15.641 -0.0471 -0.0021  0.0932
11550W        W28398  11.124   0.718  15.700  0.2751 -0.3192  0.1993
11551W        W28399  14.698   0.775  11.226 -0.1081  0.1380 -0.0050
11552W        W28400  12.218  13.085   3.087  0.3115  0.0565  0.0991
11553W        W28401  15.804   4.318  16.201  0.1562  0.0219 -0.1375
11554W        W28402   4.181   0.786  12.381  0.0838 -0.1553  0.1302
11555W        W28403   0.768   8.350   5.277 -0.2339  0.0783  0.1449
11556W        W28404   9.404   3.141   1.136 -0.2420 -0.1518  0.3066
11557W        W28405  15.388   1.750   4.374  0.0610 -0.2078  0.1021
11558W        W28406  15.700   2.943   1.197 -0.2692 -0.1257  0.2777
11559W        W28407   4.507   8.676  12.883  0.0956 -0.0729 -0.1439
11560W        W28408  12.878  11.434   1.600  0.2169 -0.0462  0.0126
11561W        W28409  17.944   2.196   0.601  0.0965  0.1561  0.1232
11562W        W28410  15.493   1.228   0.222 -0.2450 -0.0322 -0.0786
11563W        W28411   7.410   4.866  14.016  0.2220 -0.3363  0.0784
11564W        W28412   9.267   0.222   2.229  0.1306  0.0146  0.0612
11565W        W28413  17.007  14.626   3.913  0.1518 -0.0257  0.0094
11566W        W28414   0.405   6.310  11.559  0.3563 -0.0099 -0.0414
11567W        W28415   3.693  11.632   1.406 -0.1403 -0.0243 -0.1594
11568W        W28416   7.454  16.802  12.057 -0.2147  0.0785 -0.3678
11569W        W28417  17.576  13.579   5.316 -0.6696  0.0519 -0.0147
11570W        W28418   8.362   7.760  14.664 -0.0644 -0.0822 -0.1993
11571W        W28419   1.827  15.771  12.392 -0.0110 -0.6369  0.0596
11572W        W28420   4.234  16.479  11.071 -0.0630 -0.1068 -0.1725
11573W        W28421  17.342   9.983  11.739  0.0039  0.0161 -0.3723
11574W        W28422   8.114   7.681   3.811  0.0238 -0.0768  0.2291
11575W        W28423   5.047   4.985  11.555 -0.1077 -0.0838 -0.1326
11576W        W28424  16.279   4.956   1.710  0.1784  0.2028 -0.0713
11577W        W28425   3.803  12.654   3.107 -0.0234 -0.2138  0.2123
11578W        W28426  17.375   5.939  16.070 -0.1198 -0.0203  0.1009
11579W        W28427   9.686   4.396   3.682 -0.0778  0.0596 -0.2355
11580W        W28428   3.213  10.230   3.274  0.2588  0.1236  0.2319
11581W        W28429  16.786  14.798   1.795  0.3945  0.2285  0.0440
11582W        W28430  12.039  17.375   4.336 -0.0331  0.0977  0.1132
11583W        W28431   2.221   1.860  11.673  0.1759  0.0026  0.0316
11584W        W28432  17.036   1.820   1.058 -0.3133 -0.1274 -0.2315
11585W        W28433  11.605   2.366   3.404  0.0173 -0.1200 -0.1526
11586W        W28434   0.665   1.577  15.815  0.0911  0.1491 -0.0464
11587W        W28435  10.611  12.810  11.939  0.1755 -0.1349  0.1813
11588W        W28436  12.317  13.361   1.475 -0.1951  0.0006 -0.0441
11589W        W28437   8.955   3.052  15.276  0.1363  0.0931 -0.0305
11590W        W28438   5.645   7.488   1.197 -0.3132 -0.2047  0.1914
11591W        W28439   8.917   2.963  12.160 -0.1420 -0.0884 -0.0399
11592W        W28440   7.214   8.971  11.680 -0.2118  0.2105 -0.2008
11593W        W28441  14.504   3.409   2.966  0.2582  0.0235  0.5198
11594W        W28442  12.958   9.782  15.597  0.2588 -0.0214 -0.0434
11595W        W28443   7.467  16.852   2.250 -0.1935 -0.1101 -0.1614
11596W        W28444  14.560  12.618   3.470 -0.0032 -0.1879 -0.1204
11597W        W28445   1.490   2.426   1.725  0.0032  0.2529 -0.1413
11598W        W28446  10.528  13.263   3.099  0.0859 -0.1868 -0.3367
11599W        W28447  16.515   8.790   4.623 -0.0537 -0.2106  0.2626
11600W        W28448   0.507  16.010  15.536  0.2224  0.0521 -0.1237
11601W        W28449  11.722  15.471   2.647  0.0018  0.1113 -0.3983
11602W        W28450  10.209   4.523   2.971  0.1425 -0.0263  0.1075
11603W        W28451   6.913  15.210  14.266  0.1434 -0.2512  0.1432
11604W        W28452   8.958   7.585   4.139 -0.2930  0.1669 -0.0498
11605W        W28453   2.618   4.421  12.813 -0.0516  0.1120 -0.0306
11606W        W28454   8.912  16.112   3.327  0.2114 -0.1153  0.1859
11607W        W28455   9.987   3.181   4.459 -0.2557 -0.3262  0.0344
11608W        W28456   1.420   7.628  13.629  0.3044 -0.0806  0.1032
11609W        W28457   5.739  15.580  15.301  0.0163  0.0947 -0.1673
11610W        W28458   5.710   4.211   2.534 -0.0205 -0.0408 -0.0276
11611W        W28459  17.851  16.687  13.989 -0.0380  0.3402  0.1186
11612W        W28460  11.102   5.410  10.944  0.0670  0.2606 -0.0633
11613W        W28461   6.685   7.739  15.437 -0.4051 -0.1313  0.1448
11614W        W28462   3.483  17.836  12.327  0.1283 -0.3172 -0.0320
11615W        W28463   5.364   8.014   2.594 -0.2758 -0.2924 -0.0308
11616W        W28464   7.475   8.572   5.303  0.1082  0.0534 -0.2315
11617W        W28465   1.630   8.621  13.551  0.0197  0.1657 -0.0362
11618W        W28466  15.219   0.662   4.419  0.0871  0.1547  0.2497
11619W        W28467  17.285  13.428   3.770 -0.0159  0.3293  0.1440
11620W        W28468   6.726   3.644  11.192  0.0502 -0.3862 -0.0226
11621W        W28469  15.225   3.967   2.755  0.2236 -0.1739  0.3736
11622W        W28470   5.397  13.896  11.768  0.1374 -0.4338 -0.4167
11623W        W28471  12.412   5.075  12.880 -0.0540  0.1109 -0.0683
11624W        W28472   4.169   9.918   1.868 -0.2213  0.1912 -0.1699
11625W        W28473  15.223   6.998   4.381 -0.1712 -0.1744  0.2235
11626W        W28474   4.700   6.030   0.117 -0.1388  0.1068  0.0778
11627W        W28475   7.522   1.607  14.775  0.0478 -0.0460  0.1214
11628W        W28476   7.835   3.254  14.590 -0.0847 -0.0128  0.2844
11629W        W28477   5.681   9.030   5.223 -0.4698 -0.2053 -0.3233
11630W        W28478   1.464   9.573  15.626  0.2726 -0.1459 -0.0206
11631W        W28479   7.224   9.113   3.131  0.0327  0.3232  0.1222
11632W        W28480  17.739   9.847  12.022  0.0765 -0.0325  0.1301
11633W        W28481   5.480  15.496  15.759  0.0252  0.1024  0.1912
11634W        W28482  13.665  11.584   3.056  0.1806 -0.2323  0.2323
11635W        W28483   0.618  17.134  13.379 -0.0377  0.0436  0.0754
11636W        W28484   4.387   4.747   1.633  0.2153 -0.1081  0.2355
11637W        W28485   3.403   1.642  15.274 -0.4072  0.3725 -0.2797
11638W        W28486   6.435  14.710   2.483 -0.1125 -0.0160 -0.3445
11639W        W28487  17.639   7.199  13.337  0.0484  0.0077  0.1901
11640W        W28488   7.672  14.818   3.269  0.1583  0.2300  0.3040
11641W        W28489   7.538  12.278  14.768 -0.0833  0.2970  0.0714
11642W        W28490   4.173   6.618   4.295 -0.0270  0.4002  0.3056
11643W        W28491  15.272  10.724   1.133 -0.3886 -0.2437 -0.5431
11644W        W28492   9.051   8.733  12.344  0.0736 -0.0497  0.0140
11645W        W28493   7.435   1.213   5.367 -0.1203 -0.1983 -0.1376
11646W        W28494   2.470  14.601  14.890 -0.2778 -0.1642 -0.2301
11647W        W28495   6.163  17.745  13.317 -0.2574 -0.0770 -0.2502
11648W        W28496   1.953  17.165  14.009  0.1492 -0.0376 -0.2114
11649W        W28497   3.330  10.272  10.342 -0.1946 -0.0318  0.1469
11650W        W28498  13.704  10.363   0.383 -0.5043  0.1613 -0.1785
11651W        W28499   2.898  10.410  14.440  0.1126  0.2251 -0.2557
11652W        W28500   4.061  11.422  16.331  0.0646  0.0960 -0.3017
11653W        W28501  11.988   6.041   3.681 -0.1445  0.2239  0.3308
11654W        W28502  17.909   9.055  13.357  0.0490  0.0724 -0.2380
11655W        W28503   2.689  10.344  11.907  0.4921 -0.1414 -0.0913
11656W        W28504  17.766  14.419   1.543  0.0803  0.2577 -0.2394
11657W        W28505   0.684  11.276   4.967  0.0200  0.0494 -0.1171
11658W        W28506  13.772  14.473  15.230 -0.2336 -0.2660  0.0750
11659W        W28507   2.887   1.743  16.301 -0.0041  0.0207  0.0118
11660W        W28508   7.761   9.364   4.350 -0.1142 -0.0221  0.4433
11661W        W28509  14.352  17.254  15.632 -0.1698 -0.0442  0.0188
11662W        W28510  12.307   7.247   2.217  0.1427  0.2336 -0.0079
11663W        W28511  16.427  14.557   5.592 -0.0721  0.1191  0.2948
11664W        W28512   9.986   2.479  12.523 -0.1206 -0.2896 -0.0879
11665W        W28513  10.424   5.043   4.187 -0.0520  0.1229  0.0663
11666W        W28514  12.747   3.175   4.461 -0.0031  0.0986  0.0098
11667W        W28515   5.208   8.733  11.492  0.2150 -0.0701  0.2554
11668W        W28516   8.650  13.304  14.532 -0.1767  0.2427  0.0683
11669W        W28517   8.639   7.773  12.114  0.1094 -0.1802 -0.0547
11670W        W28518  13.283   2.837   1.416 -0.0147 -0.3997  0.1841
11671W        W28519   9.671  14.577  15.847 -0.3044 -0.2254 -0.2268
11672W        W28520   2.722  15.245  13.262  0.0455  0.1647 -0.1923
11673W        W28521   3.168   2.617  15.665  0.0913 -0.0412  0.0195
11674W        W28522  17.626   0.440  15.262 -0.1503 -0.2152  0.0086
11675W        W28523  13.581  15.131  14.588  0.1735  0.0994  0.0206
11676W        W28524  15.728   5.854  15.573 -0.1255  0.0297  0.2788
11677W        W28525   5.529  12.026   6.049  0.1348 -0.1119 -0.1274
11678W        W28526   2.748   5.575  12.813  0.0574  0.1175 -0.0366
11679W        W28527   7.267   4.113  10.632 -0.0040 -0.2024 -0.4483
11680W        W28528   0.173   0.353   2.259  0.0094  0.2212 -0.0572
11681W        W28529  16.579  10.644  14.178  0.0204 -0.2865 -0.0106
11682W        W28530   8.365  15.500   1.324  0.4053  0.0966  0.2788
11683W        W28531  13.660  15.624  14.610  0.2133  0.2190 -0.3775
11684W        W28532   5.224   9.067  15.311  0.2823  0.3877  0.1191
11685W        W28533   7.626   2.711   2.997  0.2311  0.3932 -0.0638
11686W        W28534  17.404   8.531  10.571  0.1520 -0.0670 -0.1339
11687W        W28535   9.994  14.287  16.148  0.0765 -0.0326 -0.2597
11688W        W28536   2.219   3.366   5.318 -0.0011  0.0474 -0.0568
11689W        W28537   1.757  14.375  15.051 -0.3115  0.2214  0.1822
11690W        W28538   7.819   4.234   0.246 -0.0321  0.1663  0.0989
11691W        W28539  16.252  12.363   0.214 -0.1026  0.4086 -0.1441
11692W        W28540  10.943  17.379   1.003  0.1450 -0.0692  0.4798
11693W        W28541   7.890   6.461   3.411 -0.0807 -0.1585  0.0244
11694W        W28542   2.584  11.029   3.416 -0.0251  0.2055  0.3300
11695W        W28543  16.188  14.526   0.840  0.1141 -0.2908 -0.0018
11696W        W28544  12.660   8.347   1.350  0.0546 -0.0479  0.4558
11697W        W28545   0.784   5.675  13.819 -0.0492  0.0115 -0.1790
11698W        W28546  12.201   8.874   1.432  0.1927  0.0696  0.0027
11699W        W28547   7.520  17.888  16.007 -0.2089  0.1757 -0.1426
11700W        W28548  15.039  13.628   5.396 -0.1643 -0.2031 -0.0153
11701W        W28549  12.685   8.686  13.976  0.0328 -0.1336  0.0899
11702W        W28550   9.995  14.546  14.670  0.5552  0.1769  0.0901
11703W        W28551  16.111   1.610   5.577  0.0775  0.0578  0.0958
11704W        W28552   0.085  11.888  14.666  0.0387 -0.0317  0.0516
11705W        W28553   7.287  13.260  15.178  0.3811  0.0692  0.0777
11706W        W28554  10.758  16.236  12.397 -0.0307 -0.1026 -0.0868
11707W        W28555   6.571  12.446   4.802 -0.1825  0.2443  0.2768
11708W        W28556   1.059   9.339  15.595 -0.1164 -0.0270 -0.1407
11709W        W28557  10.338   2.430   2.662  0.5500  0.3596 -0.0285
11710W        W28558  15.467  11.982  15.844 -0.0453  0.5484 -0.0083
11711W        W28559   2.309  18.007   3.547 -0.1205 -0.1287 -0.1228
11712W        W28560   7.969  17.358  14.367  0.2672 -0.1368 -0.1511
11713W        W28561  17.362   3.518   1.949 -0.1139  0.0096  0.0460
11714W        W28562  15.595   1.549  15.887 -0.2124 -0.1298 -0.1533
11715W        W28563  11.227   0.146   4.868 -0.1229 -0.0572 -0.3197
11716W        W28564   4.702   6.939  13.382  0.1501 -0.3232 -0.2311
11717W        W28565  15.150   6.009   0.883  0.3873  0.2489  0.2029
11718W        W28566  10.067   6.647   1.976 -0.1302  0.0452  0.3429
11719W        W28567   2.125  16.420   3.317  0.1207  0.1808  0.0494
11720W        W28568  11.984  16.092   4.931 -0.2255 -0.3029 -0.0416
11721W        W28569   2.690   4.002  12.494 -0.0842 -0.0065 -0.1315
11722W        W28570   0.275  10.977   0.457  0.1821  0.0974 -0.2692
11723W        W28571   9.829   6.978  13.149  0.2648  0.0199  0.1567
11724W        W28572   5.457  15.994   2.817 -0.3662 -0.0959  0.1321
11725W        W28573  15.526   5.955   2.857 -0.1056 -0.2582 -0.3798
11726W        W28574  17.802   6.211   4.860  0.2909 -0.0865  0.2362
11727W        W28575   2.702  17.333  12.973  0.1112  0.1560  0.1386
11728W        W28576   3.228  15.347   3.761  0.0772  0.1510 -0.2983
11729W        W28577   0.732   6.399  11.973  0.1837 -0.0829 -0.2386
11730W        W28578  14.234  13.813  14.621 -0.1115 -0.1492 -0.1775
11731W        W28579  12.162  15.709   0.117 -0.1537  0.0515  0.0724
11732W        W28580   1.833  11.412   4.481  0.0322  0.1006  0.0165
11733W        W28581   1.192   4.371   0.935 -0.0950  0.1757 -0.0044
11734W        W28582  10.026   5.664   3.234  0.3487 -0.1275  0.1716
11735W        W28583  11.994  12.374   2.623 -0.0041  0.1455  0.0912
11736W        W28584   5.363   2.044  12.423 -0.2218 -0.0686  0.0765
11737W        W28585  14.746   3.387   0.340  0.2139 -0.1207 -0.0580
11738W        W28586  16.633  11.547  12.129 -0.0430  0.0828 -0.0543
11739W        W28587  14.988  10.849  15.614  0.1704  0.0075 -0.1232
11740W        W28588  12.578  13.156  13.712  0.1018  0.0413  0.1923
11741W        W28589  14.647   1.461  14.213 -0.0548  0.0902  0.1979
11742W        W28590  12.812  17.780   2.936  0.2517  0.1879  0.0692
11743W        W28591   8.663  12.713   2.971 -0.0988 -0.1928  0.0263
11744W        W28592  14.415   7.706   0.823  0.0826  0.1562  0.3649
11745W        W28593   2.606  11.085   0.163 -0.1879  0.1170 -0.2700
11746W        W28594   4.203  16.990   3.110  0.2735 -0.0289  0.0613
11747W        W28595   3.302   5.088   2.853  0.0665 -0.1632  0.2583
11748W        W28596  17.885   0.522  14.464  0.1369 -0.2121  0.3011
11749W        W28597   8.990  15.068   1.168  0.2742  0.0618  0.1022
11750W        W28598  17.817  13.029  12.295  0.1992  0.1886 -0.0952
11751W        W28599   0.559   5.571   1.161 -0.3721 -0.1058  0.1515
11752W        W28600   7.627  13.299   4.627 -0.2544 -0.0177  0.2344
11753W        W28601  16.821  13.348  15.080  0.0191 -0.0148  0.1046
11754W        W28602   6.364  12.138   3.644  0.3519 -0.0367  0.0334
11755W        W28603  17.755   5.206   1.106 -0.4470  0.0118  0.0948
11756W        W28604  17.358   9.436  14.722  0.1110  0.1860  0.1922
11757W        W28605   0.825  13.764   4.954  0.0543 -0.0195 -0.0134
11758W        W28606  11.224   5.851  11.297  0.2465  0.0375  0.1021
11759W        W28607   1.579  13.624  12.391 -0.2298  0.3431  0.2814
11760W        W28608   7.135   2.556   2.707 -0.4939  0.0559 -0.0990
11761W        W28609  15.461  15.245  14.213  0.2318  0.0545 -0.1160
11762W        W28610  17.136  12.708  15.604  0.0537 -0.0218  0.0395
11763W        W28611  14.789   2.528   3.374  0.0764 -0.1773  0.0520
11764W        W28612  12.145   5.611  12.114  0.3289  0.0111 -0.1712
11765W        W28613  16.933   1.566  14.304  0.0484  0.0905 -0.2024
11766W        W28614  14.532   9.291  12.768 -0.0581  0.1501  0.2280
11767W        W28615   0.396   8.256  11.569 -0.4228  0.0369  0.1056
11768W        W28616  11.872   5.276  12.966 -0.0180  0.0908 -0.0028
11769W        W28617   1.124   4.214  15.905 -0.1384  0.2538  0.1114
11770W        W28618  18.056   0.534  15.419  0.2524  0.1603 -0.0197
11771W        W28619  13.757  16.904  15.412  0.2202 -0.0458  0.2220
11772W        W28620   0.117  15.530   5.377  0.2008 -0.0423  0.3143
11773W        W28621  13.758  17.186   5.004  0.2424  0.0795 -0.0701
11774W        W28622  16.046   9.601  15.527 -0.0596  0.1095  0.3237
11775W        W28623  14.223  11.606  14.341  0.2807 -0.3179  0.2226
11776W        W28624   4.704   1.394   3.012  0.0874 -0.5776 -0.2489
11777W        W28625  15.510   4.926   2.490 -0.1271 -0.1224  0.2896
11778W        W28626   1.638   9.896   5.072 -0.0190 -0.2685 -0.1967
11779W        W28627   5.399   1.541  12.463  0.0719 -0.2666 -0.1745
11780W        W28628   3.968   0.608  13.401  0.1518 -0.0229 -0.1273
11781W        W28629   1.630   5.364   3.560  0.0607 -0.0117  0.0356
11782W        W28630   7.375  13.029   1.974  0.1082 -0.1384 -0.1197
11783W        W28631  14.146  11.092  15.940 -0.3038  0.1793  0.2521
11784W        W28632  11.082  17.827  14.332 -0.0851 -0.0855  0.1606
11785W        W28633  12.286   9.211  12.023 -0.1468  0.2255  0.0684
11786W        W28634  14.965   2.276   2.776 -0.2056 -0.0680 -0.0978
11787W        W28635  15.069  11.581   4.413  0.0282  0.0779  0.0469
11788W        W28636   2.460   5.800   0.264 -0.0876 -0.0991  0.2673
11789W        W28637   0.971   7.445  14.142 -0.1004  0.0278 -0.5779
11790W        W28638  11.610   2.077  14.922  0.0908 -0.1602 -0.0233
11791W        W28639   7.870   3.923  15.217 -0.3085  0.1268  0.2440
11792W        W28640  13.605  13.028  12.044 -0.1649  0.0517  0.0633
11793W        W28641  13.071  17.780  14.657  0.3743 -0.2431  0.0077
11794W        W28642   8.756   2.405  15.846 -0.0591  0.0022 -0.0279
11795W        W28643  15.547   9.383  13.201 -0.0188  0.1875  0.1582
11796W        W28644   9.537  13.316   0.145  0.1260 -0.1854 -0.2751
11797W        W28645   4.684   8.472   3.195 -0.0352  0.0327  0.0747
11798W        W28646   2.781   9.629  10.626 -0.1162  0.0453  0.0612
11799W        W28647  17.207  17.735  15.636 -0.1156  0.3257  0.0049
11800W        W28648   7.472   7.549  12.358 -0.2271 -0.1403 -0.1056
11801W        W28649   4.830   6.574   3.723 -0.1534 -0.3393  0.0641
11802W        W28650   3.825   6.810   2.553  0.1164  0.1841 -0.1119
11803W        W28651  13.603   7.613   0.282  0.1623 -0.0244 -0.0416
11804W        W28652   6.595   0.576   6.111 -0.0551  0.3177 -0.0709
11805W        W28653  16.053  11.433  12.010  0.2167  0.0458 -0.1620
11806W        W28654  11.930   6.334   2.882 -0.3890 -0.1329  0.1405
11807W        W28655   8.475   4.808   4.489 -0.0943  0.2869 -0.0747
11808W        W28656   8.474   3.213  16.158 -0.2865 -0.0850  0.2897
11809W        W28657  13.128   7.437   0.203  0.1154 -0.1860 -0.1936
11810W        W28658  18.093   0.454  13.352  0.3515  0.0678  0.0490
11811W        W28659   1.670   1.018   1.634  0.0767 -0.3606 -0.2697
11812W        W28660  15.144  11.140  13.327  0.0908  0.1256  0.0049
11813W        W28661   6.377   0.521   4.597  0.1731  0.2015 -0.0641
11814W        W28662  11.420  16.978   1.862  0.0437  0.3145 -0.2416
11815W        W28663  16.702   0.088  13.606  0.1299 -0.2272  0.1152
11816W        W28664   1.428   6.797   4.623  0.4861 -0.0895 -0.1133
11817W        W28665  16.207   1.818   3.420  0.0852 -0.0523 -0.1716
11818W        W28666  12.196   9.784   4.028  0.0245  0.0377 -0.2389
11819W        W28667  17.054   0.250   2.170  0.0423 -0.1013 -0.0946
11820W        W28668   1.286  13.935   4.672  0.4261  0.2727  0.0374
11821W        W28669  13.657  17.303  12.953 -0.0055 -0.0244 -0.0737
11822W        W28670   7.951  10.630  11.875 -0.1775 -0.1790 -0.1814
11823W        W28671   0.021  15.641   1.905 -0.1268  0.2715  0.1845
11824W        W28672   8.166   1.694  15.950  0.0997 -0.1969  0.0680
11825W        W28673   9.313   8.077   4.065 -0.0060 -0.0361  0.0431
11826W        W28674  17.127  15.476  13.197 -0.3366  0.0578 -0.0967
11827W        W28675  11.665   5.995  12.198 -0.0036 -0.0560 -0.2342
11828W        W28676  10.831  13.579   3.557  0.0723 -0.1774 -0.0674
11829W        W28677   2.534  16.247   3.099 -0.1504 -0.1180 -0.0072
11830W        W28678   1.955  16.459   4.551 -0.0133  0.0114 -0.0734
11831W        W28679   8.097   0.300   3.109  0.0824 -0.2238  0.1728
11832W        W28680  11.563   5.572  15.985  0.3934  0.1666 -0.0188
11833W        W28681   1.288  14.894  11.451  0.0873 -0.1779 -0.1679
11834W        W28682  11.188   0.781  11.558 -0.0588  0.0743  0.1010
11835W        W28683  15.057   8.690   3.985 -0.2760 -0.1021  0.0510
11836W        W28684   4.466  17.314   2.653  0.0963  0.0432  0.0151
11837W        W28685   4.596   8.116   0.637 -0.3386  0.0219  0.1724
11838W        W28686  15.387  16.831  14.939  0.1517  0.0033 -0.0779
11839W        W28687  13.664  13.694   1.056 -0.0570  0.0753  0.2020
11840W        W28688   3.113   9.653   0.181  0.0403 -0.0666  0.1422
11841W        W28689   0.010   5.477  12.624  0.3549  0.0979  0.0870
11842W        W28690  11.267  15.038   3.288 -0.1980 -0.0887 -0.3912
11843W        W28691   1.027   6.962   3.987  0.2676 -0.1701  0.1658
11844W        W28692  16.038   7.364  16.142 -0.0562  0.0849 -0.2470
11845W        W28693   4.753   7.968  13.846 -0.3290  0.1584  0.0238
11846W        W28694  13.056  12.562   1.161  0.3760  0.0302 -0.2229
11847W        W28695   0.711  17.540   0.887  0.0580 -0.2260 -0.0619
11848W        W28696   2.987   1.381   2.548  0.1072  0.2873  0.0762
11849W        W28697   1.196   8.782  14.922  0.1727 -0.2341  0.1541
11850W        W28698   6.807   6.302   1.991 -0.4409  0.0379 -0.0847
11851W        W28699  12.767  13.223   4.182  0.0051  0.1269  0.1212
11852W        W28700   7.181   1.763  12.962  0.0372  0.1688 -0.1651
11853W        W28701   3.726   2.689  11.779  0.0277  0.1388  0.2442
11854W        W28702  15.814  15.491   0.265 -0.1871  0.3314  0.3219
11855W        W28703   7.048   6.481  11.722  0.0085 -0.0552  0.0350
11856W        W28704   4.350   5.208  10.790 -0.2846 -0.0166  0.0831
11857W        W28705   7.265   7.259  11.983 -0.2400  0.0254 -0.1871
11858W        W28706   6.798  14.468   3.879  0.0485 -0.3462  0.2761
11859W        W28707  16.446   3.840  13.507  0.2367  0.0089  0.0756
11860W        W28708  10.328  17.085  16.141  0.0685  0.1146 -0.4873
11861W        W28709   3.918  15.345  15.647 -0.0475  0.2154 -0.1110
11862W        W28710   0.447   4.795  14.171  0.0340 -0.0924  0.0411
11863W        W28711   2.409   2.565  16.046  0.1445  0.0554 -0.1549
11864W        W28712  18.059  12.009  12.865 -0.0836 -0.0812 -0.0059
11865W        W28713  11.619   1.667  13.110  0.2010 -0.0516  0.2599
11866W        W28714  14.005  14.027  15.308 -0.2801 -0.2221  0.2913
11867W        W28715  17.076  16.979  15.022 -0.0613 -0.0365 -0.0266
11868W        W28716   7.533   1.313  14.388 -0.3296  0.0934 -0.1040
11869W        W28717  13.695  15.690   1.178 -0.1515 -0.4656  0.0140
11870W        W28718   1.161  10.585  11.847 -0.0943  0.0023 -0.2600
11871W        W28719   7.633  12.314  12.251 -0.1113 -0.2175  0.0772
11872W        W28720  13.210   1.061   1.416  0.1371 -0.0870  0.1070
11873W        W28721  10.800  15.826  16.019  0.2666  0.1810  0.2125
11874W        W28722   4.157   1.783  15.282 -0.0860  0.2941  0.2105
11875W        W28723   6.364  14.994   6.090  0.2914 -0.0525 -0.1079
11876W        W28724  13.034   9.549  12.657 -0.2058  0.1864 -0.0047
11877W        W28725   3.421   4.310   0.721  0.4962 -0.1673 -0.1498
11878W        W28726   1.865  14.705   5.024 -0.0878  0.0085  0.1344
11879W        W28727   7.125   4.719   4.608 -0.4329  0.0125 -0.1937
11880W        W28728  17.752   7.848  12.877 -0.0997  0.2019 -0.2447
11881W        W28729  12.324   5.439  11.544 -0.0190  0.4905 -0.2349
11882W        W28730  16.112  17.066  16.229 -0.0800  0.0947 -0.1505
11883W        W28731  16.961  13.792  14.916 -0.2980 -0.0973 -0.1337
11884W        W28732   8.111   6.519  14.365  0.0615 -0.1649 -0.3592
11885W        W28733  13.398   1.894  13.122  0.1431 -0.1879  0.0936
11886W        W28734   8.316  17.968  13.779  0.0752  0.0171  0.0466
11887W        W28735  15.422  17.718   4.251 -0.1248 -0.1968 -0.3004
11888W        W28736  12.317  13.690  13.031  0.2630 -0.6519  0.0715
11889W        W28737  14.099   1.496  12.430 -0.0166  0.0577 -0.2211
11890W        W28738  12.971   7.822  11.752 -0.1842 -0.3063  0.2131
11891W        W28739   4.434   2.067  11.932  0.1490  0.1172  0.2541
11892W        W28740   0.339   2.828  12.760  0.1652 -0.2237 -0.2958
11893W        W28741  15.885   5.325  12.488  0.4147  0.0818 -0.1935
11894W        W28742   7.578   2.491  15.065 -0.2010  0.0515  0.0419
11895W        W28743   9.984   8.856  15.610 -0.0569 -0.3386  0.0855
11896W        W28744   7.000  16.331   3.640 -0.0124 -0.1435  0.1750
11897W        W28745   7.235   1.802  15.410 -0.1189 -0.0963  0.1515
11898W        W28746   8.855   8.835  15.383  0.2137  0.0378 -0.0080
11899W        W28747   8.101  17.186   4.063 -0.0218  0.1855  0.2016
11900W        W28748   9.110   3.800  15.489 -0.0288  0.1067 -0.2645
11901W        W28749  14.831  17.427  13.929  0.2012 -0.2772  0.1490
11902W        W28750   2.309   3.906  15.255  0.0375  0.2824  0.2310
11903W        W28751   1.449  11.791  12.799  0.0854 -0.2123  0.0377
11904W        W28752  11.584  12.014   1.874 -0.0182 -0.1442 -0.3680
11905W        W28753   0.183   4.391   0.668  0.1405  0.2313 -0.1444
11906W        W28754  17.181   5.137   4.262 -0.0351  0.1791  0.1329
11907W        W28755   0.409   3.953   0.249  0.0577  0.1593 -0.2127
11908W        W28756  17.756   4.582  12.354 -0.2643  0.1423  0.2178
11909W        W28757   1.384   5.150  13.129 -0.0341  0.0052  0.2067
11910W        W28758   3.925   8.239  12.176 -0.3436 -0.0615  0.0648
11911W        W28759   1.737  15.232   2.570 -0.1569  0.1130  0.1572
11912W        W28760   8.542  12.194   1.333 -0.1660 -0.4444  0.1732
11913W        W28761   5.468  11.353  11.896  0.0481 -0.1586 -0.0814
11914W        W28762  15.173   8.272   0.079 -0.1179 -0.0265 -0.0161
11915W        W28763  13.727  17.865   3.272  0.0380  0.0843 -0.3878
11916W        W28764   8.809   0.742  13.654  0.0366  0.1654  0.1877
11917W        W28765  17.046  14.468   2.526  0.1996  0.2819  0.0336
11918W        W28766  14.790  17.938   0.091 -0.2028  0.1380 -0.0363
11919W        W28767  17.638   9.503  13.693 -0.3959 -0.1671 -0.0073
11920W        W28768   7.875  10.161  15.571  0.0698 -0.0625 -0.2166
11921W        W28769   7.587  14.043  14.248  0.6447 -0.1522  0.2310
11922W        W28770  11.960   8.491   2.194  0.1208  0.0017  0.2458
11923W        W28771  12.258   7.627   1.195  0.3364  0.2423  0.0406
11924W        W28772   5.397  16.331  15.658 -0.1881  0.2064  0.0834
11925W        W28773  13.526  17.609  10.090 -0.0113 -0.2126 -0.1103
11926W        W28774   3.093  11.201  15.060  0.2480  0.5081 -0.0339
11927W        W28775  12.000   2.839  16.291 -0.0437  0.2931  0.2272
11928W        W28776  10.851   4.940   3.400  0.0647  0.1864 -0.0133
11929W        W28777  10.828   6.175   0.637 -0.1203 -0.5275 -0.0853
11930W        W28778   9.600  14.349  12.291  0.1258 -0.0311 -0.1661
11931W        W28779  15.319   6.687  15.256  0.0278 -0.1104 -0.2241
11932W        W28780  10.967  15.570   3.920  0.0003 -0.1329 -0.2384
11933W        W28781  11.764   8.187   0.850 -0.1026  0.0815  0.0737
11934W        W28782  14.266  10.263  13.882  0.0701 -0.1983  0.0310
11935W        W28783   2.658  14.739  13.311 -0.0243 -0.2330 -0.0034
11936W        W28784   7.839  17.792  13.919  0.0003 -0.4978  0.1737
11937W        W28785   2.292   7.597  15.748  0.4302 -0.0166  0.2387
11938W        W28786   4.056   2.789  15.611  0.2362 -0.0556 -0.1540
11939W        W28787   1.202   1.229   1.041  0.2392 -0.2809  0.2071
11940W        W28788   3.232   0.253  11.436 -0.1036  0.0605  0.3383
11941W        W28789   9.479  14.931  11.717  0.2058  0.0984  0.1632
11942W        W28790   9.930  11.286   2.740  0.0960 -0.2923  0.3504
11943W        W28791   9.265  16.645  14.597  0.0462 -0.1360  0.2251
11944W        W28792   4.829  10.289  11.690 -0.0426  0.2774  0.2825
11945W        W28793   2.459  14.776   0.742 -0.1258  0.0527 -0.1227
11946W        W28794   0.358   5.992  15.119  0.1002  0.5647 -0.1580
11947W        W28795   6.276   2.471   0.812 -0.3372  0.2571  0.1241
11948W        W28796  15.990   9.529  13.275 -0.1490 -0.0049  0.2918
11949W        W28797   8.882   5.389   0.006  0.2687  0.1967  0.2849
11950W        W28798  14.442   3.625  13.607  0.2121  0.3119  0.1366
11951W        W28799   7.903   7.260   1.744 -0.0912  0.1389 -0.1950
11952W        W28800   5.312  11.528  12.697 -0.0355  0.0911  0.2775
11953W        W28801   9.756   2.294  16.045  0.1495 -0.0075 -0.0602
11954W        W28802   5.836   5.839   1.883 -0.1054 -0.0982  0.0291
11955W        W28803  15.172  17.647  14.340  0.2281  0.1588  0.0964
11956W        W28804   5.188   5.485  14.748  0.3388  0.0642  0.2555
11957W        W28805   5.284   6.024  13.707 -0.0888 -0.0589 -0.1857
11958W        W28806   5.722  15.137  15.404  0.4880  0.0358 -0.2106
11959W        W28807   6.194   4.812   3.315 -0.0218  0.0242 -0.0248
11960W        W28808  16.562   6.170  15.417 -0.0289 -0.1813 -0.0059
11961W        W28809   9.545   1.887  15.928  0.0643 -0.2760 -0.0277
11962W        W28810   3.384   8.745   5.177 -0.1172 -0.3347  0.2407
11963W        W28811  15.289  10.050   3.650 -0.1750  0.0218  0.1350
11964W        W28812   2.477   0.483  13.703  0.2380 -0.2288 -0.3453
11965W        W28813  15.195  16.311   2.757  0.0968 -0.0465 -0.1696
11966W        W28814  10.279   3.667  12.644 -0.4381 -0.0915 -0.0796
11967W        W28815   6.009   1.067   2.752 -0.0338  0.0180 -0.3238
11968W        W28816   3.259  10.830  14.096  0.1222  0.1912 -0.1892
11969W        W28817   5.488  16.491  11.721  0.0021 -0.0557  0.0451
11970W        W28818   5.466  11.119  10.922 -0.0423 -0.1807 -0.2966
11971W        W28819   6.808   6.220  15.296  0.3771  0.0809 -0.1361
11972W        W28820   2.517   6.129  13.513 -0.2133  0.0435  0.0613
11973W        W28821   2.851   3.342   4.806  0.2034 -0.1826  0.3652
11974W        W28822   5.740   1.684   1.804  0.1871  0.2367 -0.1861
11975W        W28823  16.308  12.713  12.665 -0.1807 -0.1302  0.1363
11976W        W28824   7.513  15.004  12.835  0.2393  0.1682 -0.0244
11977W        W28825  17.085   8.566  14.421 -0.1340 -0.2696  0.2564
11978W        W28826  11.096  15.800  15.632 -0.5650  0.1198 -0.5817
11979W        W28827  11.848  11.972   3.927  0.2353 -0.2983  0.0676
11980W        W28828  11.606  14.069  13.279 -0.0560  0.0590  0.2505
11981W        W28829   0.528  13.079  13.383 -0.0857 -0.1046 -0.2290
11982W        W28830   7.142   1.364  13.879 -0.1733 -0.1800 -0.0841
11983W        W28831  17.498  17.855   2.248 -0.1026 -0.2017 -0.2750
11984W        W28832  17.280   5.602   0.237  0.0713  0.0505 -0.0006
11985W        W28833   1.533  16.787  12.772  0.2325 -0.1586  0.2111
11986W        W28834  16.851  14.915   3.395  0.1234  0.0546 -0.0812
11987W        W28835  14.472  15.414  15.750 -0.3899 -0.3291 -0.0998
11988W        W28836   3.310  12.294   5.602 -0.2722  0.0465 -0.2915
11989W        W28837   2.137   0.916  12.813 -0.3742 -0.1327 -0.1156
11990W        W28838  15.827  10.750   5.129 -0.4718 -0.1341 -0.0088
11991W        W28839  12.339   2.639  15.099  0.0225 -0.5172 -0.0569
11992W        W28840   9.070   3.238   4.952 -0.2199  0.1613  0.0889
11993W        W28841   9.944  11.545  14.194  0.3179  0.0013 -0.2424
11994W        W28842  11.804   6.440   1.907 -0.1287 -0.2807  0.1764
11995W        W28843  16.551  11.359  16.274  0.1678 -0.1550 -0.1078
11996W        W28844  11.646  17.684  15.567  0.1217  0.2712  0.1211
11997W        W28845   8.357   9.005   0.080  0.0584 -0.1700 -0.1419
11998W        W28846   0.786   1.527   4.487  0.2064  0.1051  0.3719
11999W        W28847   2.691   5.221  13.487  0.0514  0.3149 -0.0299
12000W        W28848  13.691  16.214   0.344  0.2705 -0.0794  0.2392
12001W        W28849   9.846   1.200  12.449  0.1781  0.4191 -0.1115
12002W        W28850  17.695   7.613  13.879  0.0496  0.1549 -0.0035
12003W        W28851  10.516   9.697   0.451  0.2957 -0.2230  0.0598
12004W        W28852   4.859   2.244  12.447  0.1766  0.1267 -0.1042
12005W        W28853   7.816   2.590  11.391 -0.0999 -0.1888  0.0965
12006W        W28854   2.075  12.796  14.558  0.1614  0.0712  0.2003
12007W        W28855   6.595  15.990  16.083  0.2366  0.3217 -0.0792
12008W        W28856  17.885   2.270  13.872  0.1112  0.1098 -0.0933
12009W        W28857  10.488   9.198  15.017 -0.1197  0.1647 -0.0411
12010W        W28858  15.927   9.083  12.982 -0.2063  0.2848  0.1488
12011W        W28859   1.354  15.846   0.882 -0.0322 -0.0039  0.1345
12012W        W28860   5.888   9.705  15.727  0.1795 -0.3406  0.2075
12013W        W28861  14.681   3.139   4.203 -0.4516 -0.0678 -0.0842
12014W        W28862  10.203   8.523   4.377 -0.0832  0.3833  0.2255
12015W        W28863  17.981   4.579  11.907 -0.0036 -0.1232  0.0174
12016W        W28864   6.672  11.717  10.024  0.1668 -0.1907  0.1379
12017W        W28865   6.168  14.089   0.262  0.1421  0.3565 -0.3840
12018W        W28866   0.210   1.125   3.486 -0.3713  0.1297  0.0492
12019W        W28867   4.681  11.392  14.789 -0.0900  0.4190 -0.0751
12020W        W28868  16.996  10.645   1.989 -0.0551 -0.5848  0.0504
12021W        W28869   7.999   0.660   5.105 -0.0753  0.1410  0.1757
12022W        W28870   9.457  16.739  11.974  0.1949  0.0935  0.0511
12023W        W28871  16.615  15.754  14.428 -0.1311  0.4410  0.1831
12024W        W28872   4.214  12.180   1.995 -0.0833 -0.0367  0.0281
12025W        W28873  15.175   6.958  13.556  0.0423  0.2144  0.0552
12026W        W28874   6.355   1.650   3.344  0.0426  0.1331  0.0970
12027W        W28875   3.911  16.666  15.930 -0.0704 -0.2509 -0.0633
12028W        W28876   7.805  17.369   3.685  0.0044  0.0866 -0.1378
12029W        W28877  17.382  13.994   3.759 -0.1311 -0.0140 -0.2701
12030W        W28878   0.895  14.252  15.386 -0.1158 -0.1214 -0.2582
12031W        W28879  16.288   8.762  15.874 -0.2151 -0.0956  0.2494
12032W        W28880   6.711  15.664   3.760 -0.1442 -0.2119  0.1694
12033W        W28881   9.615  16.054  11.310  0.3281 -0.0529 -0.1121
12034W        W28882   1.383  14.326   1.941 -0.2128 -0.0514 -0.2921
12035W        W28883  11.200   0.414   3.750  0.1989  0.3148  0.3590
12036W        W28884   3.086   4.167  12.847 -0.3751  0.0427  0.0615
12037W        W28885  16.014  10.228  12.318 -0.0600  0.3496 -0.0092
12038W        W28886  15.386  11.323   0.951  0.0308  0.1042 -0.1817
12039W        W28887   5.100  17.666  12.319 -0.1391  0.3118 -0.3045
12040W        W28888   6.208   5.594  14.798 -0.3229 -0.1571 -0.0386
12041W        W28889   7.084   3.787  15.460 -0.0881  0.1652  0.2777
12042W        W28890  11.195  13.085  15.294 -0.0229  0.0066 -0.0537
12043W        W28891  10.495   1.922  15.818  0.0663  0.1262 -0.1174
12044W        W28892   4.224   2.815   2.112  0.3695  0.2663  0.1607
12045W        W28893  10.575   2.960  13.635 -0.1202 -0.1258 -0.0978
12046W        W28894   5.717   6.869  13.661  0.4538 -0.1215 -0.0405
12047W        W28895   0.605   8.554   0.663  0.1615 -0.3253  0.1251
12048W        W28896  11.272  14.592   3.654 -0.0785  0.0521  0.0766
12049W        W28897   9.692   5.969  13.226 -0.2215 -0.0379 -0.0034
12050W        W28898  12.503   2.325   4.652 -0.1290  0.0263 -0.2056
12051W        W28899  11.035   3.232   4.583  0.1782  0.0038  0.3525
12052W        W28900   4.681  17.199   3.151  0.2956 -0.0253 -0.0710
12053W        W28901  15.658  14.469   0.875 -0.0218 -0.3288  0.0464
12054W        W28902   6.716  14.898  13.186  0.0109 -0.0106 -0.2623
12055W        W28903   5.649   0.243   2.378 -0.3051 -0.0388  0.0338
12056W        W28904   3.305  10.836  15.417  0.1615 -0.1749  0.2059
12057W        W28905   4.758   5.900  12.858 -0.1880 -0.2240  0.0507
12058W        W28906  11.939   4.137   3.169  0.3635 -0.2023 -0.0882
12059W        W28907   7.158  11.385  10.835  0.2157 -0.0035 -0.2703
12060W        W28908   8.352   1.248   1.105 -0.0797 -0.3162 -0.1777
12061W        W28909   9.740   2.992   0.499 -0.0236 -0.1862 -0.0325
12062W        W28910  14.978   7.375  10.590 -0.1782 -0.0019  0.1377
12063W        W28911  14.926   0.101   1.717 -0.1569  0.3082 -0.0821
12064W        W28912  14.373   7.870  12.869  0.2935 -0.0484 -0.1951
12065W        W28913  10.536  13.469  16.315  0.0119  0.0002 -0.1582
12066W        W28914   7.000  15.865   3.368 -0.1674 -0.2733  0.0283
12067W        W28915   2.875   2.887   0.390 -0.0283  0.1486 -0.1137
12068W        W28916   9.024  15.902   4.168 -0.3262  0.1783  0.5280
12069W        W28917   5.363   0.308  11.718  0.0853 -0.4545 -0.0145
12070W        W28918   8.215  10.840   4.049  0.0791 -0.0580  0.3155
12071W        W28919   3.477  16.623   6.132  0.0993 -0.3627 -0.0550
12072W        W28920   0.796  16.188   0.238 -0.1961 -0.3283  0.1414
12073W        W28921  16.727   1.368  15.318  0.2098 -0.1753  0.0265
12074W        W28922   7.899   5.076  14.155  0.0188 -0.1430 -0.0680
12075W        W28923   9.486   7.173   0.938 -0.1152 -0.0293 -0.3296
12076W        W28924   6.469   3.583  15.191  0.2188  0.0353  0.1321
12077W        W28925  15.799  17.353   4.480 -0.1139 -0.2693 -0.1903
12078W        W28926  17.325   3.316  10.489 -0.1220 -0.0439 -0.0589
12079W        W28927   9.970  14.295   4.837  0.2481  0.5285  0.1713
12080W        W28928   9.234  14.649   0.925 -0.0811  0.1796  0.2154
12081W        W28929   4.475  14.219  13.676 -0.2240  0.0394  0.0478
12082W        W28930   3.166   9.799  10.288 -0.0020 -0.0986 -0.1524
12083W        W28931   7.155   4.029   4.751  0.1952  0.0574  0.1832
12084W        W28932  17.950   8.858   2.225  0.0578  0.1429  0.0917
12085W        W28933   1.587  14.302   4.895  0.4238  0.1854  0.5103
12086W        W28934   6.705  16.302  13.195  0.1336 -0.4476 -0.0401
12087W        W28935   8.889  16.627  12.054  0.0648  0.3658 -0.2146
12088W        W28936  16.818  15.790  12.964  0.4054  0.1919 -0.1349
12089W        W28937   6.535  14.628  12.197  0.0618 -0.2249  0.0391
12090W        W28938   2.833   5.231   1.953 -0.3547  0.1553 -0.5276
12091W        W28939  14.618  16.708  14.485  0.5665 -0.2233  0.2296
12092W        W28940   7.216   9.532   4.871 -0.0240  0.0158 -0.0641
12093W        W28941  16.457   0.975  10.208  0.0191 -0.1034  0.0759
12094W        W28942   7.485  15.654   1.697 -0.1833  0.0306 -0.1200
12095W        W28943   0.290  10.213   0.741 -0.0392  0.1694 -0.1497
12096W        W28944   2.498   9.679  12.761 -0.0668  0.0884 -0.0327
12097W        W28945  16.076  13.249   1.532  0.0464 -0.0833  0.1512
12098W        W28946  14.535   7.167   3.908  0.0110  0.3313 -0.0356
12099W        W28947  14.530  12.334  12.435  0.0445  0.1281 -0.2035
12100W        W28948   8.157   2.809   2.788  0.0509 -0.0216 -0.1044
12101W        W28949   6.704  13.833  16.305 -0.2065  0.0515 -0.0730
12102W        W28950  16.418   1.419  11.378 -0.1675 -0.0097  0.1174
12103W        W28951   7.067   2.692  13.480  0.3485 -0.4496 -0.3991
12104W        W28952  14.013  11.527  12.966 -0.0862 -0.0678  0.3383
12105W        W28953  14.338   5.798  11.110  0.0827 -0.1871  0.3776
12106W        W28954   0.257   8.075   0.790 -0.3343 -0.0329  0.1332
12107W        W28955   9.733  14.949  14.971 -0.3341 -0.2251 -0.0655
12108W        W28956  15.420   6.707  11.233 -0.0227 -0.1343  0.1186
12109W        W28957  12.644  11.677  12.155 -0.1083 -0.1386  0.2038
12110W        W28958  11.103   6.693  14.977  0.0794 -0.0348  0.0861
12111W        W28959   5.457   8.423   1.184 -0.0419  0.1414  0.0070
12112W        W28960   8.606   7.471   1.082  0.0352 -0.0358 -0.0133
12113W        W28961   0.055  14.249  14.910  0.2446  0.0716  0.2368
12114W        W28962   3.855  10.511   0.333 -0.1292  0.0081 -0.0745
12115W        W28963   0.440   1.795   2.305 -0.0663 -0.2954 -0.1268
12116W        W28964  12.551  11.067   4.988  0.0891  0.0660  0.0219
12117W        W28965  12.779  11.221  11.592  0.1412 -0.1283  0.1517
12118W        W28966   6.560  12.702   0.555  0.2561  0.2670  0.0812
12119W        W28967   2.758  17.408  15.026 -0.0277 -0.0394 -0.0659
12120W        W28968   9.518   5.186  12.509  0.1756  0.1717  0.0202
12121W        W28969   0.329  14.231   0.233 -0.1336 -0.0388 -0.0255
12122W        W28970   0.001  15.236   5.984 -0.2497 -0.0952  0.1911
12123W        W28971   0.492   4.992  13.489  0.0469  0.1690 -0.3862
12124W        W28972   1.833   2.358   2.349  0.1115 -0.0244  0.1917
12125W        W28973  15.022   6.305   4.532 -0.0458  0.3222 -0.1494
12126W        W28974  14.177   1.164   5.255 -0.4921 -0.1634  0.0508
12127W        W28975   4.623   7.810   3.920  0.1328 -0.1048  0.1683
12128W        W28976  16.252   6.170   4.519 -0.1250  0.3349  0.3384
12129W        W28977   7.516   0.077  14.026  0.1981 -0.2396  0.3794
12130W        W28978   3.646   4.694  10.889 -0.1002  0.2332 -0.3778
12131W        W28979  11.405   6.961  12.974  0.1916  0.0190 -0.0703
12132W        W28980   2.196   5.278   5.812 -0.0014 -0.1820 -0.0260
12133W        W28981   8.340  16.573   1.351 -0.0040  0.0085  0.2494
12134W        W28982   5.206  11.289   4.042 -0.1310 -0.0732 -0.1554
12135W        W28983  14.713   0.643  13.121 -0.1026 -0.3720  0.0300
12136W        W28984   5.541  12.806   0.795  0.0670  0.0873  0.1874
12137W        W28985   5.982   8.209   0.420 -0.2294 -0.1007  0.1564
12138W        W28986   6.165  12.469   2.842  0.1456  0.1756 -0.0909
12139W        W28987  11.378  15.329  15.660  0.1300  0.1487 -0.2341
12140W        W28988  14.294  18.092  14.685  0.1213 -0.3137 -0.1113
12141W        W28989  17.937   3.980   2.157 -0.0876 -0.1947 -0.2591
12142W        W28990  15.464   7.770   4.844  0.4049 -0.1722 -0.1369
12143W        W28991   5.562  15.993  13.721 -0.1236 -0.1366 -0.0205
12144W        W28992   4.900  10.878  14.043 -0.0122  0.5925  0.0782
12145W        W28993  11.709   6.378  15.031  0.1896  0.1202  0.0801
12146W        W28994  16.315  15.454   5.107 -0.0487  0.0942 -0.1169
12147W        W28995  12.922   7.174   2.524 -0.1611 -0.0100 -0.1052
12148W        W28996   5.042   6.497   5.089  0.1520 -0.1674 -0.1892
12149W        W28997   2.504  10.109  14.639 -0.1198  0.1544 -0.0939
12150W        W28998   1.598   0.907  15.213 -0.0293  0.0052 -0.0786
12151W        W28999  15.652   6.915   4.060  0.3557 -0.1865  0.1449
12152W        W29000  17.582   1.608  12.070  0.2887 -0.1883 -0.1298
12153W        W29001   4.005  13.032  15.672 -0.4650  0.1262  0.0357
12154W        W29002  10.080  14.379  12.519 -0.1564 -0.1356  0.0579
12155W        W29003  12.795  15.824   2.612 -0.3376 -0.2197 -0.1741
12156W        W29004  11.398   5.146   0.017 -0.1344 -0.2236  0.0234
12157W        W29005   8.367   9.256  12.622  0.1519 -0.1367  0.1916
12158W        W29006  14.971  15.320  15.000 -0.1653  0.4149 -0.3070
12159W        W29007   6.707   5.986   0.864 -0.0816 -0.2563  0.0283
12160W        W29008   6.838  17.509   2.397  0.2659  0.1981  0.0878
12161W        W29009   9.766   3.691  14.447 -0.2597  0.1819  0.0237
12162W        W29010   9.366   7.879  15.423 -0.1094  0.0995  0.1866
12163W        W29011   3.127   4.059  12.040  0.3210 -0.2989  0.0746
12164W        W29012  11.622   0.048  11.919  0.0540  0.2256  0.0784
12165W        W29013   6.479  14.390  10.444 -0.1123  0.0004 -0.1637
12166W        W29014   9.174   6.992   2.172  0.1342 -0.1224 -0.2200
12167W        W29015   7.959   8.524   2.146  0.3777 -0.0718 -0.1938
12168W        W29016   5.272  11.697  16.274  0.0147  0.3062 -0.1493
12169W        W29017   0.388  13.918   1.922 -0.2489 -0.0238 -0.1413
12170W        W29018   0.160  10.247  14.798 -0.1985  0.2574 -0.0105
12171W        W29019   0.669   8.665   4.866  0.1787 -0.3164  0.1605
12172W        W29020  16.631   6.898  16.116 -0.3869 -0.2965 -0.0292
12173W        W29021  17.738   8.338  12.712 -0.1299  0.0672 -0.1250
12174W        W29022  14.570   2.708   1.036  0.0106  0.1079 -0.0454
12175W        W29023  10.010   6.879   4.032  0.1622 -0.1563  0.1062
12176W        W29024   5.405  13.522   1.936 -0.0644  0.3385  0.0835
12177W        W29025   6.853   8.228   0.368  0.1543 -0.0676 -0.2863
12178W        W29026   9.970   3.039   3.943  0.0706  0.1283  0.1223
12179W        W29027   9.622   8.153  13.950 -0.2434  0.0721 -0.0272
12180W        W29028  10.023  14.113   2.961  0.2674  0.2434 -0.4512
12181W        W29029  14.277   1.380   1.676 -0.1052 -0.2348  0.2545
12182W        W29030  15.524   1.608  13.822 -0.0385  0.1831 -0.2099
12183W        W29031  17.520   9.677   4.628 -0.1795  0.1036  0.0912
12184W        W29032   2.713  11.305   1.498  0.2698  0.0157 -0.0060
12185W        W29033  14.282   1.729  12.004  0.0850 -0.1785  0.0005
12186W        W29034  16.886   0.075  15.764  0.0391  0.1503  0.2579
12187W        W29035  12.321  15.567   0.569 -0.0649 -0.1253 -0.0148
12188W        W29036   1.618   5.718   1.755 -0.2637  0.0410 -0.1335
12189W        W29037   5.127  12.178  11.076 -0.0811  0.2599  0.3179
12190W        W29038  12.444  10.064   3.038 -0.3629 -0.0795 -0.3382
12191W        W29039  16.763   6.762  12.050  0.2175  0.1398  0.2312
12192W        W29040   2.112   4.402  14.485  0.0826 -0.2231 -0.0203
12193W        W29041   5.216  15.923   1.000 -0.1394  0.0460 -0.0792
12194W        W29042  15.098  11.674  12.130  0.0862  0.1465 -0.0334
12195W        W29043   1.002   0.494  12.261 -0.1114  0.1693 -0.0396
12196W        W29044   4.842   8.740  15.184  0.0632 -0.0964 -0.0439
12197W        W29045  12.124   8.430  12.442 -0.3243  0.1330 -0.2604
12198W        W29046   7.220  10.926  11.549  0.1592 -0.1091  0.0026
12199W        W29047  12.170  14.562   0.362  0.0291  0.2436 -0.0103
12200W        W29048   7.902   7.011  11.319  0.0088  0.2165 -0.0989
12201W        W29049  10.991  16.667  12.658  0.0453 -0.2688  0.0135
12202W        W29050   2.644   1.618  14.293 -0.0490 -0.2346 -0.0641
12203W        W29051   9.923   0.422  11.327  0.1477 -0.1613  0.6804
12204W        W29052   6.669  10.944  14.096  0.1096  0.0554 -0.1688
12205W        W29053   6.452   5.396   0.574 -0.0384  0.2709 -0.0600
12206W        W29054   7.163  12.935  11.344 -0.1508  0.0396 -0.2796
12207W        W29055  17.459  10.426  15.680  0.1699  0.0499  0.0524
12208W        W29056  12.244  13.429   2.314 -0.2274  0.1338 -0.1654
12209W        W29057   1.259   6.983   2.327  0.0584 -0.2385 -0.0359
12210W        W29058   8.253   3.180   1.272 -0.0836  0.1629 -0.3646
12211W        W29059  17.924   7.844  12.418  0.1301 -0.1263 -0.1068
12212W        W29060   7.899  17.676   4.046 -0.0572  0.0134 -0.1252
12213W        W29061  14.772   8.044  16.108  0.2171 -0.1248 -0.3983
12214W        W29062  10.825   6.604  14.484  0.1451 -0.0793 -0.0022
12215W        W29063   7.422   5.058   3.742  0.1765 -0.0803 -0.1022
12216W        W29064   2.297   9.695   1.915 -0.2140  0.1288 -0.2423
12217W        W29065   7.886   6.892   4.078  0.3151  0.1020 -0.2237
12218W        W29066   8.636   0.444  14.861 -0.1538  0.2120 -0.0318
12219W        W29067   0.768  14.499   0.067  0.0417 -0.0097  0.3583
12220W        W29068  11.950   6.979  12.987 -0.0866  0.4356  0.0846
12221W        W29069   0.937   7.568  14.651 -0.1807  0.0704  0.0665
12222W        W29070  13.204  18.015  15.058  0.0319 -0.0142 -0.0683
12223W        W29071  12.206   4.916  15.005  0.3722 -0.2195  0.1833
12224W        W29072  12.175   7.113   0.485 -0.1674  0.0701  0.1364
12225W        W29073  17.896   5.474   3.474  0.0887  0.1765  0.0246
12226W        W29074  13.113  12.006   0.296  0.1353 -0.0156  0.1018
12227W        W29075   9.310   8.352  13.513  0.4342  0.0217  0.0767
12228W        W29076   4.475   3.547   4.468  0.2250 -0.1649  0.2334
12229W        W29077  16.206   5.764  10.976  0.0528 -0.0338 -0.2311
12230W        W29078  16.775   3.567  16.215 -0.0819  0.1498  0.3436
12231W        W29079  11.463   2.936  14.770  0.1187  0.0139  0.3711
12232W        W29080  14.475  11.689   5.203 -0.0265  0.2773  0.0066
12233W        W29081  13.379   2.488  15.139  0.1543 -0.0825 -0.0631
12234W        W29082   1.163   8.828   2.683 -0.0666 -0.1037  0.2468
12235W        W29083   3.859   1.320  13.184  0.0510 -0.1788 -0.3784
12236W        W29084   9.189  10.346   0.054  0.1091 -0.3533 -0.0611
12237W        W29085  17.188   6.343   3.719  0.0969  0.0350 -0.0088
12238W        W29086  14.379   3.243   0.832  0.0562  0.2751  0.0568
12239W        W29087  16.709   2.433  14.887  0.0920  0.2328  0.0604
12240W        W29088  12.103  16.385   4.490  0.2199  0.1715 -0.0734
12241W        W29089   2.962   4.618   0.694 -0.0637 -0.1201  0.0717
12242W        W29090  17.021   7.355   0.568  0.2005 -0.0556 -0.0649
12243W        W29091   6.663   4.565   3.164  0.2228  0.1083 -0.1566
12244W        W29092  11.469   4.586   1.448  0.1107  0.0421  0.1842
12245W        W29093  17.903   4.997  12.693  0.3405 -0.2624 -0.0349
12246W        W29094  13.666   9.953  14.424 -0.2413 -0.5255  0.0391
12247W        W29095  11.213   6.693   0.024  0.1901  0.3530 -0.2932
12248W        W29096   3.962   7.811  12.879 -0.2466  0.2495  0.2533
12249W        W29097   2.527   4.943   5.060  0.1532 -0.1572 -0.0546
12250W        W29098   9.869   4.083  15.912 -0.3511 -0.2581  0.0865
12251W        W29099   5.705  11.649   3.659 -0.1818 -0.1627 -0.2298
12252W        W29100  15.550  10.567   0.021  0.0295  0.2598 -0.0336
12253W        W29101  11.555   4.322   2.339  0.1717  0.0721  0.0349
12254W        W29102  14.704   5.930   0.046  0.3344  0.1557  0.0421
12255W        W29103   9.788  13.806  16.199 -0.1503 -0.0657 -0.0328
12256W        W29104  12.165  11.157   0.855  0.2475  0.0573 -0.0025
12257W        W29105  10.528   9.739  16.213  0.0904  0.0782 -0.1062
12258W        W29106   7.611   3.961   4.200 -0.2058 -0.1466  0.0203
12259W        W29107   7.228  16.790   3.768 -0.1312 -0.4244  0.0738
12260W        W29108  14.372  17.030  11.327  0.0196 -0.4105 -0.0525
12261W        W29109   3.055  15.091   5.003  0.0832 -0.0140 -0.2450
12262W        W29110  17.914   0.005   2.472 -0.0996  0.2814 -0.2228
12263W        W29111  13.633   0.694   3.714  0.1943  0.1471 -0.2098
12264W        W29112   6.960  17.534  12.820 -0.0065 -0.1009 -0.0191
12265W        W29113   4.298   5.281  15.209  0.0573  0.0205 -0.2635
12266W        W29114   7.553  10.403  11.115 -0.1563  0.0826 -0.0411
12267W        W29115   7.025  16.940  14.674  0.2779  0.3040  0.1545
12268W        W29116  11.636  11.668  15.938  0.4417  0.2294  0.0509
12269W        W29117  12.417  15.342   5.200  0.3262  0.0913  0.0799
12270W        W29118  16.591  14.635  15.323  0.1659  0.2026 -0.2517
12271W        W29119   2.143   0.696   2.592 -0.0363 -0.2996 -0.0206
12272W        W29120   2.630  15.149   4.518 -0.0732 -0.0668 -0.0266
12273W        W29121   4.041   4.926   4.525  0.0255 -0.0684 -0.0637
12274W        W29122  13.479  17.979  12.262 -0.0942  0.0467 -0.0341
12275W        W29123   6.543   1.684  11.549 -0.1072  0.1495 -0.2092
12276W        W29124  10.530  14.283   0.311 -0.1199 -0.1967 -0.1704
12277W        W29125   9.493  18.080   1.444  0.2291  0.5394  0.4964
12278W        W29126  12.912  16.287  14.509 -0.1200  0.1979  0.0749
12279W        W29127   6.216   3.027   0.843  0.1849  0.1354 -0.2239
12280W        W29128  11.885   9.517   1.162  0.2223 -0.0272 -0.1578
12281W        W29129  13.122   3.174  11.195 -0.2313  0.1103  0.1450
12282W        W29130   7.964   3.617   1.554 -0.0171 -0.3709 -0.1427
12283W        W29131   5.273   4.533   2.565 -0.1154 -0.2026 -0.3103
12284W        W29132   0.981   1.560   3.633 -0.1594  0.3607 -0.4608
12285W        W29133  17.745  18.095  15.472 -0.2819 -0.0054  0.2651
12286W        W29134  12.614  12.161  12.004 -0.1589 -0.0944  0.2227
12287W        W29135   2.922   3.251   0.812 -0.3273  0.1149  0.1998
12288W        W29136  13.412   5.731   4.959  0.0559  0.0717  0.0226
12289W        W29137  10.026  13.199  16.245  0.1078 -0.1953  0.0723
12290W        W29138   4.612   7.579   0.536 -0.0696  0.0635 -0.0984
12291W        W29139   7.158   2.118  12.555  0.0783  0.0725 -0.1699
12292W        W29140   1.709   8.039   6.212 -0.3674  0.0981  0.0340
12293W        W29141   9.906   5.101   5.516 -0.1209 -0.0624 -0.2764
12294W        W29142  11.077  13.498   2.270  0.1561  0.0885 -0.1663
12295W        W29143  15.967  11.337   2.039  0.2054  0.2795  0.0881
12296W        W29144   9.856   2.300   1.099  0.0839 -0.1281 -0.1591
12297W        W29145   4.818   6.790   4.412  0.1210 -0.0262  0.0659
12298W        W29146  10.352  15.470   4.394 -0.0433  0.0850 -0.2652
12299W        W29147   0.591   9.144   0.941  0.2144 -0.0736  0.1923
12300W        W29148   0.172  14.083   5.048  0.1443 -0.0995  0.2149
12301W        W29149   8.338   3.950   3.704  0.0121  0.4318  0.3089
12302W        W29150  10.915   2.506  14.410 -0.0870 -0.3725  0.4061
12303W        W29151  15.481  10.126   4.350 -0.0573  0.0474  0.2312
12304W        W29152  16.331   1.393   0.150 -0.0269  0.1172 -0.0346
12305W        W29153  15.617  15.690  14.090 -0.1721  0.2751  0.3812
12306W        W29154  13.698  13.112  15.493  0.2257  0.1184 -0.1022
12307W        W29155  14.849   5.665  14.738 -0.1960 -0.2287 -0.2313
12308W        W29156  10.533  16.793   6.114  0.0982  0.1144 -0.0881
12309W        W29157   2.722   3.713  14.468 -0.4134 -0.0346  0.0277
12310W        W29158   3.853   5.448   1.998 -0.1416 -0.0961 -0.0287
12311W        W29159  12.006   9.252   4.821  0.0431 -0.0737  0.0505
12312W        W29160   4.632   3.673   3.958  0.1997 -0.0998  0.0317
12313W        W29161  14.006   0.494   4.458 -0.0613 -0.0661 -0.1884
12314W        W29162  17.887   6.812  14.055 -0.1936 -0.0491  0.2006
12315W        W29163  14.535  14.923  11.832  0.0197  0.1634 -0.0409
12316W        W29164   2.018   6.157   0.323 -0.1038  0.0819  0.2194
12317W        W29165   8.125   8.098   1.256 -0.0662  0.0128  0.4063
12318W        W29166   3.948  10.121   2.274 -0.0745  0.2536  0.0082
12319W        W29167  14.462  11.774  11.256 -0.0903  0.0104  0.0336
12320W        W29168   3.046   1.658  14.916 -0.0446 -0.1403 -0.0440
12321W        W29169   1.818   8.909  12.593 -0.0510  0.0845 -0.0119
12322W        W29170   2.789   3.498   1.345 -0.1500  0.0600  0.0187
12323W        W29171  10.979   7.161  15.686  0.1745  0.1601 -0.2502
12324W        W29172   0.465   4.282   1.575 -0.0027  0.4081 -0.1369
12325W        W29173  10.042   0.662  16.193  0.3459 -0.0254 -0.1730
12326W        W29174   3.407   0.506  14.267 -0.1968  0.3090 -0.4102
12327W        W29175   3.386  12.039   2.151 -0.3546 -0.1752  0.1654
12328W        W29176  12.704   5.229   5.734 -0.0446  0.1136 -0.0702
12329W        W29177   1.863   2.769  12.834 -0.0358 -0.1021  0.0800
12330W        W29178  16.614  15.922  15.761 -0.0421 -0.0279  0.1243
12331W        W29179   7.826   0.742  13.725 -0.1347  0.0978  0.0863
12332W        W29180   6.660   6.438  12.771 -0.1657 -0.2168  0.2177
12333W        W29181  12.682  14.519  11.503  0.0673 -0.3969  0.0425
12334W        W29182   2.321   1.725   2.005  0.2860  0.0863 -0.0573
12335W        W29183  15.717  16.418  13.694  0.2259 -0.1942 -0.0838
12336W        W29184   1.975   3.624   1.037  0.0224  0.2755  0.1691
12337W        W29185  12.902   6.636  11.308 -0.0571  0.2151 -0.3790
12338W        W29186   5.443  13.676  13.844 -0.3199 -0.2813 -0.0086
12339W        W29187   4.503   2.631   4.885  0.0402 -0.0080 -0.0550
12340W        W29188   8.682  14.800   3.943 -0.4921 -0.1760 -0.2793
12341W        W29189   7.411   5.919  15.505 -0.1122  0.1326 -0.3109
12342W        W29190  16.901  11.993   4.077 -0.0322 -0.0572  0.0498
12343W        W29191   7.111  13.104   2.478 -0.0589 -0.3192 -0.1103
12344W        W29192   4.090   6.191  15.308 -0.2956 -0.0413  0.2155
12345W        W29193   8.353  18.060  12.817  0.1721 -0.0266  0.0611
12346W        W29194   2.826   5.571  15.393  0.0131  0.0752 -0.3652
12347W        W29195  17.331   4.148  14.398  0.1110  0.3556 -0.1639
12348W        W29196  16.968  16.570  12.448 -0.1399  0.0228 -0.0290
12349W        W29197  10.995   4.843  12.003 -0.3817  0.1632 -0.1652
12350W        W29198   1.847  17.490   5.410  0.0817  0.0630 -0.0994
12351W        W29199  16.101   6.891  14.160  0.3558  0.0707  0.2584
12352W        W29200  10.247   5.342   0.177  0.2196 -0.2800 -0.0345
12353W        W29201   4.134  10.972   2.191 -0.0308 -0.1190  0.2825
12354W        W29202  14.080   4.673   4.534  0.0653 -0.2452  0.1629
12355W        W29203   8.030  16.430  11.739 -0.0435  0.0022  0.3634
12356W        W29204  12.862  13.445  16.149  0.1790 -0.3990  0.3427
12357W        W29205  10.121  12.678  12.881 -0.2610  0.1784  0.0385
12358W        W29206   4.107   3.622  10.292 -0.0474  0.0254 -0.0795
12359W        W29207  14.521  13.769   0.962 -0.1304 -0.0427 -0.3083
12360W        W29208  11.335  11.582   1.992  0.0229 -0.3238  0.0116
12361W        W29209   7.240   1.379   0.012 -0.0490 -0.1760  0.1452
12362W        W29210   3.266  13.286  12.488  0.0709  0.3916 -0.0517
12363W        W29211  17.676  10.047   4.271  0.2995  0.0605  0.2389
12364W        W29212   4.657   8.163  12.700 -0.3862 -0.3435  0.3543
12365W        W29213  15.894   3.447  16.072 -0.0242  0.0330  0.1661
12366W        W29214   2.341  11.041  12.249  0.3059  0.1156 -0.0243
12367W        W29215  16.811  14.152   3.134  0.0961 -0.0881 -0.1774
12368W        W29216   4.681   5.439   2.847  0.1001  0.1368 -0.0760
12369W        W29217  12.400   3.816   1.697 -0.1477 -0.1844 -0.1985
12370W        W29218   9.953  14.984   0.044 -0.3281  0.3380  0.1824
12371W        W29219   3.871   4.946   1.954  0.3429  0.0628  0.0810
12372W        W29220   5.852  16.479  14.879  0.2259  0.1915 -0.1690
12373W        W29221   4.592  13.248   4.095 -0.0437 -0.3054 -0.3811
12374W        W29222  15.514   1.890   3.482  0.0660 -0.0637 -0.0817
12375W        W29223  18.068  13.843   0.638 -0.0028 -0.0070  0.0614
12376W        W29224   2.052  10.113   1.745  0.1108  0.2165  0.1905
12377W        W29225  11.749  14.174   1.132 -0.0128  0.0037  0.0631
12378W        W29226   9.698  17.165   2.784  0.2118  0.1317  0.1431
12379W        W29227  10.018  14.223  12.040  0.2460 -0.0297 -0.1151
12380W        W29228  15.117   4.958  11.407 -0.3105 -0.1725 -0.0135
12381W        W29229   8.247  13.505   2.951 -0.3354  0.2019 -0.1953
12382W        W29230   0.915  15.868  14.217 -0.0981  0.1797  0.2344
12383W        W29231   1.444  12.169   5.973  0.3651  0.1260 -0.1084
12384W        W29232   9.885   5.292   1.756 -0.0331  0.1032 -0.3228
12385W        W29233  16.255  11.828   0.786  0.1469 -0.1260  0.1367
12386W        W29234  14.017  12.846   0.206 -0.0846 -0.2362 -0.0899
12387W        W29235   6.930   2.669   5.666  0.0739 -0.1283 -0.1241
12388W        W29236  17.625   7.494  12.285  0.0050 -0.1825  0.0854
12389W        W29237  12.998   1.369  15.729  0.2516  0.0084  0.2862
12390W        W29238   2.144   2.632  15.443 -0.0139  0.1368  0.2848
12391W        W29239   7.026  16.100   1.204 -0.1288  0.1426  0.0451
12392W        W29240   8.262  10.538   3.652  0.1731 -0.1955 -0.2981
12393W        W29241  14.168   3.400  14.804  0.3474 -0.4416  0.1767
12394W        W29242   3.726   7.724  12.444 -0.0071  0.2186  0.2090
12395W        W29243   8.557   1.204  10.878 -0.0575  0.3007 -0.2220
12396W        W29244  16.916   0.434   1.699  0.0064 -0.1430 -0.2172
12397W        W29245  10.501   9.633   1.838  0.0945 -0.0277 -0.1134
12398W        W29246  12.240   7.292   3.922  0.1281 -0.2033 -0.0409
12399W        W29247   1.565  15.349  11.467  0.1624  0.0881 -0.0305
12400W        W29248   0.160   4.359  11.561 -0.1233 -0.2554 -0.1026
12401W        W29249  17.078  11.784   4.565  0.2299 -0.2367  0.2058
12402W        W29250   6.753   0.890  12.015 -0.1144  0.3867 -0.1839
12403W        W29251  15.450   1.770   0.328  0.2714  0.1236 -0.1796
12404W        W29252   4.766  11.792  16.186 -0.0656 -0.2363 -0.0673
12405W        W29253  17.847  14.448  13.459 -0.2900  0.0514 -0.1345
12406W        W29254  13.357   6.527  13.581  0.2507 -0.3161  0.0341
12407W        W29255  16.528   6.820  14.782  0.0276 -0.0925  0.0660
12408W        W29256  10.879   0.788  10.858 -0.3029  0.2013 -0.0240
12409W        W29257   8.531   4.430  11.859 -0.0469 -0.0111  0.1891
12410W        W29258   1.641  17.831   1.267  0.0375  0.0010  0.1816
12411W        W29259  12.232  16.598  12.102 -0.0689 -0.2359  0.0566
12412W        W29260  17.646   2.481   0.043  0.0241 -0.0226  0.1478
12413W        W29261   0.334  13.281  15.335  0.1743 -0.1509  0.0693
12414W        W29262   3.059   3.771   2.637 -0.0991 -0.0441  0.1390
12415W        W29263  12.221   8.682  11.440  0.2189 -0.1041 -0.5700
12416W        W29264  10.096   0.280   2.207  0.0474  0.1669 -0.0789
12417W        W29265   8.338  10.586  14.790 -0.0353  0.2106 -0.3839
12418W        W29266   4.948   6.572  14.368 -0.2263 -0.0346 -0.2191
12419W        W29267   9.111  17.896   3.874  0.1064 -0.2969  0.1032
12420W        W29268   9.692   5.654  15.464 -0.0401  0.1365  0.0363
12421W        W29269  13.860   9.085  11.678  0.1981  0.0424  0.1230
12422W        W29270   7.009  12.776   3.895 -0.4518  0.0552  0.1440
12423W        W29271   7.214   6.128   1.659 -0.4063  0.1293  0.1378
12424W        W29272  17.016   5.536  11.990 -0.1286  0.0501 -0.1583
12425W        W29273   6.971  15.610  15.935 -0.1827 -0.1901  0.0195
12426W        W29274  10.895   8.574  11.242 -0.0819  0.1697 -0.0212
12427W        W29275   3.425   1.619  11.632  0.1573  0.1129  0.0856
12428W        W29276   4.917  14.532   1.492  0.2808 -0.0938 -0.1979
12429W        W29277   2.837  13.722   2.910  0.0348 -0.1640  0.0300
12430W        W29278   5.744  12.853   4.958  0.0085  0.2275  0.0501
12431W        W29279   2.744  15.763   1.966  0.1211  0.1137  0.2912
12432W        W29280  12.617   2.409   2.873  0.0036  0.1839 -0.0246
12433W        W29281   5.477   0.695  14.909  0.1590  0.0383 -0.0756
12434W        W29282   4.317   0.065  12.665 -0.0672  0.5677  0.0797
12435W        W29283  13.364   9.131   0.313  0.2136 -0.0446 -0.0088
12436W        W29284  16.249  11.448   3.323 -0.2972 -0.2556  0.0302
12437W        W29285   1.587  16.979  14.318 -0.0726 -0.0613 -0.1870
12438W        W29286   3.168   1.540   1.123  0.0805 -0.1957 -0.0250
12439W        W29287  11.827   1.101  10.928  0.0628  0.4742 -0.3017
12440W        W29288   7.625   3.636   0.340  0.0473  0.1423 -0.0898
12441W        W29289  11.277   0.568   1.462 -0.2009  0.0684  0.1885
12442W        W29290   4.386  15.412   0.868  0.0213  0.2279 -0.2194
12443W        W29291  16.620  12.093  12.094  0.1427 -0.2226  0.0258
12444W        W29292   7.067   8.024  12.880 -0.1337  0.0669  0.2459
12445W        W29293   3.021  14.135  12.406 -0.1365 -0.2656 -0.1124
12446W        W29294   2.216  16.716   4.935 -0.2574  0.0594  0.0188
12447W        W29295   1.966  11.783  12.877  0.1091 -0.0702  0.3787
12448W        W29296  11.629   0.595  13.628 -0.1688 -0.2846 -0.2072
12449W        W29297  16.825   5.087  11.446  0.3513  0.3950  0.1909
12450W        W29298  14.882   4.823   2.030  0.1587  0.0482 -0.1149
12451W        W29299  10.890   6.891  11.398 -0.2985 -0.0591  0.0178
12452W        W29300   9.478  11.668   1.361 -0.0601 -0.2042 -0.1547
12453W        W29301  16.800   5.624  12.763  0.3882  0.0219 -0.0925
12454W        W29302  16.070  15.830   2.204  0.1879  0.0202 -0.0618
12455W        W29303   0.458   5.755  11.384  0.0213 -0.2520 -0.3123
12456W        W29304  13.188   0.947   4.159  0.1144 -0.0627 -0.1982
12457W        W29305   2.943  16.249   2.427  0.2413 -0.2690  0.0342
12458W        W29306   7.101   7.114  11.160 -0.0118 -0.0553  0.2877
12459W        W29307  13.860   6.205   3.420 -0.0577 -0.5188  0.0157
12460W        W29308   9.388   2.047   0.070 -0.1074 -0.2555  0.1371
12461W        W29309   4.331  11.498  11.748 -0.3281 -0.0784  0.0335
12462W        W29310   3.755  10.906  16.265  0.0019  0.0306  0.0307
12463W        W29311   6.609   4.769   1.493 -0.0892  0.1275  0.5814
12464W        W29312  11.665   8.990   2.386  0.1033  0.0958 -0.1956
12465W        W29313   6.799   0.554   3.205 -0.0598  0.0944  0.0093
12466W        W29314   0.140  13.742  12.568  0.3649  0.0073 -0.1152
12467W        W29315   0.717   6.245  16.231  0.3864 -0.2578 -0.0765
12468W        W29316   1.599   8.218   0.715  0.0917 -0.1507  0.2238
12469W        W29317  13.071   2.098  14.844 -0.1013 -0.0985 -0.2847
12470W        W29318   9.542  16.346   5.157  0.1643 -0.2312  0.0902
12471W        W29319  15.760  10.399   2.941  0.2413  0.1125 -0.2609
12472W        W29320  11.462   1.600   2.955 -0.0515 -0.0305 -0.2348
12473W        W29321   3.089  14.984  13.598 -0.2043 -0.0005 -0.0821
12474W        W29322  16.606  10.460  12.471 -0.1887 -0.1654  0.0857
12475W        W29323  16.967   2.468   3.331  0.1814 -0.0588 -0.0475
12476W        W29324   3.519   1.529   2.392 -0.0528 -0.0509  0.0427
12477W        W29325   2.334  14.858  12.935  0.1395 -0.3443 -0.0560
12478W        W29326   1.433   6.065  12.452 -0.2282  0.3053  0.0381
12479W        W29327  14.304  13.363   0.401 -0.1482  0.0418 -0.1038
12480W        W29328   5.814  13.694  14.333  0.1242 -0.0442 -0.1965
12481W        W29329  16.021   2.091   2.339  0.0735  0.2785  0.2665
12482W        W29330  11.521   5.760   4.610 -0.0640 -0.1925  0.3181
12483W        W29331   7.124   5.952   2.215 -0.0466  0.2543  0.0545
12484W        W29332   8.352  16.836  15.752 -0.0811  0.0732  0.0009
12485W        W29333  13.330   4.252   2.437 -0.4355 -0.2052  0.0747
12486W        W29334   4.997   5.971  11.761  0.1422  0.0141  0.0372
12487W        W29335  11.574  17.098  15.431  0.3739  0.1230 -0.1214
12488W        W29336  12.368   0.715   1.284 -0.3288  0.1621  0.0014
12489W        W29337  13.054  14.719  13.124 -0.1460 -0.4022  0.1674
12490W        W29338  10.526   8.435  15.787 -0.0127  0.0144 -0.2586
12491W        W29339   7.618  13.335   0.011  0.0607 -0.0123 -0.0754
12492W        W29340  10.543   5.681   4.869 -0.2864 -0.3225 -0.3395
12493W        W29341  10.387   0.346  11.488 -0.3740  0.0595 -0.0622
12494W        W29342  16.147   1.797  12.842 -0.1794  0.1948  0.1318
12495W        W29343   6.992   2.329  15.354  0.1058  0.4870 -0.0392
12496W        W29344   0.271   1.912   3.882  0.2345 -0.0851  0.1300
12497W        W29345   9.371   3.321   3.181 -0.0857  0.1685  0.1036
12498W        W29346   3.218  11.623  12.386  0.0847 -0.0182 -0.0362
12499W        W29347  11.944   6.453  12.887 -0.1737 -0.1690  0.2009
12500W        W29348  14.265   7.165  14.450 -0.1090 -0.1485  0.0589
12501W        W29349  14.306   3.005   3.696 -0.0193  0.1063  0.2353
12502W        W29350   5.719   9.502  16.223 -0.0187  0.1325  0.0068
12503W        W29351  10.252  14.592   5.070 -0.1927 -0.1352  0.1635
12504W        W29352   9.872   4.003   4.085 -0.1776  0.0030 -0.1862
12505W        W29353   9.768  12.084  15.476  0.0778 -0.0663 -0.3485
12506W        W29354   7.488  11.569   3.311 -0.0781  0.1280 -0.3529
12507W        W29355  16.681  12.958   0.895 -0.0170  0.1009 -0.2556
12508W        W29356   1.021  17.565  15.522 -0.0421 -0.2818 -0.1216
12509W        W29357   9.983  11.241  11.249  0.0535  0.0087  0.2311
12510W        W29358   4.692   5.364   3.357  0.1642 -0.1155  0.2324
12511W        W29359   1.067  16.792   1.423  0.1674 -0.3351  0.0956
12512W        W29360   8.913   0.893   4.680 -0.1191  0.0214 -0.2046
12513W        W29361   5.405   1.342   4.031  0.0469 -0.0805 -0.0616
12514W        W29362   2.267   2.102   1.554 -0.0770  0.2343  0.0200
12515W        W29363  17.494   7.173   4.688  0.2660 -0.3018  0.1553
12516W        W29364   8.390   9.755   1.985 -0.1543 -0.0560  0.2516
12517W        W29365   9.566   4.675  12.467  0.2841 -0.1768 -0.2552
12518W        W29366  11.096   2.514  14.869 -0.0622 -0.1136  0.0637
12519W        W29367   0.577  10.825   1.973  0.2509  0.2394  0.3241
12520W        W29368   1.846   5.960  15.598 -0.0782 -0.2465 -0.1573
12521W        W29369  14.784   5.660  13.670 -0.3118  0.2662  0.0072
12522W        W29370   9.946  12.852  14.664 -0.2310 -0.0769 -0.0368
12523W        W29371   5.839  14.286   1.562 -0.0169  0.2841  0.1289
12524W        W29372   0.909  15.630  15.461  0.0523  0.1019 -0.0350
12525W        W29373   2.525  14.172   1.124 -0.2013 -0.0292 -0.3875
12526W        W29374   1.857   6.788   2.796  0.2994  0.0949  0.0577
12527W        W29375   8.260   9.693   4.366 -0.1856 -0.1009 -0.1546
12528W        W29376  13.981   5.996  13.797 -0.3300  0.0568 -0.3131
12529W        W29377  13.358  15.908   1.747  0.3480 -0.2642 -0.1105
12530W        W29378   8.999  13.490   0.896  0.1515 -0.1463  0.2878
12531W        W29379   4.556   7.560  11.398  0.1875 -0.0921  0.2988
12532W        W29380  11.969  11.034   3.722 -0.3553 -0.2288 -0.1218
12533W        W29381   1.288   1.356  14.465 -0.0856  0.1821 -0.0533
12534W        W29382  16.946   3.181  11.519  0.2660  0.0013 -0.0970
12535W        W29383  13.875  15.229  14.028 -0.0612 -0.0557 -0.1845
12536W        W29384  17.576  15.371  12.330 -0.2698 -0.0482  0.1522
12537W        W29385   8.750   3.951  13.417  0.1006 -0.0685  0.2078
12538W        W29386   7.355  13.126   4.216 -0.1734  0.3888  0.0703
12539W        W29387   2.760   0.924  13.763 -0.1212  0.2351  0.0859
12540W        W29388   6.599  10.700  12.505  0.0991  0.1021  0.0419
12541W        W29389   8.244   0.916  11.658 -0.1428 -0.1166 -0.1072
12542W        W29390   3.983  16.775  11.952 -0.1705  0.1497 -0.1847
12543W        W29391   7.797   9.887   4.202 -0.0525 -0.0168  0.2389
12544W        W29392   3.981   7.039   2.059 -0.3463  0.0048  0.1759
12545W        W29393   6.767  16.971   1.955 -0.0464 -0.2462  0.2571
12546W        W29394   3.760   9.693  11.651  0.3064 -0.2347 -0.0471
12547W        W29395  14.843   6.560  14.874  0.1339 -0.0707 -0.0280
12548W        W29396   1.754   1.299   4.203 -0.0878  0.0128  0.1854
12549W        W29397  11.936   0.589   2.611  0.1209  0.0952  0.1202
12550W        W29398   1.160  13.140   1.064  0.0604 -0.1352 -0.0925
12551W        W29399  13.024   9.970  12.968  0.1184 -0.1549 -0.2146
12552W        W29400  15.914   3.272  10.659  0.1619 -0.0550  0.2306
12553W        W29401   4.366   7.863   1.131  0.1038 -0.1951 -0.1019
12554W        W29402   7.767   9.719   0.119  0.3084  0.1448 -0.2352
12555W        W29403  10.875  12.131   0.322 -0.2286  0.1013  0.0848
12556W        W29404   2.148  17.868   3.041 -0.1099  0.1058 -0.1396
12557W        W29405   8.192  17.263   1.992  0.1492  0.4061  0.0700
12558W        W29406   5.475   1.471   3.150 -0.1024 -0.2173 -0.2665
12559W        W29407   9.098   4.640  15.992  0.1229  0.1894 -0.1063
12560W        W29408   0.002  17.545  16.090 -0.2587 -0.1519 -0.2589
12561W        W29409   1.957   6.792   0.909  0.4081  0.0218 -0.0376
12562W        W29410  12.132   2.119  13.198  0.0959 -0.1852 -0.1559
12563W        W29411  10.312  13.166   2.671 -0.2103  0.0568 -0.3262
12564W        W29412  14.315   9.109   0.642 -0.1281  0.1486 -0.1239
12565W        W29413  14.485  14.984   5.460  0.2505  0.1793 -0.2005
12566W        W29414   3.899   2.619   4.075  0.2378 -0.3003 -0.1966
12567W        W29415  17.651   5.233  14.336  0.1608  0.2365  0.1567
12568W        W29416   4.263  10.785  14.035 -0.0695  0.1614 -0.0341
12569W        W29417  12.863   7.465  12.783 -0.2677  0.0372  0.1225
12570W        W29418  14.984  12.545  13.447 -0.1782  0.1659 -0.0449
12571W        W29419  12.179   5.691   4.476  0.1585  0.1260  0.1768
12572W        W29420  18.007  11.764   1.056  0.0874 -0.0920  0.0450
12573W        W29421   6.316   8.657  14.058 -0.2216  0.2908 -0.1208
12574W        W29422   4.287  13.822  14.426 -0.0150  0.0645 -0.2495
12575W        W29423   0.595  16.375  11.759 -0.1258 -0.3364 -0.0029
12576W        W29424   2.824  10.555  13.916 -0.1082 -0.1395  0.2557
12577W        W29425  15.894  15.633  13.691 -0.3530 -0.2237  0.2707
12578W        W29426   8.704  12.493   0.661  0.1939 -0.1459  0.0606
12579W        W29427   2.606  17.169   0.964 -0.3665  0.0216 -0.0474
12580W        W29428   7.441   8.256  12.611  0.3550 -0.1294  0.0874
12581W        W29429   7.922   5.739  15.480 -0.2095  0.1879 -0.1479
12582W        W29430   0.795   4.349   2.513  0.0226 -0.2064  0.0882
12583W        W29431   8.929   3.485   6.330 -0.2127  0.0617  0.2186
12584W        W29432   1.067   6.958   0.879  0.0799 -0.1435 -0.1683
12585W        W29433   5.492   5.124   3.767 -0.0269 -0.2526  0.1500
12586W        W29434   0.150   8.340   5.443  0.0284  0.2982  0.0650
12587W        W29435   0.722  16.837  13.808 -0.0324 -0.1711 -0.0313
12588W        W29436  11.827   1.359  11.905 -0.1480 -0.2672  0.0241
12589W        W29437   3.707  10.943  13.511  0.0815  0.1611  0.0852
12590W        W29438   2.285   8.460   2.428  0.1827 -0.1212 -0.4892
12591W        W29439   2.614   4.758  14.181  0.4438 -0.1484 -0.0672
12592W        W29440  13.605   3.162   3.059 -0.1905 -0.0820 -0.2271
12593W        W29441   8.170   2.552   2.293  0.0826  0.3216  0.2078
12594W        W29442   9.863   6.116  11.014  0.0996 -0.2700  0.1439
12595W        W29443  10.413  12.719  10.758 -0.2203  0.0054 -0.1417
12596W        W29444  13.890   9.644   3.401 -0.0229 -0.2194 -0.0711
12597W        W29445  11.600  10.035  11.515 -0.2996  0.1139  0.2519
12598W        W29446  16.904  14.610   4.956 -0.1291 -0.1660  0.3783
12599W        W29447  17.624  13.907  14.209 -0.2074  0.0113  0.0464
12600W        W29448  15.826   9.988  15.058  0.1375  0.1265  0.1291
12601W        W29449   0.642   2.649  14.980  0.0725  0.2886 -0.0422
12602W        W29450   5.031   7.644  10.535  0.1953  0.2645 -0.2387
12603W        W29451  16.760   2.531   4.542 -0.1316 -0.2039  0.1124
12604W        W29452  16.703  11.670   1.843 -0.0084  0.2025 -0.1386
12605W        W29453  16.084  12.880  12.001 -0.1569 -0.0342  0.1678
12606W        W29454   9.351  13.886   1.592  0.3454 -0.0464  0.2124
12607W        W29455   8.516  16.409  16.015 -0.2980  0.1913  0.0529
12608W        W29456   1.493  13.976  11.681  0.0365  0.1776 -0.0489
12609W        W29457  16.120  13.004  13.230  0.0246 -0.2294  0.0928
12610W        W29458   4.988  16.375   1.733  0.1575  0.2266 -0.2217
12611W        W29459   3.649  12.436   0.705 -0.2228 -0.0679  0.3799
12612W        W29460  17.822   9.404  15.958  0.4280 -0.2857 -0.1088
12613W        W29461   2.445  16.401  12.026  0.1682  0.0773 -0.2050
12614W        W29462   9.130   9.785  13.171  0.1224 -0.1665 -0.0786
12615W        W29463  11.168   2.713   4.417  0.1546 -0.2867  0.1731
12616W        W29464   7.960  15.494   5.263 -0.0189 -0.2775 -0.2224
12617W        W29465   8.137   7.667  13.695 -0.0184 -0.1845 -0.0810
12618W        W29466  13.819  13.282   4.378  0.0686  0.1198  0.2528
12619W        W29467  15.968   7.988   1.897 -0.0711  0.1419  0.0370
12620W        W29468   1.954   0.305  11.242 -0.1560  0.0046  0.0603
12621W        W29469   6.508   0.458   0.219  0.2604  0.0197 -0.1316
12622W        W29470   8.243   1.133  13.676 -0.0876  0.3180  0.1189
12623W        W29471  10.432   3.473   5.284  0.1007 -0.2364 -0.0130
12624W        W29472  12.286   2.964  13.499  0.2625  0.1867  0.3226
12625W        W29473  11.850  10.404  14.882  0.3751 -0.1998 -0.1730
12626W        W29474  16.425  13.981  12.254 -0.3389 -0.3012 -0.3185
12627W        W29475  10.428  13.736   3.002  0.0596 -0.1709 -0.2276
12628W        W29476  13.242   0.322   5.423  0.1429 -0.1214 -0.1382
12629W        W29477  16.242  14.660  11.936 -0.0923 -0.3218 -0.1259
12630W        W29478   9.208  12.126  12.096 -0.1704  0.2236  0.0882
12631W        W29479   0.292   9.054   2.990  0.1952 -0.1569  0.0638
12632W        W29480  15.642  10.481  15.034  0.3440 -0.1512  0.0857
12633W        W29481   3.422   5.900  12.215 -0.0214 -0.1177  0.2719
12634W        W29482   3.996   1.152  12.751  0.1804 -0.1824 -0.0387
12635W        W29483   6.343   3.770  13.461  0.1390 -0.0054 -0.0104
12636W        W29484  13.430   4.642   5.365  0.0047  0.3090 -0.1595
12637W        W29485   6.364  10.209   5.307 -0.0595 -0.0128 -0.1946
12638W        W29486   2.316  10.498  13.901  0.1698  0.0266  0.0647
12639W        W29487  13.614  11.915  13.735  0.3355  0.0975  0.2344
12640W        W29488  11.259   3.884  12.861  0.2072 -0.0873  0.2000
12641W        W29489  13.381   6.811  11.325  0.0950 -0.1311  0.0973
12642W        W29490  11.933   1.300   5.266 -0.3363 -0.1491 -0.1355
12643W        W29491  11.973  10.591  11.693 -0.3684 -0.2894  0.1572
12644W        W29492   4.570  10.095   4.493  0.1462 -0.2368 -0.1244
12645W        W29493  16.813  13.198   0.473  0.2974 -0.1930  0.4152
12646W        W29494  12.820  14.946  14.096  0.0011 -0.1715 -0.2686
12647W        W29495  13.710   9.440   2.465  0.0110  0.0224 -0.1995
12648W        W29496   4.551  11.168   1.306  0.1842 -0.3417 -0.1508
12649W        W29497  17.324  17.605   5.278  0.2050  0.0964 -0.0168
12650W        W29498   4.153  18.017  14.408 -0.1735 -0.0942  0.1255
12651W        W29499  12.507  14.040  13.806  0.0315  0.1084 -0.2331
12652W        W29500   4.167   4.583  13.653  0.0343 -0.1310 -0.1600
12653W        W29501  12.867  12.754  11.407  0.1680  0.1342 -0.1703
12654W        W29502  10.858  16.617   4.263 -0.0714  0.1158  0.0319
12655W        W29503   8.470   9.548   1.509 -0.0547  0.1923  0.3857
12656W        W29504  13.917  17.874  11.455 -0.0626  0.1690  0.2692
12657W        W29505  14.356  11.784  13.620  0.0280  0.2020  0.2730
12658W        W29506   1.864   2.030   1.992  0.2210  0.1133  0.1200
12659W        W29507  14.658  12.436  16.078  0.2857 -0.2415 -0.2301
12660W        W29508  14.042   3.937  14.659  0.0042  0.1190  0.1288
12661W        W29509   7.869  17.997   5.521 -0.1462  0.0338  0.0635
12662W        W29510  11.491  13.036  13.224  0.1899  0.1594  0.0960
12663W        W29511   7.128   2.313  13.844  0.0675  0.2896 -0.2065
12664W        W29512   6.425  11.583   4.369 -0.3633  0.1868 -0.0830
12665W        W29513  15.126  11.762   0.575 -0.2425  0.0325 -0.3545
12666W        W29514   0.635   2.330  12.839  0.0613  0.2218  0.1804
12667W        W29515  12.023   3.903   4.131  0.1887  0.0425  0.0726
12668W        W29516   7.479   7.343   2.405  0.2909  0.3578  0.0063
12669W        W29517  16.159  10.810   3.947 -0.0910  0.1110  0.0981
12670W        W29518  15.037  12.040  15.343 -0.2300  0.0304  0.0496
12671W        W29519   1.700   4.068   3.765  0.2621  0.0479  0.1548
12672W        W29520  10.323   4.065   3.096  0.1284 -0.0069 -0.2393
12673W        W29521   1.952  12.612   1.239 -0.1632 -0.3596 -0.1554
12674W        W29522   9.159  15.717  13.361 -0.2059 -0.3154 -0.0341
12675W        W29523   8.744   6.563  15.108  0.3036  0.2555 -0.1271
12676W        W29524  13.541  13.265  12.509  0.0434 -0.1250 -0.1279
12677W        W29525   8.618  16.088   4.268  0.2062 -0.1271 -0.0129
12678W        W29526  14.946   9.447   1.129 -0.0409  0.1305  0.1503
12679W        W29527   6.787   3.148   1.521  0.1000  0.0257 -0.0037
12680W        W29528   4.980  12.004   1.516 -0.0221 -0.0749  0.1510
12681W        W29529   7.202   0.920  11.409 -0.1286  0.1467 -0.3588
12682W        W29530   2.441  12.657  12.869  0.0822 -0.3963 -0.1785
12683W        W29531   6.285   7.436   0.759 -0.2972  0.2269 -0.0030
12684W        W29532  16.227   6.574  11.767 -0.0037 -0.2814  0.2078
12685W        W29533   5.240   9.715  13.643 -0.1976 -0.1174  0.2224
12686W        W29534   8.133  13.441   4.503 -0.0835 -0.2246  0.2727
12687W        W29535   8.005   8.984   3.662 -0.3700 -0.0509  0.2126
12688W        W29536  16.568  14.489  12.454 -0.0660  0.3168  0.3019
12689W        W29537  16.533   6.524   2.752 -0.1585  0.1620 -0.1805
12690W        W29538   2.184  15.308   0.898  0.1889 -0.3943  0.0225
12691W        W29539   0.801   6.578  15.417 -0.0085 -0.1488 -0.2408
12692W        W29540   2.522   3.814   2.771 -0.0262 -0.0790 -0.3501
12693W        W29541  18.043  14.837   1.355  0.2508  0.0225  0.3621
12694W        W29542  15.102   7.626  11.361  0.0420  0.2038 -0.0774
12695W        W29543  10.928  17.382  10.428  0.0878 -0.0539 -0.1383
12696W        W29544   9.124   2.021   2.853 -0.2501 -0.0721  0.2146
12697W        W29545  14.114  16.193   2.957  0.1447  0.1657 -0.2343
12698W        W29546  15.928  16.822   0.718 -0.1016  0.1379  0.3713
12699W        W29547   5.905  17.950  14.681 -0.2122 -0.0443  0.1015
12700W        W29548   0.793   9.234   2.961  0.0957 -0.1426  0.0306
12701W        W29549   0.721   9.088  11.798 -0.1456 -0.3981 -0.0678
12702W        W29550   0.807  17.957  13.403 -0.5081 -0.1869  0.1920
12703W        W29551  15.642   4.923  12.980 -0.1083  0.1373 -0.4255
12704W        W29552   5.308  14.646  13.434  0.1525 -0.0173 -0.0231
12705W        W29553  11.187  11.277  15.673  0.2534  0.1140  0.2052
12706W        W29554  16.104  14.786  13.228 -0.2532  0.1828 -0.0489
12707W        W29555   1.992   7.358   5.111 -0.0158 -0.2038  0.2386
12708W        W29556  14.967  11.986  11.601 -0.1684 -0.1873 -0.2731
12709W        W29557   7.380  12.913  12.737  0.1810 -0.0151  0.4037
12710W        W29558  15.818   8.135   4.790 -0.1164 -0.1917 -0.2539
12711W        W29559  12.111  15.490  12.389  0.1040  0.2986  0.1129
12712W        W29560   0.758   1.243   0.865  0.0292  0.2789 -0.1159
12713W        W29561   9.492   7.970  12.567  0.1644 -0.0529 -0.1999
12714W        W29562   0.291   4.375   3.841  0.1021  0.4818 -0.2491
12715W        W29563   3.824  10.082  12.470 -0.0241  0.0094 -0.1012
12716W        W29564  13.722   9.942   2.604 -0.0456  0.0654  0.1195
12717W        W29565   0.372   4.970  12.825  0.1468  0.2014 -0.0530
12718W        W29566   3.686  15.675   1.916 -0.0709 -0.1682 -0.2594
12719W        W29567   5.939   4.206   2.063 -0.1441 -0.2851 -0.1524
12720W        W29568  10.366  15.363   0.815 -0.0518  0.0691 -0.0892
12721W        W29569  13.881   8.897   4.633 -0.0721  0.0080  0.1925
12722W        W29570   1.115  16.890   3.862 -0.1961 -0.1206  0.2908
12723W        W29571   4.794  12.232  12.524  0.1589  0.0096  0.0652
12724W        W29572   1.726  11.345  12.048  0.1700  0.1183  0.2590
12725W        W29573  11.526   3.019   0.218  0.1375  0.2689 -0.1681
12726W        W29574   1.715   8.605   5.158  0.0145 -0.0907 -0.1471
12727W        W29575   6.727   2.031  13.606 -0.1025  0.0457 -0.0717
12728W        W29576  11.043   4.055   5.481 -0.2058 -0.2517  0.0176
12729W        W29577   7.614  16.851  13.979 -0.1069 -0.0228  0.1740
12730W        W29578  14.349   3.706   4.496  0.2352  0.1479 -0.0507
12731W        W29579  10.606  10.413   2.274  0.1498  0.1093 -0.1391
12732W        W29580   4.407  17.117   0.694  0.4358  0.4493 -0.6368
12733W        W29581  10.162   9.880   2.809 -0.0910  0.2420 -0.1193
12734W        W29582  11.054   0.155   2.709  0.0123 -0.0863 -0.0729
12735W        W29583  16.424  15.214  13.979 -0.0775  0.2293 -0.1101
12736W        W29584   3.719   1.918   1.654  0.0655 -0.0008 -0.1601
12737W        W29585  11.816   5.598   1.310 -0.4328  0.0208 -0.0981
12738W        W29586   3.772  14.548   2.259  0.1413 -0.3173  0.1104
12739W        W29587  11.744   9.319   3.811  0.1465 -0.0617  0.1881
12740W        W29588  11.711  14.688  14.171 -0.0723 -0.4116  0.0419
12741W        W29589  13.752   6.856  13.395 -0.2113  0.0179 -0.3270
12742W        W29590   0.429  15.860   0.071  0.0732 -0.1449  0.0738
12743W        W29591  16.387   0.257   0.353 -0.0373  0.1045  0.0563
12744W        W29592   1.366  12.283   3.000  0.0777  0.2519 -0.0931
12745W        W29593  10.197  15.628   1.458 -0.0591  0.3681  0.0958
12746W        W29594   1.880   1.328  15.895  0.1612 -0.0517 -0.0819
12747W        W29595  15.181  14.266   3.842  0.0604  0.2158 -0.0815
12748W        W29596   7.125  10.606  11.169  0.1190  0.2222  0.2885
12749W        W29597   9.676  15.715   3.721 -0.0227 -0.0975  0.2882
12750W        W29598   7.417   1.198  15.924  0.1190 -0.4709  0.2817
12751W        W29599   2.587   7.894   1.674  0.2786 -0.4632  0.0073
12752W        W29600  10.690  10.905   1.457  0.1051  0.0008  0.1006
12753W        W29601  17.557   6.331  12.497 -0.2728  0.0721  0.3058
12754W        W29602   0.144  17.888   3.365  0.0464 -0.0368  0.1473
12755W        W29603  17.728   1.331  13.910 -0.0411 -0.0737  0.0578
12756W        W29604  10.316   2.477   5.047 -0.2910  0.3303 -0.1188
12757W        W29605  11.637  13.778   3.923 -0.1586  0.2257  0.1467
12758W        W29606  13.360  13.568  12.927 -0.4114  0.1213  0.2432
12759W        W29607   4.105   9.370  11.747  0.2638 -0.0670 -0.0475
12760W        W29608  15.799   1.154   4.800  0.1627  0.0380  0.2607
12761W        W29609   2.888   6.407  14.914  0.3464  0.1907 -0.0627
12762W        W29610  17.442  13.755   1.300  0.0036 -0.0455 -0.0783
12763W        W29611  12.806  12.396   2.010  0.2777  0.1006 -0.2578
12764W        W29612   2.925  13.953  14.482  0.2888  0.1613  0.3311
12765W        W29613  17.155   7.674  14.751  0.2263  0.3965 -0.6089
12766W        W29614   5.241   6.922  13.460 -0.1088  0.2784 -0.3448
12767W        W29615   4.102  15.596  12.607  0.1611 -0.0349 -0.2212
12768W        W29616  16.293   3.146   2.843 -0.0419 -0.4652 -0.1824
12769W        W29617  14.023  11.895   2.778  0.0997  0.2571 -0.2133
12770W        W29618   0.957  12.562  15.493  0.0773 -0.1839 -0.2359
12771W        W29619   9.276   7.015  12.513  0.0904 -0.2812  0.2407
12772W        W29620  10.784   0.020  11.529 -0.2413  0.1393 -0.2070
12773W        W29621   0.038  10.171   3.250 -0.2607 -0.2231  0.1154
12774W        W29622  17.773  17.369   1.364 -0.0121  0.2898 -0.0894
12775W        W29623   7.935   0.559  14.969  0.1751  0.1816  0.3279
12776W        W29624  13.450   9.790   3.671  0.2250 -0.1124  0.2346
12777W        W29625  12.197  17.336   3.857  0.1590  0.1960 -0.1607
12778W        W29626  10.310  11.939  13.592  0.1777 -0.1679 -0.1485
12779W        W29627   3.286  11.879   2.716 -0.1832 -0.0363 -0.1245
12780W        W29628   1.434  11.706   0.836  0.0529 -0.0082  0.0017
12781W        W29629  12.055  15.067   2.365 -0.2349 -0.2297 -0.0252
12782W        W29630   5.077   8.726  16.243  0.0240  0.0715 -0.3051
12783W        W29631  11.267   0.161  11.447  0.0425  0.0845 -0.1038
12784W        W29632   3.877   1.290  12.208  0.2527  0.2674  0.0445
12785W        W29633   6.327  14.955   0.522 -0.2006  0.0748  0.3243
12786W        W29634   3.174   8.148   2.405  0.1065  0.0074 -0.2106
12787W        W29635   1.468  14.492  16.162 -0.2461 -0.2572  0.0112
12788W        W29636  12.476   0.425  14.664 -0.0637  0.1815  0.0565
12789W        W29637   6.356   9.526   1.336 -0.1056 -0.0663 -0.0923
12790W        W29638  16.482   9.430  15.302  0.0827  0.3631  0.1258
12791W        W29639  11.132   4.149   2.559  0.0947  0.1277 -0.2524
12792W        W29640   5.460   2.089   1.754  0.2732 -0.1490 -0.0610
12793W        W29641  14.209   4.997   3.181 -0.0046  0.0603 -0.0686
12794W        W29642   9.604   3.639   1.177  0.1420 -0.0323  0.3510
12795W        W29643  10.022   0.586   3.170 -0.0966  0.2357 -0.0397
12796W        W29644   5.679   7.128  12.460 -0.0387 -0.1972 -0.2988
12797W        W29645  16.651   1.425   1.323 -0.2880  0.1169  0.0055
12798W        W29646   1.164  11.799  11.356  0.0862  0.0939 -0.2995
12799W        W29647   0.200   2.038  13.198 -0.1229 -0.1132 -0.1346
12800W        W29648  10.754  12.142  13.428  0.1981 -0.0887 -0.0535
12801W        W29649   0.867  13.439  14.356 -0.1664  0.3143 -0.1963
12802W        W29650  17.991  16.700   4.961  0.1539 -0.0997  0.3148
12803W        W29651   0.753   3.168   0.088 -0.0180 -0.0489 -0.4838
12804W        W29652   9.537   8.157  14.896  0.2285 -0.0284  0.1747
12805W        W29653   7.789  14.546   3.794  0.0616 -0.1481 -0.0745
12806W        W29654  12.928   4.258   2.695  0.1699  0.2608  0.2748
12807W        W29655  14.409  16.323  11.664  0.3103  0.0088  0.3426
12808W        W29656   1.392   2.112   0.102  0.0827  0.0244  0.0231
12809W        W29657   9.804   2.956  12.328  0.1735 -0.1165 -0.1501
12810W        W29658   5.642   6.814  10.177  0.0912  0.2081  0.1615
12811W        W29659  11.466   9.902  15.725  0.2230  0.1336 -0.1019
12812W        W29660  17.599   2.711  13.380 -0.2446 -0.1588 -0.0898
12813W        W29661  10.625   9.550   2.814  0.1632 -0.0931  0.1220
12814W        W29662  13.678  16.187   2.402  0.0335 -0.2549 -0.1319
12815W        W29663   9.673  17.634   2.602  0.1739 -0.1915 -0.1178
12816W        W29664   0.956   5.456  10.570 -0.0144 -0.1691 -0.2415
12817W        W29665   0.347   4.909  11.634  0.3295  0.0130 -0.0426
12818W        W29666   0.207  13.656   2.464 -0.0140 -0.0127  0.4004
12819W        W29667  13.959  16.433  15.602 -0.0581  0.1026 -0.0045
12820W        W29668   9.364  17.477  12.211 -0.1671  0.3313 -0.0986
12821W        W29669  17.802   6.097   1.141 -0.1457  0.2616  0.1216
12822W        W29670   4.506  15.462   0.355 -0.1282 -0.2163  0.0021
12823W        W29671   0.495  11.410   0.425 -0.0634  0.1224 -0.0649
12824W        W29672  12.425   5.480   0.020 -0.2753 -0.0490 -0.1727
12825W        W29673   4.617   9.641  15.698 -0.3531  0.2145  0.4096
12826W        W29674  11.916   3.386  12.565 -0.0598  0.0550  0.0499
12827W        W29675   4.105   2.335   3.059 -0.0403  0.0452  0.1309
12828W        W29676   5.606  15.896  10.563 -0.1835  0.1624 -0.0401
12829W        W29677   1.140  16.944   0.227 -0.0954  0.0118  0.4947
12830W        W29678   8.960  12.720  13.630  0.1485 -0.0750 -0.0052
12831W        W29679  14.755   5.535   4.062  0.0806  0.0308 -0.1944
12832W        W29680  10.807   2.630  12.119 -0.0334  0.3658 -0.0000
12833W        W29681  14.546   9.211   2.067 -0.2054 -0.0829  0.1457
12834W        W29682  15.240  15.987  14.250 -0.2113 -0.0058  0.1583
12835W        W29683   7.182   7.321   0.610 -0.0618  0.1243 -0.0106
12836W        W29684   7.449   1.331  15.418  0.0485  0.2743 -0.0363
12837W        W29685  16.445  10.723  12.056 -0.1130 -0.1365  0.0886
12838W        W29686  18.004   7.340  12.972  0.2818  0.4027 -0.0420
12839W        W29687   0.334   6.135   1.934 -0.0790  0.2310  0.3354
12840W        W29688   6.847   1.064  14.248  0.2951 -0.2222 -0.1020
12841W        W29689   2.438  15.123  11.967  0.1752 -0.1088 -0.0588
12842W        W29690   0.775  10.018   1.510 -0.2311  0.1749 -0.3208
12843W        W29691   5.417  14.782  14.288 -0.2223  0.1725  0.1103
12844W        W29692  18.058   2.976  13.658 -0.1388 -0.0348  0.0967
12845W        W29693   1.024   7.229  15.511  0.0119 -0.3067  0.1599
12846W        W29694   5.397  15.553   4.023  0.4122 -0.5112 -0.1240
12847W        W29695   0.990  13.010  11.898 -0.1462 -0.0262 -0.0858
12848W        W29696   5.006  12.042   2.578 -0.4481 -0.3061  0.1914
12849W        W29697  16.014   0.293   4.247  0.1570  0.0882 -0.1154
12850W        W29698  13.013   6.847   0.482 -0.1294  0.0334 -0.4134
12851W        W29699   2.602   4.334  14.470 -0.0486 -0.1047 -0.2758
12852W        W29700   7.634   5.061  14.670  0.0644 -0.1668 -0.0520
12853W        W29701   7.606   0.203  14.633  0.0500 -0.0419 -0.0973
12854W        W29702   0.134   8.970   4.424  0.0507 -0.0291 -0.1481
12855W        W29703   0.652   1.319   2.423 -0.3157 -0.2404 -0.3189
12856W        W29704  17.865   9.140  12.219  0.1646 -0.1008 -0.1153
12857W        W29705   7.656   1.435  12.094  0.3720  0.0883 -0.2140
12858W        W29706  10.284  13.046   4.470 -0.1353 -0.2398  0.3425
12859W        W29707   8.855   7.593  10.760  0.0074 -0.0779  0.0546
12860W        W29708  10.854  11.019  11.407  0.1010 -0.1070  0.1310
12861W        W29709   2.530   3.645   5.039  0.1909  0.0324 -0.2394
12862W        W29710   1.752   3.608  14.092 -0.0101 -0.0661  0.1050
12863W        W29711   9.752   5.346   5.024  0.0886  0.0630 -0.0921
12864W        W29712   8.437  17.995  10.283 -0.1350  0.1924  0.0612
12865W        W29713   5.383   9.043   1.206  0.2067 -0.1055  0.1539
12866W        W29714  16.593  10.857   0.278 -0.1015  0.0074 -0.2105
12867W        W29715   6.180  17.922   3.135 -0.2156  0.1821  0.1703
12868W        W29716   4.125  11.335  14.282  0.3129  0.3303 -0.4064
12869W        W29717   7.655   4.458   3.359 -0.1119 -0.1933 -0.0355
12870W        W29718   8.634   0.564  13.118  0.0463  0.0544 -0.1277
12871W        W29719   2.856  12.539   1.121 -0.0523 -0.1185 -0.2455
12872W        W29720   4.457   2.714  12.520 -0.4758  0.2274  0.1845
12873W        W29721  12.201   0.203   1.683  0.0298 -0.0057 -0.4086
12874W        W29722   0.452  13.012  14.435  0.0058 -0.2539  0.1886
12875W        W29723  15.975   1.911   0.449 -0.0612 -0.0566  0.3438
12876W        W29724  14.787  10.089  11.399 -0.1310  0.0509 -0.0806
12877W        W29725   8.071   1.037  12.963 -0.2995  0.1259  0.0260
12878W        W29726  15.679   4.602   3.797 -0.2161 -0.0123 -0.2816
12879W        W29727   2.129   4.538   2.415 -0.2064  0.0157 -0.2912
12880W        W29728   1.090  14.715   2.255  0.2527 -0.0227 -0.3798
12881W        W29729  12.928   9.266   0.045 -0.1974  0.0756  0.3423
12882W        W29730   5.012  15.411  15.896 -0.0818 -0.2548 -0.1233
12883W        W29731  10.726   3.809   2.775 -0.2663  0.1531 -0.0416
12884W        W29732  15.212   1.016  11.195  0.2705  0.1982  0.1495
12885W        W29733   0.220   1.926   1.496  0.1399  0.0993  0.0246
12886W        W29734   7.391  17.561  14.393  0.2574  0.3630 -0.0759
12887W        W29735   8.412   6.162  14.849  0.1094  0.0874  0.1705
12888W        W29736   4.904  13.116   0.214  0.0926 -0.5714 -0.0245
12889W        W29737  17.824   6.558   0.896  0.0053  0.0176 -0.2216
12890W        W29738  10.589   6.467  13.988 -0.2303 -0.3723  0.1650
12891W        W29739  16.815  17.055  13.563 -0.0750 -0.1781  0.1472
12892W        W29740   1.325  17.210   4.250  0.0660  0.1692  0.2129
12893W        W29741  13.832   2.508   3.599  0.3084 -0.0268  0.2821
12894W        W29742  11.383   1.141   1.404  0.1888  0.0885  0.0693
12895W        W29743   5.706  10.082   0.907  0.1071  0.1749  0.2477
12896W        W29744  15.377  15.906   3.027  0.1966  0.3661 -0.1331
12897W        W29745  13.958   0.996  14.715 -0.1574  0.2325 -0.0450
12898W        W29746  13.100  14.688   0.304 -0.0363  0.0463  0.4013
12899W        W29747  15.792  13.518   0.716  0.0684  0.4174  0.2621
12900W        W29748  10.842  14.904   4.432 -0.0588 -0.3034 -0.0066
12901W        W29749   7.024   5.602   2.667 -0.0271 -0.0563 -0.2902
12902W        W29750  15.481   0.466   3.980 -0.2128 -0.2006 -0.1898
12903W        W29751  13.060   5.895  12.893  0.3433  0.0495  0.1600
12904W        W29752   1.044   3.932  13.421 -0.0789 -0.1961 -0.3269
12905W        W29753   4.007  17.449   0.815 -0.1510  0.2273  0.3814
12906W        W29754   2.623  16.972   0.465  0.0905  0.0431 -0.3265
12907W        W29755   1.056  17.419  12.254  0.0992  0.1689  0.4467
12908W        W29756   9.345   0.489  12.372  0.1252 -0.0325 -0.2702
12909W        W29757  15.722   8.101   1.491 -0.1587  0.1460  0.0498
12910W        W29758   5.104  13.464  12.490 -0.0912 -0.0476 -0.0969
12911W        W29759   8.589   7.805   4.610 -0.2035  0.0311 -0.1705
12912W        W29760  14.992  10.188  12.727 -0.0245 -0.0887  0.0667
12913W        W29761  13.486   3.620   2.953 -0.1228 -0.0015 -0.0276
12914W        W29762   6.890   2.074  14.568  0.0394  0.3866 -0.0623
12915W        W29763  11.094   2.968   1.757 -0.1373 -0.1769 -0.1211
12916W        W29764   5.161   5.318  14.193 -0.2049  0.4840 -0.0855
12917W        W29765   2.889   3.536   0.404 -0.1736  0.0265  0.1058
12918W        W29766   9.335  15.503   4.669  0.1163  0.0943 -0.1325
12919W        W29767   5.791   6.892  11.190  0.0726  0.0044 -0.1966
12920W        W29768  13.266   6.328  14.118 -0.1673 -0.1690  0.0265
12921W        W29769  13.897  13.200  10.967 -0.1946 -0.1044  0.0004
12922W        W29770  13.233   4.052  13.292  0.0196  0.1168  0.4323
12923W        W29771  10.759  11.679  13.594 -0.1853 -0.0330  0.1749
12924W        W29772   1.819   4.772   3.331 -0.4323  0.1074  0.0249
12925W        W29773  14.562  10.754  10.921  0.0615  0.0692 -0.1927
12926W        W29774   1.323  14.827   0.206  0.0088 -0.1911 -0.0436
12927W        W29775  11.742   4.670  13.731  0.1415  0.2170 -0.3294
12928W        W29776  15.293   3.962   4.271 -0.0327  0.1720 -0.0279
12929W        W29777   2.593  11.366   2.439 -0.0895  0.0223  0.1206
12930W        W29778   7.065  10.570   1.265 -0.1871 -0.2015 -0.1830
12931W        W29779   8.063   1.471  11.734  0.0882  0.0098 -0.0969
12932W        W29780  12.688   7.825   1.203  0.1989  0.1582  0.1443
12933W        W29781   4.756  15.563   2.166 -0.1105 -0.2310  0.0259
12934W        W29782   4.219   1.055  15.499 -0.3104 -0.0952 -0.1052
12935W        W29783  10.734  10.459  14.341 -0.1582 -0.2927 -0.1434
12936W        W29784  14.626   8.791  14.789  0.0133  0.0304  0.2153
12937W        W29785   1.399   5.987   0.488  0.1416  0.0170 -0.3738
12938W        W29786  10.782  17.657   5.137 -0.1164  0.1596 -0.2084
12939W        W29787  12.423   5.838  15.361 -0.1260  0.1769  0.1736
12940W        W29788  13.908  14.558   0.617  0.2035 -0.3743  0.2144
12941W        W29789   7.195  16.325   3.164 -0.2607 -0.1780  0.0507
12942W        W29790   8.735   2.033   3.138 -0.0105 -0.0743 -0.2590
12943W        W29791   2.193  14.179   0.488  0.1168 -0.1580  0.1578
12944W        W29792  17.560  13.034   3.165 -0.2045  0.1546  0.1600
12945W        W29793   7.986  17.002  14.885  0.5481  0.0217 -0.0137
12946W        W29794   0.867   1.209   4.054  0.1652 -0.3297  0.0747
12947W        W29795   8.729   1.158   2.775  0.0634  0.0266 -0.1228
12948W        W29796  11.304   5.648  12.332 -0.1284  0.2871 -0.1624
12949W        W29797  14.423   7.272   0.458 -0.1268 -0.2597 -0.1077
12950W        W29798   5.095  11.346   0.732  0.0775  0.1851 -0.0307
12951W        W29799   7.664  10.345   4.429  0.1980  0.0573 -0.3847
12952W        W29800   1.629  12.082  11.436 -0.1314  0.0485 -0.1399
12953W        W29801   7.149   9.211  11.188 -0.4585 -0.2006 -0.3588
12954W        W29802   9.111   9.624   0.588 -0.2426 -0.4089  0.0773
12955W        W29803   3.529   8.799   3.004  0.0198 -0.0251 -0.0172
12956W        W29804  16.565  16.362   3.952 -0.4174 -0.3928  0.0026
12957W        W29805   1.110   2.642  11.610 -0.1469  0.1653 -0.1913
12958W        W29806   9.343  11.366   3.379  0.1024  0.1819 -0.0930
12959W        W29807  11.161   5.792   0.841  0.2239  0.1043  0.1765
12960W        W29808  12.153  11.179  13.837  0.3920 -0.0169  0.1618
12961W        W29809   3.245   4.525  15.630 -0.0860 -0.2053  0.0142
12962W        W29810  14.078   4.147  12.158  0.2301  0.1335 -0.0812
12963W        W29811   6.497  16.903  15.467 -0.3161 -0.0402 -0.2694
12964W        W29812   7.068   0.776   1.552 -0.2995 -0.3558  0.0450
12965W        W29813  16.019  13.690  13.519  0.3060  0.0374  0.1670
12966W        W29814  17.575  15.103   1.436 -0.1626  0.1157  0.1554
12967W        W29815   2.152  14.099  16.305  0.1671  0.0827  0.1982
12968W        W29816  16.355   4.549  14.336 -0.0247  0.0298 -0.1283
12969W        W29817   5.941  10.167  15.937 -0.0658 -0.1957  0.4630
12970W        W29818   8.760   5.940   0.926 -0.2672 -0.4326  0.2157
12971W        W29819  13.726   1.560   3.050 -0.1659 -0.3393  0.0634
12972W        W29820   1.873   5.914   4.215  0.2651  0.2666 -0.1214
12973W        W29821   5.855  10.793   3.464 -0.1026 -0.2637 -0.1170
12974W        W29822   1.450  17.323   0.103  0.1556 -0.0050 -0.1389
12975W        W29823  14.378  16.784  11.774 -0.2112  0.0014 -0.1603
12976W        W29824  17.907   4.251   2.958  0.1785  0.3408 -0.3569
12977W        W29825  10.088  12.625   0.568 -0.3163 -0.1853 -0.1624
12978W        W29826  13.884   7.865   3.518 -0.1903 -0.2843 -0.0240
12979W        W29827  10.830   4.482   3.788  0.3676  0.0170 -0.0767
12980W        W29828  16.568  18.093   3.584 -0.0672 -0.2075 -0.1034
12981W        W29829  11.842  11.549  14.123  0.0067 -0.1748 -0.0968
12982W        W29830   8.576   9.224   4.377 -0.2191 -0.0086 -0.0825
12983W        W29831   7.026  10.792   2.987  0.0567  0.1228  0.0262
12984W        W29832   1.357  13.334   3.462 -0.0129 -0.2284  0.0515
12985W        W29833   4.674  13.250  12.640 -0.3087 -0.1612  0.0152
12986W        W29834  14.055   3.704  14.268 -0.2244 -0.0060  0.1615
12987W        W29835   5.514   4.601  16.300 -0.2081  0.1577 -0.0382
12988W        W29836  10.123   5.942  12.744  0.1728  0.1595  0.0033
12989W        W29837  14.386   8.252   2.202  0.2268 -0.2391  0.2094
12990W        W29838   3.309  13.372  14.129 -0.1373 -0.3793  0.1388
12991W        W29839  15.250  11.463  12.564 -0.3484  0.0829 -0.3592
12992W        W29840   3.435  13.279   1.842 -0.0285  0.1730 -0.0110
12993W        W29841  15.277  13.122   2.570 -0.3226  0.0842 -0.1949
12994W        W29842   1.293   0.667  13.614  0.1902 -0.0241  0.1158
12995W        W29843   9.820   3.735  15.547  0.1428  0.1987  0.1194
12996W        W29844  17.731  11.134  13.065 -0.1169 -0.0250  0.0865
12997W        W29845   4.579  13.630  12.216  0.1009  0.2109 -0.4201
12998W        W29846   1.889   8.135  16.294  0.0161 -0.0016 -0.0072
12999W        W29847   0.666   2.917   4.648 -0.1803 -0.0118  0.1805
13000W        W29848   3.612   3.247   1.435 -0.2372 -0.2129  0.2733
13001W        W29849  17.134  11.175   2.870  0.0031 -0.4432 -0.1070
13002W        W29850   5.786   0.532   1.761  0.0450  0.1210  0.0349
13003W        W29851   2.282   4.245   2.829 -0.2728  0.2175 -0.1813
13004W        W29852  17.902  16.017   2.279  0.0697 -0.0547 -0.1271
13005W        W29853   7.780   6.632  13.876  0.0265  0.4693  0.1141
13006W        W29854  11.183   8.139   3.569 -0.1133 -0.0635 -0.2010
13007W        W29855  13.263   3.571  15.064 -0.1678 -0.1843  0.2548
13008W        W29856  17.165   9.434  13.620  0.0923 -0.1840  0.0979
13009W        W29857   6.442  14.255  16.040  0.1541 -0.3061 -0.2512
13010W        W29858  17.644  13.867  11.354  0.0977 -0.4196  0.0288
13011W        W29859   7.859   7.683   2.590  0.0216  0.3212  0.0724
13012W        W29860   3.645  15.456  12.830  0.0886 -0.1104  0.1550
13013W        W29861  13.607   5.643   5.427 -0.0679  0.2290 -0.1517
13014W        W29862   2.642  16.678  15.706  0.2001 -0.0842 -0.2255
13015W        W29863   8.825  14.408   0.576 -0.1017 -0.1437 -0.1336
13016W        W29864   9.899   4.931  14.754 -0.1940 -0.4874 -0.1661
13017W        W29865   3.310  13.098   3.539  0.0982 -0.1118 -0.0394
13018W        W29866   2.033   6.605  14.754  0.0399 -0.3283 -0.0597
13019W        W29867   7.474   8.529  11.662 -0.0179 -0.2107 -0.0672
13020W        W29868   7.471  15.753  14.731  0.1433 -0.0274  0.0743
13021W        W29869  11.590   2.332   2.105 -0.1314  0.0240 -0.0407
13022W        W29870  10.847  14.176  11.090  0.2281 -0.0500  0.0566
13023W        W29871   9.926   4.113  10.474 -0.0254  0.1231 -0.0780
13024W        W29872  14.433   1.732   3.503 -0.1660 -0.1611 -0.2141
13025W        W29873  10.054  10.938  13.702  0.0840  0.0155 -0.0483
13026W        W29874  14.529  10.924  11.425  0.2700  0.4269 -0.0303
13027W        W29875   0.678   0.798  14.351 -0.4873  0.0823  0.0894
13028W        W29876  14.491  10.630   1.614 -0.1116 -0.0053 -0.0582
13029W        W29877   1.299   8.838  14.415  0.1980 -0.1513 -0.3428
13030W        W29878  11.584   7.738  12.066 -0.1990 -0.1229 -0.0331
13031W        W29879  14.282   6.151   1.273 -0.1459 -0.1557 -0.3145
13032W        W29880   5.414  12.790  14.689 -0.0021  0.1267  0.0331
13033W        W29881  13.577   3.594  13.931  0.1157  0.2155 -0.0220
13034W        W29882  12.603  17.439  15.750  0.2388  0.2414  0.0271
13035W        W29883   8.490   2.310  12.868 -0.1039 -0.1544 -0.1544
13036W        W29884  13.198   7.130  13.592  0.2236 -0.1032 -0.0235
13037W        W29885  12.926   7.519  16.008  0.0061 -0.2648 -0.3498
13038W        W29886  16.879   5.915   0.041 -0.0861 -0.3539 -0.2205
13039W        W29887  11.073   8.088  16.226  0.0016 -0.1155  0.3007
13040W        W29888  11.840   8.039   1.313 -0.1069  0.5219 -0.0572
13041W        W29889  13.590   0.403   1.867  0.1921 -0.2020 -0.0362
13042W        W29890   6.024   8.203  15.741 -0.0580  0.0259  0.0663
13043W        W29891  11.823   1.628   4.279 -0.2082 -0.1588  0.4032
13044W        W29892  11.069  16.917  14.635  0.0504  0.1821  0.0446
13045W        W29893   6.643  12.508   2.691  0.0663  0.2689  0.5009
13046W        W29894  16.354   1.766  15.410 -0.0666  0.0341  0.0288
13047W        W29895  11.601  15.767  14.831  0.0128 -0.3371  0.2875
13048W        W29896   7.537   2.084   3.695 -0.1979  0.0693  0.1889
13049W        W29897  11.583  14.422  15.235 -0.1221 -0.0305 -0.1482
13050W        W29898  17.427   1.775  11.573 -0.2209  0.0686  0.1064
13051W        W29899  17.376   5.535  15.614  0.1472 -0.1577  0.1968
13052W        W29900   3.016  14.372   1.424  0.1481  0.1216  0.2241
13053W        W29901   4.758  14.159  15.688  0.3993  0.1354  0.1353
13054W        W29902   4.467  10.350  11.278  0.2760 -0.0779  0.0171
13055W        W29903  17.689   6.680   2.012  0.0267  0.0247 -0.0826
13056W        W29904   4.399  17.489  16.146  0.0581 -0.0333 -0.1560
13057W        W29905   3.147  14.059  12.921 -0.2617  0.0103  0.2567
13058W        W29906   3.400   0.650  13.295  0.0737 -0.2883  0.4170
13059W        W29907   0.154   8.047   2.855 -0.1646  0.2451 -0.1876
13060W        W29908  12.269  10.747   2.199  0.1409  0.0430 -0.0446
13061W        W29909  15.738  11.996  11.228  0.2624 -0.0825  0.1670
13062W        W29910  12.718   0.202  12.417 -0.3500 -0.2981 -0.0615
13063W        W29911  10.245   6.091  15.416  0.0348  0.1172 -0.1535
13064W        W29912   2.352   2.594   2.295 -0.0183  0.0288  0.2320
13065W        W29913  17.661  11.598  15.708 -0.0360  0.1569  0.0963
13066W        W29914   4.273   0.014  14.876  0.1229  0.0982  0.2309
13067W        W29915   1.892   8.305   3.266  0.1169  0.1675  0.1337
13068W        W29916   2.292  12.689   0.812  0.2883 -0.3406 -0.0938
13069W        W29917  17.581   6.517   3.974 -0.1620 -0.0231  0.2602
13070W        W29918   9.141  12.656   1.513 -0.0292 -0.0235 -0.0097
13071W        W29919   1.096   7.441   0.879  0.3214  0.1956 -0.2681
13072W        W29920  10.742   1.946   2.460 -0.0358 -0.1186 -0.1228
13073W        W29921   4.770  16.445   2.384  0.0829  0.2420  0.2275
13074W        W29922   4.127   2.428  11.580 -0.3750 -0.1855  0.1358
13075W        W29923  15.868   9.051  13.518 -0.2448  0.1938  0.1297
13076W        W29924   5.974  11.987   4.932  0.0895  0.0654 -0.3460
13077W        W29925  16.199  13.764  15.731 -0.2089 -0.3285  0.2821
13078W        W29926   1.319   0.825   0.765  0.1718  0.0059 -0.5080
13079W        W29927   2.599   6.515  14.487 -0.2004 -0.1371  0.2959
13080W        W29928  11.193   8.103  12.218 -0.0930 -0.1221  0.1051
13081W        W29929  17.343   5.994   4.608  0.2192 -0.1489  0.0300
13082W        W29930   6.199  14.824  10.935 -0.3300 -0.0802 -0.4451
13083W        W29931   1.887  11.880   1.876  0.1489 -0.1778  0.1207
13084W        W29932   9.362  17.280  15.280  0.2591  0.1710 -0.0461
13085W        W29933   8.431   3.685   0.695 -0.2634  0.1645 -0.0656
13086W        W29934   6.398   6.694  12.378  0.1639  0.1319  0.4368
13087W        W29935   7.585  16.223  13.191  0.2839 -0.2386 -0.1527
13088W        W29936   1.323  14.857   5.026  0.1665 -0.1151 -0.2470
13089W        W29937  15.266  12.880  11.418 -0.1842  0.0654 -0.0907
13090W        W29938   9.473   8.503  12.066  0.1596  0.1922 -0.1959
13091W        W29939   3.825   6.433  16.234 -0.1325 -0.3646 -0.1664
13092W        W29940   9.536   3.341   1.578 -0.3993 -0.1090 -0.0265
13093W        W29941  14.416  16.027  12.123  0.1392  0.2146  0.0727
13094W        W29942  17.738  16.123  12.868  0.0872 -0.0290  0.1629
13095W        W29943   4.867  10.169  13.076  0.0115  0.2085  0.1143
13096W        W29944   6.123  13.506   2.850  0.0210 -0.1182 -0.0283
13097W        W29945  14.407  15.521   3.857 -0.0119 -0.0911 -0.1108
13098W        W29946   6.580  10.553   2.855  0.1244  0.0655  0.0652
13099W        W29947   2.981   9.868  12.627 -0.4041 -0.2211 -0.3153
13100W        W29948   8.804   1.267   0.302 -0.2956 -0.2354 -0.0481
13101W        W29949   1.211   6.740   5.104 -0.0129 -0.1197  0.1762
13102W        W29950  17.108   8.020   5.411 -0.0431  0.0665  0.1910
13103W        W29951   8.965   4.697  11.825 -0.1646 -0.1047  0.1247
13104W        W29952   1.508   4.940  15.295  0.0529  0.0281 -0.0975
13105W        W29953   1.412  13.391  14.964  0.1374  0.0695  0.0393
13106W        W29954  16.704   6.273  11.774  0.1239 -0.0781  0.2345
13107W        W29955   4.841   1.011   0.242 -0.2787  0.0115  0.0510
13108W        W29956  11.994  16.556   3.557  0.0596  0.1672 -0.0757
13109W        W29957  11.190  14.227   1.710  0.3053 -0.1238 -0.1786
13110W        W29958   9.448   5.312  10.624 -0.2564  0.0788  0.0748
13111W        W29959   9.614  16.052  13.398 -0.2802  0.1532 -0.1138
13112W        W29960  17.131   7.301   0.124  0.2427  0.2326  0.0618
13113W        W29961  12.791  15.092  12.867  0.0504  0.0565  0.1560
13114W        W29962   4.140   4.257  15.237 -0.2677 -0.0378 -0.3630
13115W        W29963   6.017  14.434  14.112 -0.0256 -0.2676 -0.2937
13116W        W29964   6.641   5.435   3.059  0.0488 -0.0384 -0.1736
13117W        W29965   9.356  12.056  11.629  0.1897 -0.2251 -0.0900
13118W        W29966  15.037  10.061   4.064  0.1653 -0.0688  0.3209
13119W        W29967   6.941  16.919   0.501 -0.0714 -0.0422  0.2489
13120W        W29968   5.960   5.108  15.581  0.0022 -0.0938 -0.0081
13121W        W29969  10.875  11.017   2.926  0.0270 -0.1893  0.3843
13122W        W29970   4.532   6.637  12.107 -0.1532  0.3685 -0.0288
13123W        W29971   8.703  11.386  12.728  0.1027  0.3078  0.0217
13124W        W29972   6.743  13.912  11.832 -0.3278  0.3506  0.3023
13125W        W29973   3.742  17.466  14.374 -0.3109  0.3970  0.0005
13126W        W29974  15.362   5.766   3.286 -0.2699  0.1776  0.1145
13127W        W29975  17.062  16.369  11.984  0.0339 -0.0016  0.0137
13128W        W29976   8.406   9.357  13.885  0.4044  0.2578  0.1598
13129W        W29977  14.259  14.576  12.002 -0.1311  0.1110 -0.0270
13130W        W29978  12.251  14.180   0.688  0.0680 -0.1293  0.2224
13131W        W29979  12.123   9.356   2.447 -0.0491 -0.0422 -0.0347
13132W        W29980   4.292   1.851  14.060 -0.0259  0.1770  0.2051
13133W        W29981   0.153   1.229  11.195  0.1406  0.0923 -0.0614
13134W        W29982   3.382   9.210  14.626 -0.2229  0.0647  0.0758
13135W        W29983  10.107   3.090  11.923  0.0418  0.2861 -0.3914
13136W        W29984   9.931   1.090  11.967 -0.2350 -0.0250  0.1057
13137W        W29985  12.716  12.768  14.051  0.0349 -0.1244  0.1245
13138W        W29986   1.733   1.669   0.462  0.1666  0.1044 -0.0370
13139W        W29987  12.023   2.452  15.917  0.0045 -0.3255  0.0821
13140W        W29988   2.949  17.845  14.330  0.2726  0.0909  0.4345
13141W        W29989   4.090  14.099   5.031  0.1600  0.3546 -0.2869
13142W        W29990   0.210  11.404   2.785 -0.1685  0.0608  0.1563
13143W        W29991   0.161   6.082  15.628  0.0043  0.0068  0.2361
13144W        W29992  14.366  12.152   3.325 -0.1217 -0.1351 -0.0335
13145W        W29993   5.697   2.109  11.654  0.1511  0.0048  0.1611
13146W        W29994  13.319   2.681   1.905  0.0563 -0.3129  0.2291
13147W        W29995  11.054   7.844  11.718 -0.1514  0.0266 -0.0359
13148W        W29996   4.152  13.721   0.346 -0.1415 -0.0161  0.0818
13149W        W29997   7.002   8.656   3.380 -0.4076  0.0182 -0.3115
13150W        W29998   7.348   2.505  11.256  0.0243  0.1445 -0.2033
13151W        W29999   3.188   7.395   4.116 -0.1255  0.1957  0.4313
13152W        W30000  10.479  11.224  11.675  0.1713  0.1865  0.1637
13153W        W30001   7.231   8.203  14.590  0.0352 -0.1289  0.2330
13154W        W30002  10.515  14.421   0.998 -0.1780  0.0148 -0.1240
13155W        W30003   7.542   5.383   3.398 -0.3931  0.1138  0.3087
13156W        W30004  16.246   7.898  14.055  0.0676  0.1249 -0.1637
13157W        W30005   1.226   7.674   3.479 -0.1013 -0.1454 -0.1256
13158W        W30006  12.077  16.836   4.359  0.1862 -0.0708 -0.3556
13159W        W30007  15.836  13.050   3.862 -0.1511  0.0574  0.6253
13160W        W30008  18.022  18.047   4.338  0.1490 -0.1020 -0.1250
13161W        W30009  15.402   2.679  13.572 -0.2714  0.1192 -0.1302
13162W        W30010  13.355   6.383   1.509  0.3231 -0.2081 -0.2272
13163W        W30011  10.183   9.553  15.263  0.3097 -0.0535 -0.1969
13164W        W30012   7.575   7.132  10.856 -0.3663 -0.0011 -0.0905
13165W        W30013  17.713   3.265   0.352 -0.1861  0.0310 -0.1583
13166W        W30014  15.778  12.383   0.100  0.0630 -0.0937  0.2402
13167W        W30015   8.134  16.605   3.170  0.1564 -0.0003  0.3822
13168W        W30016  16.752   3.838   3.943  0.0003 -0.2766 -0.1695
13169W        W30017  14.409   6.515   4.353  0.0320 -0.0014  0.1031
13170W        W30018   2.728   6.746   5.461 -0.1274 -0.0412  0.2205
13171W        W30019  10.577   6.536   0.935  0.0605  0.3405 -0.4719
13172W        W30020   2.922   3.962   1.892 -0.1258  0.2111  0.0696
13173W        W30021  16.996   8.874   2.030  0.0120  0.0933  0.1273
13174W        W30022   9.328   3.063   1.957 -0.0349 -0.2103  0.0661
13175W        W30023  10.036  16.387  14.283  0.0567  0.2052 -0.0150
13176W        W30024   6.371   8.760  11.176  0.0099  0.0575  0.2601
13177W        W30025  16.756   6.369  14.818 -0.2636  0.1425 -0.2182
13178W        W30026   1.462   1.684   0.924  0.2352  0.0285  0.2373
13179W        W30027  13.030   5.404   4.930 -0.0559  0.2805 -0.0429
13180W        W30028   8.561  14.399  13.074 -0.0945  0.0692  0.1705
13181W        W30029  16.045  15.937   5.243  0.0077  0.0368 -0.0160
13182W        W30030   8.185   8.153   3.532 -0.1179  0.0202 -0.0041
13183W        W30031   4.229   1.254   3.828 -0.1177 -0.2468  0.3247
13184W        W30032  12.965  17.934   0.952 -0.1149 -0.0849 -0.0331
13185W        W30033  11.944   2.266   2.468 -0.0339 -0.1937  0.0685
13186W        W30034   0.485  15.464   5.009  0.1003 -0.1114  0.2429
13187W        W30035   3.114   8.518   0.077 -0.1860  0.0519 -0.0083
13188W        W30036  12.827   1.070  12.087  0.2435  0.0192 -0.2542
13189W        W30037  11.156  17.070   3.068 -0.1742  0.2658 -0.2719
13190W        W30038  17.736  11.293   1.554 -0.0141  0.1075 -0.2549
13191W        W30039  10.248   4.024   2.624 -0.2468 -0.1693 -0.2074
13192W        W30040   3.872   7.725  14.756 -0.1564  0.2342 -0.0327
13193W        W30041   0.229   8.315  14.882  0.4138 -0.2544 -0.0077
13194W        W30042  13.790   7.765  11.611 -0.1898 -0.1273 -0.3949
13195W        W30043  13.937   2.276  11.342 -0.1988  0.1367 -0.1375
13196W        W30044  15.278  15.585   0.336 -0.3492  0.2080  0.4352
13197W        W30045   4.130   5.897  16.123 -0.2190  0.1314  0.0008
13198W        W30046   4.942  15.919   1.495  0.3706  0.0108  0.4063
13199W        W30047   1.654  12.535  14.477  0.1057 -0.1819 -0.1756
13200W        W30048   6.738   5.722  12.229 -0.1989 -0.1144 -0.2300
13201W        W30049   0.522   9.487   3.573  0.1771 -0.2864 -0.0931
13202W        W30050   2.363   3.361  12.164  0.3599 -0.2145 -0.0324
13203W        W30051   0.543   5.926   5.021 -0.0045  0.0219  0.0820
13204W        W30052   1.679   0.239   1.080  0.0522  0.0085  0.1159
13205W        W30053  12.795   2.855  15.871 -0.1678 -0.4503  0.0040
13206W        W30054   4.209   3.963   4.144 -0.1304  0.1250 -0.3209
13207W        W30055   3.933  16.884  14.559 -0.0295 -0.0484 -0.0713
13208W        W30056  15.367  10.738  15.896  0.0029 -0.0542 -0.2664
13209W        W30057  15.574  17.638   5.173 -0.0950 -0.0016 -0.0072
13210W        W30058  12.477  10.831  11.609  0.1710  0.0705  0.0511
13211W        W30059   5.638   7.405   3.864  0.0114  0.4478  0.3510
13212W        W30060   9.336  13.682  11.093  0.1885 -0.1408 -0.0313
13213W        W30061  11.839   8.286  14.829  0.0895 -0.0607 -0.1339
13214W        W30062   2.363   8.193  14.626 -0.0901  0.0144 -0.3953
13215W        W30063   1.971   1.094   3.015 -0.3650  0.4047  0.2764
13216W        W30064  18.092   7.929   5.159 -0.0285 -0.2411  0.0854
13217W        W30065   1.548  15.128  11.034 -0.0245  0.2361 -0.1594
13218W        W30066   7.464   5.006  16.131 -0.2283 -0.1764 -0.0013
13219W        W30067   4.979  14.614  15.777  0.0560  0.1310  0.1702
13220W        W30068   0.948  12.517  14.431 -0.1549  0.0839  0.2478
13221W        W30069   9.011   1.128   1.425  0.2186  0.0596 -0.1565
13222W        W30070   7.246  16.745   1.705  0.3929 -0.0759 -0.0736
13223W        W30071   3.735   3.387   2.944 -0.2267  0.2627 -0.3314
13224W        W30072   0.448   1.300  11.596 -0.0980 -0.1313 -0.0590
13225W        W30073   9.719  12.387  13.845  0.1906 -0.1176 -0.0226
13226W        W30074   7.489  13.561   0.481  0.0575  0.0642 -0.1818
13227W        W30075  10.510  11.188  12.553 -0.1660 -0.0338 -0.4330
13228W        W30076   2.002   9.072   1.514  0.0102  0.0990  0.0694
13229W        W30077   6.048  12.701  12.901 -0.0131  0.1445 -0.0836
13230W        W30078   6.916  17.271   3.943 -0.1790 -0.1131 -0.2424
13231W        W30079   1.689   1.843  14.584  0.2456 -0.0548 -0.1001
13232W        W30080   1.657   4.000  12.421 -0.1530  0.0930  0.1542
13233W        W30081  15.795  11.244  14.374 -0.2395  0.1549 -0.2824
13234W        W30082   5.793  13.992  11.522  0.2523 -0.1815 -0.1652
13235W        W30083   3.408  17.952  12.893 -0.0809  0.2633 -0.1637
13236W        W30084   1.071  10.381   4.222 -0.0380  0.1606 -0.1357
13237W        W30085  15.535   6.119   0.502  0.2066 -0.0913  0.2853
13238W        W30086   1.164   4.515  11.759  0.0305 -0.0872 -0.1338
13239W        W30087   8.418   7.506  13.312  0.0533  0.2298  0.1378
13240W        W30088  13.068   3.524  15.545 -0.2004 -0.1385  0.2277
13241W        W30089  17.571  16.823   2.084  0.0675  0.5387  0.0593
13242W        W30090   9.317   1.288   2.905 -0.0511 -0.1128  0.1714
13243W        W30091  13.802  12.015   5.940 -0.1453  0.1997 -0.2438
13244W        W30092  10.514  17.508   4.745  0.5152 -0.3192 -0.0816
13245W        W30093   2.819   3.026   1.619  0.1871 -0.1922 -0.4169
13246W        W30094   9.250   5.853  13.025  0.0534  0.1267 -0.4346
13247W        W30095  10.921  11.490  14.002 -0.0106  0.1382 -0.2286
13248W        W30096  15.371  13.798   2.568  0.0912 -0.0204 -0.1062
13249W        W30097   4.439   8.574  14.411  0.2283 -0.0085  0.0051
13250W        W30098   0.728  16.748  12.904 -0.0257  0.2420  0.2489
13251W        W30099  14.117  13.994   6.253 -0.0206  0.1942  0.0983
13252W        W30100   7.828   7.495   3.353  0.0462  0.0830 -0.0238
13253W        W30101   9.002   2.263   5.060 -0.0170  0.0962 -0.1493
13254W        W30102   9.099   8.346  15.091 -0.1372  0.1544 -0.1361
13255W        W30103  10.995  11.729   2.933 -0.2387  0.0276  0.0665
13256W        W30104   2.543   8.522   0.521  0.3508  0.0295 -0.1211
13257W        W30105  13.856  17.039   6.210  0.1707 -0.1995 -0.1455
13258W        W30106   1.042   3.271  15.148  0.2313 -0.0163  0.2449
13259W        W30107   0.326  14.408   4.566  0.1064 -0.0927 -0.2976
13260W        W30108   8.969   2.955  13.545  0.0119 -0.0670 -0.1186
13261W        W30109   6.880  11.380   1.673 -0.1459 -0.2878 -0.1148
13262W        W30110   2.281   3.809  12.309  0.0648  0.2922  0.4922
13263W        W30111  10.626   4.494   4.737 -0.1975  0.1383 -0.1707
13264W        W30112   2.530  14.304  14.488  0.1652  0.2411  0.0526
13265W        W30113  11.493   7.829  13.188 -0.0406  0.1722 -0.0174
13266W        W30114   0.702   7.781   0.702 -0.3041  0.0565  0.0916
13267W        W30115   6.758  14.415   5.278  0.0590  0.0368 -0.0493
13268W        W30116   5.127   7.720  10.027 -0.0786  0.0697 -0.0589
13269W        W30117  11.159   1.851   1.078 -0.1047 -0.0975 -0.2862
13270W        W30118  15.664   2.653  16.282  0.1529 -0.0046 -0.0060
13271W        W30119   6.166  12.199   0.466  0.1093 -0.0766 -0.1101
13272W        W30120   1.411  14.549   0.866  0.2591  0.4886  0.1386
13273W        W30121   1.968   2.886  10.443 -0.2134  0.4159  0.3615
13274W        W30122  12.245   8.369   1.734 -0.1543  0.0241  0.0816
13275W        W30123  14.627   9.803   2.259  0.3665  0.0751  0.1465
13276W        W30124   5.788   1.448   0.250  0.0319  0.0966  0.3196
13277W        W30125  15.856   3.760   3.498  0.4440 -0.1705  0.2322
13278W        W30126   7.716   0.052   0.473  0.0243  0.1857  0.1217
13279W        W30127   7.782   9.982   3.681 -0.1585 -0.0305 -0.2484
13280W        W30128  17.955  13.875   1.122 -0.2587 -0.0494 -0.1497
13281W        W30129   6.402  13.273  14.808 -0.1151  0.1601 -0.6030
13282W        W30130  10.150   5.570  15.281 -0.1207  0.0041  0.2126
13283W        W30131   3.667  17.157  11.955 -0.0385 -0.1612  0.0148
13284W        W30132  13.386  12.885   3.653  0.0258 -0.2859 -0.0127
13285W        W30133   7.586  11.410   6.019 -0.0452  0.0819  0.3266
13286W        W30134  15.887   3.982   1.615 -0.1126 -0.0828  0.3513
13287W        W30135   5.918   4.469   4.835  0.0264  0.2065  0.1342
13288W        W30136  15.704  13.493   1.195  0.2146  0.2953  0.0566
13289W        W30137   5.428   5.709  15.186 -0.0697 -0.2567  0.0096
13290W        W30138   7.234   6.488   5.373  0.1093 -0.2549 -0.1987
13291W        W30139   6.003   9.811  14.350  0.0842 -0.0192 -0.1502
13292W        W30140   4.681  14.382  14.654  0.0664  0.1295  0.2099
13293W        W30141  17.433   6.601  14.770  0.3170 -0.0189 -0.1677
13294W        W30142  10.547   7.922  14.089 -0.0758  0.0190 -0.0565
13295W        W30143   5.803  16.246   0.265  0.0267  0.0519  0.3383
13296W        W30144  14.108   5.901   5.202  0.2167  0.0231  0.3044
13297W        W30145   5.229   0.484   1.681  0.6201 -0.3210 -0.1841
13298W        W30146   3.449   6.169   4.832 -0.2306  0.0985 -0.0709
13299W        W30147   3.135  16.265   2.934 -0.1694  0.0605 -0.0051
13300W        W30148  12.860   2.887  12.506  0.2911  0.1077  0.0741
13301W        W30149  12.897   6.519  11.834 -0.3050  0.0259  0.2331
13302W        W30150   4.279   1.570  11.823  0.3437  0.3173 -0.1213
13303W        W30151   5.180  17.432   3.151 -0.0790 -0.2434 -0.3340
13304W        W30152  14.951  11.184   1.198  0.0634  0.0928  0.3188
13305W        W30153   0.014  11.452  15.725  0.0952  0.3346 -0.0545
13306W        W30154  17.948   2.320  11.206  0.0388  0.0211  0.0412
13307W        W30155  10.704  15.938   5.468  0.0364 -0.2182 -0.0238
13308W        W30156   8.247   8.459  11.439  0.1816  0.0242  0.1654
13309W        W30157  12.385  13.643  14.802 -0.3895 -0.2123 -0.0277
13310W        W30158  16.943  16.599  13.406 -0.1081  0.2047  0.1658
13311W        W30159   7.036  11.817  15.201  0.0463 -0.1890 -0.0487
13312W        W30160  11.250  17.201  16.301  0.0674  0.2972 -0.3647
13313W        W30161   5.942  17.224  15.536 -0.0060  0.1697 -0.1700
13314W        W30162   9.820  15.024  13.029  0.2039 -0.0778 -0.1339
13315W        W30163   4.500   8.512   0.217  0.1470 -0.3035  0.0534
13316W        W30164   5.654   0.043  15.509  0.1893 -0.1582 -0.0852
13317W        W30165  12.006  17.966   0.671  0.0893  0.1090 -0.2246
13318W        W30166   6.345   2.328   5.097 -0.3490 -0.0000 -0.1866
13319W        W30167   6.493  10.105  15.131 -0.2623 -0.1215 -0.0681
13320W        W30168   9.511   9.570   3.839 -0.1673 -0.0750  0.0646
13321W        W30169  14.494  12.640  15.642 -0.4194  0.0747 -0.3796
13322W        W30170   7.908  15.027  12.563  0.0235 -0.0791 -0.3129
13323W        W30171   8.635  11.471   0.901 -0.0667  0.1109 -0.2273
13324W        W30172  10.818  10.045   1.984  0.1595 -0.2552 -0.0198
13325W        W30173   5.762   9.049  12.098  0.0473 -0.2139  0.0300
13326W        W30174  15.567   1.875  12.337 -0.3752 -0.0907 -0.1095
13327W        W30175  14.194  15.658   4.274 -0.1214 -0.0167 -0.1837
13328W        W30176   8.014   6.031  14.568  0.1822  0.1098  0.1842
13329W        W30177   8.930   7.419  11.290 -0.3241 -0.1631  0.0936
13330W        W30178   7.117  12.957  12.246  0.2555  0.0029  0.2037
13331W        W30179  13.181   5.186  15.910  0.0745  0.2832 -0.2478
13332W        W30180   2.811   9.747   4.358  0.2665 -0.4509 -0.4041
13333W        W30181  13.168   4.345  11.842  0.3035 -0.0071  0.2122
13334W        W30182  13.179   4.862   4.838 -0.1156  0.0314 -0.2527
13335W        W30183   0.645   7.940   3.966 -0.2350  0.2519 -0.2427
13336W        W30184   6.664  16.849   1.463 -0.1784 -0.0353 -0.1156
13337W        W30185   8.348  13.551  15.905 -0.1082  0.0772  0.0772
13338W        W30186   7.045   7.207  15.831  0.2367 -0.0307  0.0386
13339W        W30187  13.120   8.166  15.403  0.0466  0.0321 -0.0118
13340W        W30188  11.855   1.537  11.395 -0.0060 -0.0122 -0.2217
13341W        W30189   8.940   4.501   2.169 -0.0693 -0.3483  0.1949
13342W        W30190  13.818  13.334   0.242 -0.2807 -0.0112  0.0943
13343W        W30191  12.477   5.966  14.494 -0.0242 -0.0672  0.0782
13344W        W30192   2.096   9.907  14.059  0.0933 -0.0801 -0.0012
13345W        W30193   8.054   0.315  11.473  0.2096 -0.0606  0.3080
13346W        W30194   3.336  11.593   4.366  0.2135 -0.2247 -0.3086
13347W        W30195   0.701   1.731   4.053  0.1065  0.0637  0.1488
13348W        W30196   3.875   6.002   0.158  0.0914 -0.0456 -0.0229
13349W        W30197   9.048  11.200  11.734  0.1802  0.1953 -0.1220
13350W        W30198  15.279  10.140  15.956  0.1220  0.0263 -0.2629
13351W        W30199   5.217   4.357  11.647 -0.1604  0.0744  0.2112
13352W        W30200  13.962  12.640   3.317 -0.2387  0.0906 -0.0082
13353W        W30201  17.562  10.171   3.245 -0.1575 -0.3712 -0.1063
13354W        W30202   2.030  11.700   0.477 -0.0825 -0.2247 -0.1544
13355W        W30203   9.420   9.435   1.598 -0.2582  0.0886  0.2033
13356W        W30204  17.884  12.449   1.989 -0.3943  0.0356  0.3084
13357W        W30205  12.813  13.706  11.999 -0.0261  0.1307  0.3118
13358W        W30206  11.044   4.296  14.614 -0.0762  0.0889  0.3747
13359W        W30207  14.049   2.738  14.372  0.2263  0.1096 -0.0780
13360W        W30208   0.820   9.109  14.116 -0.4932 -0.0814 -0.2263
13361W        W30209  11.522   4.145   1.865  0.2073 -0.1049 -0.1013
13362W        W30210  11.501   6.380   2.365  0.2643 -0.1610  0.0800
13363W        W30211   3.864   8.881  15.588  0.1442  0.0530  0.2015
13364W        W30212   3.838   0.390  11.647  0.0970 -0.0745  0.0621
13365W        W30213   1.509   5.809  14.357  0.2014 -0.0462  0.0240
13366W        W30214   1.546   8.700   4.690 -0.2642 -0.2682  0.2243
13367W        W30215   6.736  16.906   0.933  0.1767 -0.0939  0.0989
13368W        W30216  12.855  10.518   0.886  0.1727  0.2041 -0.1279
13369W        W30217  16.934  17.458   4.488  0.0080  0.1060  0.0243
13370W        W30218  15.068  11.633  15.696  0.0545  0.1809 -0.0471
13371W        W30219  14.637   1.322  11.924 -0.1425  0.0174 -0.2622
13372W        W30220  12.934  14.065  11.617 -0.2096  0.1940 -0.1951
13373W        W30221   1.702   0.370   0.152  0.3174  0.1692  0.3806
13374W        W30222   2.187   7.214  12.344 -0.0618  0.0599 -0.1445
13375W        W30223  16.445  12.645   5.266  0.2029  0.1806  0.3001
13376W        W30224   2.070   7.716   4.668  0.0666  0.1396 -0.0724
13377W        W30225   6.776   5.233  13.145 -0.0598  0.0204  0.1318
13378W        W30226   3.564   1.468  16.142  0.0079  0.1486 -0.3473
13379W        W30227  16.220   1.904   0.006 -0.0615  0.1634  0.0696
13380W        W30228  16.682  14.378  11.999  0.2185 -0.1510  0.0167
13381W        W30229   8.971   4.658  15.184  0.2614 -0.2533 -0.3876
13382W        W30230   3.342   3.398  12.973  0.3592 -0.0329 -0.4421
13383W        W30231   5.513  13.104   4.316  0.1594  0.1133 -0.3724
13384W        W30232  14.692  10.808   0.287  0.4403  0.2929 -0.2591
13385W        W30233  14.842   3.221   1.807 -0.3385 -0.1849 -0.3259
13386W        W30234   9.573  11.195  11.681 -0.3161  0.1144  0.0546
13387W        W30235   5.716  15.391   3.587  0.2922  0.2457 -0.0419
13388W        W30236  10.357  18.029   5.018 -0.3701 -0.1704 -0.0468
13389W        W30237   9.955   4.491  14.363 -0.0163  0.3158  0.2139
13390W        W30238   9.435   0.555  14.908 -0.0549  0.1934 -0.3801
13391W        W30239  10.629   3.988   0.303  0.0198 -0.0381  0.0165
13392W        W30240  16.369   4.367   5.129 -0.0888 -0.0424 -0.0551
13393W        W30241  15.495   8.948   3.861  0.1838  0.1403  0.1691
13394W        W30242  13.953  10.829   5.343 -0.2884 -0.1383 -0.2530
13395W        W30243   0.350   1.168  15.932 -0.0053 -0.2011  0.3142
13396W        W30244   7.193  13.484  11.205  0.0889  0.2741 -0.2791
13397W        W30245   6.620   9.593   0.807 -0.2432 -0.0169 -0.1437
13398W        W30246  15.260  14.768   1.653 -0.0393 -0.2602  0.2161
13399W        W30247   0.306  12.631   0.966 -0.3726  0.2018  0.0852
13400W        W30248   7.843   8.916  11.651 -0.1168  0.3106  0.0556
13401W        W30249   1.512  11.761   4.669  0.2826 -0.0533 -0.0078
13402W        W30250   2.236   2.759   4.480 -0.0136  0.1648  0.3504
13403W        W30251   7.216   1.924   2.073  0.0059 -0.0229 -0.2620
13404W        W30252   3.405   0.950   2.414 -0.1250 -0.1436 -0.0947
13405W        W30253  11.305  17.148  11.662  0.3056  0.1307 -0.1336
13406W        W30254   2.809  13.539  14.101 -0.1658 -0.0019  0.0198
13407W        W30255   3.733  13.590  14.378 -0.0466 -0.2749 -0.1373
13408W        W30256  14.107   1.987   1.791  0.1825 -0.2284 -0.3877
13409W        W30257  12.481   9.365   1.451  0.0924 -0.0303 -0.7141
13410W        W30258  16.044  16.302   3.980 -0.3548 -0.1428 -0.1897
13411W        W30259   6.753  15.688   2.436  0.0055 -0.0066 -0.0594
13412W        W30260  12.348   0.602  16.307 -0.1259 -0.1103  0.3459
13413W        W30261  13.869   6.017  11.749  0.0357 -0.1890 -0.0950
13414W        W30262  12.855  14.440   3.616 -0.1320 -0.1436  0.2292
13415W        W30263   3.288  10.533  12.119 -0.1524  0.1476  0.0154
13416W        W30264  11.286   3.994   5.013 -0.1878 -0.0541  0.1670
13417W        W30265   1.992  10.916  15.680 -0.2682  0.0758 -0.1165
13418W        W30266  14.133   4.875  14.120 -0.2476 -0.0530 -0.0941
13419W        W30267  14.997  16.175  13.703 -0.2561  0.0890 -0.2024
13420W        W30268  17.841   5.576   2.488  0.1001 -0.4868  0.1884
13421W        W30269   8.486  13.423  15.383  0.2802 -0.1019  0.1900
13422W        W30270   4.969  12.966  14.206  0.0079 -0.4509 -0.1335
13423W        W30271   2.525   4.470   3.831 -0.2437 -0.1717 -0.1114
13424W        W30272   1.457   6.947  14.825  0.0564 -0.0226  0.0325
13425W        W30273  17.358  16.032   4.345  0.1061 -0.0562 -0.3195
13426W        W30274   1.233   0.051   1.333 -0.1606  0.1953 -0.0217
13427W        W30275  11.629   2.881  12.734  0.2055  0.0070  0.2227
13428W        W30276   0.326   2.120   0.338  0.0130 -0.1256  0.3212
13429W        W30277   0.637  11.624  15.524  0.0398 -0.2158  0.3158
13430W        W30278   3.173   9.161   2.625  0.2503  0.0431 -0.0772
13431W        W30279  17.083   9.840   0.770 -0.0260 -0.1763  0.2908
13432W        W30280  11.730  13.123  14.035 -0.0164 -0.0063  0.0776
13433W        W30281  10.956  10.261   4.804 -0.1153  0.0427  0.1136
13434W        W30282   5.079   5.867   4.374 -0.0465 -0.4015 -0.1376
13435W        W30283  13.023   1.755  11.760 -0.2679 -0.1730  0.3166
13436W        W30284   8.866   9.671  13.927  0.0453 -0.0773 -0.2263
13437W        W30285  15.449  15.134  11.663  0.2075  0.0048 -0.0460
13438W        W30286  16.167  12.896   3.017 -0.1698  0.1855  0.5076
13439W        W30287  16.491   2.619  14.364 -0.3392 -0.1690  0.1455
13440W        W30288  14.497  15.811  13.099 -0.1282  0.0796  0.1919
13441W        W30289   6.884  12.988   2.908  0.1333 -0.0824  0.2753
13442W        W30290  12.313  14.158  15.838  0.1348  0.0766  0.1587
13443W        W30291  10.641   0.307   2.104  0.0390 -0.1618  0.1755
13444W        W30292   4.750   5.159  10.483 -0.0221  0.2428 -0.3002
13445W        W30293   7.544   1.991   5.146 -0.3399  0.3459  0.0815
13446W        W30294   4.107   2.719  10.396  0.1593  0.1388 -0.3656
13447W        W30295   0.961   0.265  13.591 -0.1280  0.1950 -0.1544
13448W        W30296   8.844   3.530   4.350 -0.1780  0.1525 -0.0457
13449W        W30297  13.665  15.434  11.123 -0.2864 -0.0676 -0.3436
13450W        W30298   2.849   8.598   2.509 -0.3860  0.0284  0.0865
13451W        W30299  15.367  15.942  14.787 -0.2316  0.2198 -0.1100
13452W        W30300   3.851  11.972   2.294 -0.0004 -0.0550 -0.1308
13453W        W30301   5.546  16.787   1.682  0.1690 -0.2376  0.2723
13454W        W30302   2.018   2.745  11.502 -0.3935  0.1455 -0.1041
13455W        W30303   6.487   3.745   3.898  0.0287  0.0024  0.2519
13456W        W30304  15.333   5.688  14.506 -0.1786  0.2016 -0.0146
13457W        W30305  16.280  15.514   0.145 -0.2487  0.0632 -0.0147
13458W        W30306  12.866   7.620   2.780  0.0064  0.1944 -0.2848
13459W        W30307  11.357  17.624  13.880  0.3731 -0.3548  0.0658
13460W        W30308   9.013  17.079   3.687 -0.0698  0.2045 -0.1502
13461W        W30309   1.151   1.940  12.012 -0.3074  0.1299  0.0891
13462W        W30310   2.721  17.671   3.518 -0.0344 -0.0502  0.1354
13463W        W30311  10.105   6.386  11.403  0.2080 -0.2787 -0.0107
13464W        W30312   9.014  17.946   1.892  0.1590 -0.0041  0.1661
13465W        W30313   5.509   9.907  16.018 -0.0749  0.1483 -0.0417
13466W        W30314  12.894  12.970  12.925 -0.3201 -0.0353  0.0309
13467W        W30315   4.953   5.231   2.025  0.2378 -0.1580  0.0076
13468W        W30316  14.813  16.823   3.443  0.2852 -0.1950  0.2913
13469W        W30317   2.143  10.309  11.071 -0.3478  0.0479  0.1638
13470W        W30318   6.802  12.857  14.473 -0.0766 -0.0935  0.0507
13471W        W30319   0.677  16.870  14.311  0.0728  0.2492 -0.0011
13472W        W30320  17.236  15.016  13.474  0.0720 -0.0543  0.0918
13473W        W30321   7.363  11.458  13.625 -0.0725 -0.0554  0.3113
13474W        W30322   6.075   3.211   2.971 -0.0285  0.0795  0.4757
13475W        W30323   1.042   2.249   0.857 -0.1031  0.1953 -0.2983
13476W        W30324   0.741  10.307  15.312 -0.1150  0.1653  0.1299
13477W        W30325   2.236   2.098  12.959 -0.2549 -0.0742  0.0201
13478W        W30326  13.641   4.658   2.478  0.0668 -0.1030 -0.1804
13479W        W30327   8.943  11.021   0.911 -0.0213 -0.0557  0.1147
13480W        W30328  12.276   4.744  13.237  0.0085  0.0087  0.2101
13481W        W30329  15.522   5.354   1.626  0.0964 -0.0119 -0.0294
13482W        W30330  14.270   2.152  13.056  0.1788 -0.3479 -0.2449
13483W        W30331  16.160  13.314  13.868 -0.0052 -0.0730 -0.2164
13484W        W30332   9.612  15.129   3.838 -0.2772  0.2126  0.0300
13485W        W30333  11.901   8.538  14.358 -0.0882 -0.0220 -0.0959
13486W        W30334   6.597  12.670   3.139  0.0769 -0.0036  0.2001
13487W        W30335  15.944  17.206  15.754 -0.1165  0.0332 -0.4073
13488W        W30336   5.889   2.284   3.987 -0.2392 -0.2568 -0.2115
13489W        W30337  11.501  10.373  13.491 -0.3997  0.2875 -0.0407
13490W        W30338  12.438   7.363   3.078  0.0724  0.1570  0.0078
13491W        W30339   7.622   6.456   1.789 -0.0658  0.0465 -0.0713
13492W        W30340   8.381  14.158  16.164  0.1049  0.2977  0.0499
13493W        W30341   4.657   4.132   4.057 -0.1130 -0.3567 -0.1044
13494W        W30342  11.583   0.413  12.842 -0.0329 -0.1137  0.2597
13495W        W30343   6.280  15.580  12.714 -0.4220 -0.0338  0.1244
13496W        W30344  16.625  16.799   4.134 -0.0931 -0.2538  0.2135
13497W        W30345  12.279  12.020  14.963  0.0637 -0.0712  0.1828
13498W        W30346   9.829   7.448  13.304 -0.1213  0.2522 -0.0142
13499W        W30347   9.117  14.414  11.700  0.0020  0.1880  0.0556
13500W        W30348   1.706  11.214   3.866 -0.0016  0.1558  0.1500
13501W        W30349   1.983  15.726   5.091 -0.0109 -0.1635 -0.0792
13502W        W30350  17.656  13.349   4.612  0.3548 -0.1862 -0.0945
13503W        W30351  17.926  17.060  11.624 -0.1128 -0.1340  0.0510
13504W        W30352  14.535   2.973  13.964 -0.2125  0.4457 -0.2393
13505W        W30353  14.259   2.851  11.225 -0.1293 -0.1887  0.1324
13506W        W30354   9.303   8.173   1.624  0.1721  0.0526  0.1960
13507W        W30355  16.656  11.945   4.505  0.2331 -0.1809  0.5061
13508W        W30356   8.145  13.877   0.483 -0.3321 -0.1553 -0.2674
13509W        W30357  12.193   1.961   1.544  0.2108  0.0016 -0.0028
13510W        W30358   1.686  11.055   0.388 -0.0569  0.0508 -0.0833
13511W        W30359   7.121  17.563  10.009 -0.0201 -0.2079  0.2317
13512W        W30360  10.461  17.980  13.534 -0.1528 -0.1239  0.0819
13513W        W30361  12.025  17.064   3.479  0.1057 -0.0842 -0.0802
13514W        W30362  12.936  16.485   5.156 -0.1154  0.2084  0.0320
13515W        W30363   5.312  18.051   4.102  0.4122 -0.2401 -0.1596
13516W        W30364   6.586   3.848   0.959 -0.2582  0.0452  0.1902
13517W        W30365   9.799  14.952  10.422 -0.0671 -0.1244  0.0463
13518W        W30366   2.764  13.323   2.368 -0.2450  0.0490 -0.2383
13519W        W30367  17.103   4.730   2.532 -0.0128  0.1457 -0.3839
13520W        W30368  13.123   3.224  11.785  0.4739  0.3949 -0.0566
13521W        W30369   2.436  16.626   0.810  0.0987 -0.0148 -0.0361
13522W        W30370  10.559   8.634  11.575 -0.2055  0.1937 -0.1372
13523W        W30371   6.594   4.649   0.287  0.1447 -0.1680  0.2004
13524W        W30372   1.794  12.978   3.013 -0.1551  0.1664 -0.1950
13525W        W30373   9.650   8.123   4.501  0.2878 -0.0508  0.2016
13526W        W30374  16.413   7.131  15.744 -0.0530 -0.1432  0.1092
13527W        W30375   6.224   1.253   2.345  0.1486  0.1666 -0.0905
13528W        W30376  15.346   7.057  15.659  0.3548  0.2385  0.0394
13529W        W30377  10.852  11.954   3.952 -0.1059  0.3313 -0.2203
13530W        W30378  11.139   9.863  11.555  0.0823 -0.1102  0.0212
13531W        W30379   0.757  11.983   4.312  0.2309  0.1551  0.1697
13532W        W30380  16.968   2.964   3.493  0.0620 -0.4291 -0.0953
13533W        W30381  11.164   5.596  14.536  0.0022 -0.2851  0.0514
13534W        W30382   1.531  10.683   1.284 -0.1829 -0.0352 -0.0499
13535W        W30383   7.338  13.435  15.678  0.0740  0.0629  0.3494
13536W        W30384   8.346  16.626   3.998  0.0277  0.3910  0.2343
13537W        W30385  13.081  11.907   1.766 -0.0906  0.0271  0.0158
13538W        W30386   4.179  17.709  13.482 -0.0258 -0.0069 -0.1088
13539W        W30387  11.200   9.735  12.040  0.3234 -0.1525  0.1917
13540W        W30388  14.573  16.627   0.150 -0.3538 -0.0267 -0.1408
13541W        W30389   4.796  12.475  13.451  0.0269 -0.2076 -0.2227
13542W        W30390   7.056  10.894   1.888  0.1550  0.0350 -0.2950
13543W        W30391   0.558   7.286   1.722  0.0549  0.2769 -0.1389
13544W        W30392   2.683  15.474  11.671 -0.1815 -0.0022  0.0344
13545W        W30393   9.961   5.861   4.324 -0.1444 -0.3951 -0.0551
13546W        W30394   3.484   3.103  11.470 -0.0668  0.0374 -0.1323
13547W        W30395  12.025   3.097   2.315  0.2489  0.1277 -0.1023
13548W        W30396  14.134  17.042  13.114 -0.1070 -0.2148  0.0139
13549W        W30397   7.954  12.322  16.324  0.2853  0.1053  0.0887
13550W        W30398   9.610   2.156  13.281  0.1414  0.2579  0.2181
13551W        W30399   4.884   3.867  12.395  0.1181 -0.1017 -0.1406
13552W        W30400   7.627  10.258  12.648  0.2585 -0.0111 -0.0831
13553W        W30401   7.065   3.561   0.506 -0.2048  0.1929 -0.1773
13554W        W30402   1.657  10.543   0.366 -0.0268  0.0520 -0.1294
13555W        W30403   7.868   4.817  11.185 -0.1898 -0.0905  0.2322
13556W        W30404   1.347  13.582  12.896  0.3708  0.0004 -0.3065
13557W        W30405  14.726   5.411   0.232 -0.0529  0.1491 -0.0527
13558W        W30406   7.728   8.157   2.738 -0.1049  0.3954 -0.0425
13559W        W30407   8.684   2.401  15.324  0.0360  0.0899 -0.0220
13560W        W30408  10.136   9.411  12.883  0.1828 -0.1438 -0.0853
13561W        W30409  16.111   9.309  15.945  0.1587  0.0902 -0.0544
13562W        W30410   5.405   4.622  11.218 -0.0070 -0.0546  0.1676
13563W        W30411  11.443  10.046   0.864 -0.1172  0.1248 -0.0975
13564W        W30412   9.373   5.587   4.233  0.2590 -0.0194 -0.0424
13565W        W30413  16.841  10.065  15.717  0.1550  0.1531  0.1784
13566W        W30414   9.546   7.203   4.780  0.2574  0.2567 -0.3647
13567W        W30415   0.750   3.933   4.718  0.0278  0.2320  0.2005
13568W        W30416  15.830   3.432   1.390 -0.1965 -0.0430 -0.1567
13569W        W30417  17.665   0.857   4.712  0.1892 -0.0612  0.1047
13570W        W30418  14.498   6.207  13.041 -0.3562  0.2097 -0.0536
13571W        W30419  17.083   4.883   3.335 -0.1461  0.0951 -0.1213
13572W        W30420   2.046  13.171   1.549 -0.0728  0.0432  0.1837
13573W        W30421   2.759   6.634   4.289  0.3678 -0.0609 -0.4473
13574W        W30422   2.177   9.357  13.028  0.1094  0.0184 -0.0468
13575W        W30423   4.260   8.746   2.154  0.0789 -0.1413  0.3018
13576W        W30424  14.664  10.403   0.026 -0.0295 -0.1513 -0.0349
13577W        W30425  13.317  13.681   0.678  0.0158  0.0265 -0.0824
13578W        W30426  11.407  16.442  14.155  0.1634  0.0892  0.2717
13579W        W30427  12.895  11.227  12.063 -0.2163  0.0363  0.3126
13580W        W30428  17.531  15.432   2.498  0.0031  0.1491 -0.1437
13581W        W30429   3.647  14.285  14.823 -0.2109 -0.3094 -0.1427
13582W        W30430  13.638  17.885  15.931 -0.2711  0.1568 -0.2038
13583W        W30431   7.627   5.138   1.468 -0.2450 -0.0209 -0.2840
13584W        W30432   7.038   6.755  14.400 -0.0652  0.0060 -0.0406
13585W        W30433  12.901   0.631  12.584 -0.4100 -0.1801 -0.2214
13586W        W30434   3.146  17.129   3.064  0.2093  0.4001 -0.1367
13587W        W30435   6.802   9.262   4.567  0.0958  0.0927  0.2235
13588W        W30436  12.569  13.323  11.340  0.0744 -0.4710 -0.0623
13589W        W30437   0.214  12.140   1.207 -0.1271 -0.1412  0.2404
13590W        W30438   4.202  11.781  11.251 -0.0664 -0.0088 -0.2163
13591W        W30439   5.295   0.023  12.406  0.1603  0.0683  0.2036
13592W        W30440  15.313  15.474   1.417  0.0590 -0.0544  0.4731
13593W        W30441  16.910   7.822  12.937 -0.1531 -0.0643  0.0747
13594W        W30442   0.922  17.506  13.228 -0.2749  0.1282 -0.0003
13595W        W30443   9.517   1.002  14.578  0.3566  0.0674 -0.0890
13596W        W30444   7.998   6.345   1.379 -0.1355 -0.0375  0.2609
13597W        W30445  15.253   5.743  12.897  0.0116 -0.1446  0.0264
13598W        W30446  15.204   6.897   0.683 -0.1985  0.1453 -0.0597
13599W        W30447  15.259  10.557  14.736 -0.3625  0.3875  0.0149
13600W        W30448   0.896   1.890  13.745 -0.2831  0.2431  0.0471
13601W        W30449  16.232   7.922   2.380  0.0587 -0.1369  0.0945
13602W        W30450   5.012   2.990   2.274  0.1813  0.2183  0.0003
13603W        W30451   0.661   1.882   0.018  0.0084  0.3768  0.2369
13604W        W30452  16.351  15.797   3.274  0.1586 -0.3257  0.2720
13605W        W30453  16.323  17.242   4.926  0.2450  0.1276 -0.0826
13606W        W30454  14.180   8.656   0.897 -0.1013 -0.1007  0.2728
13607W        W30455   5.788  13.953  15.283 -0.0241  0.0207 -0.0171
13608W        W30456   5.679   8.679  11.193 -0.1174  0.2513 -0.3504
13609W        W30457   9.430   2.021   4.724  0.2808  0.0522  0.0272
13610W        W30458  17.196  16.548   5.934 -0.2042 -0.0190  0.1718
13611W        W30459  16.201   1.146  12.645  0.0807 -0.0846 -0.2123
13612W        W30460  18.055  12.307  11.258  0.2649  0.2086 -0.1253
13613W        W30461  13.544  14.799   4.835  0.3268 -0.0458  0.0805
13614W        W30462  17.772  13.539  12.618  0.0632 -0.0334  0.2085
13615W        W30463   6.170  17.990   0.435 -0.2599  0.1318 -0.0083
13616W        W30464   8.775   1.989  13.537  0.3250 -0.4645 -0.2409
13617W        W30465   4.065  16.794   3.818  0.0909 -0.5066  0.0466
13618W        W30466   5.003   9.953   2.492 -0.1576  0.2084  0.0249
13619W        W30467  12.223  11.535   2.123  0.0246 -0.1820  0.1389
13620W        W30468  10.165  12.608   0.105  0.0701  0.0794  0.2104
13621W        W30469  15.388   5.005  13.425  0.0451  0.0166  0.1353
13622W        W30470  14.162  16.563   4.634 -0.0470 -0.1242 -0.2531
13623W        W30471   4.662   0.667  14.376  0.0588  0.1373 -0.1121
13624W        W30472  11.600   5.290   5.350 -0.0648  0.1448  0.1287
13625W        W30473   2.799  16.806  12.838  0.1824  0.1790  0.1296
13626W        W30474  17.171   2.195  11.461 -0.1097 -0.0288 -0.0453
13627W        W30475   3.056  18.058  11.927 -0.1571 -0.1359  0.2727
13628W        W30476   2.144  16.827  15.846  0.1372 -0.0676 -0.2105
13629W        W30477  13.484   8.434   3.083 -0.3580 -0.1292 -0.1209
13630W        W30478  10.233   5.830  14.812 -0.0717  0.0022  0.0102
13631W        W30479   5.084  14.097  13.098  0.1150 -0.2944 -0.1661
13632W        W30480  15.899  17.500  14.625 -0.0645 -0.2084 -0.0039
13633W        W30481   4.297  10.425  15.362  0.1839 -0.0092 -0.3349
13634W        W30482   5.204  16.608   2.655 -0.5392 -0.1933  0.1004
13635W        W30483   4.364   4.898   2.720  0.0079  0.1839  0.2201
13636W        W30484   0.468   6.055  13.760  0.2865  0.2518  0.1105
13637W        W30485   3.887   6.100  13.697 -0.1923  0.1555  0.2795
13638W        W30486   1.563  12.495   0.325 -0.0998  0.1064 -0.0114
13639W        W30487   3.574   1.106   1.769  0.2078  0.0057  0.3259
13640W        W30488   2.161  17.027   2.026 -0.1078  0.2942  0.1551
13641W        W30489   8.947   1.883  15.982  0.3204  0.0414 -0.2144
13642W        W30490  12.752   5.041   1.141  0.5524  0.4773 -0.0923
13643W        W30491  11.709  17.415   2.293  0.0243 -0.1938  0.1054
13644W        W30492  11.309   4.482  13.470  0.0481 -0.0585  0.2776
13645W        W30493  12.347   2.019   2.637 -0.1176  0.2211 -0.0513
13646W        W30494   1.844   2.269   4.167 -0.2471 -0.2103  0.2465
13647W        W30495   2.810   8.448  11.258  0.1757  0.2458  0.0054
13648W        W30496  16.302  11.470   4.695 -0.1063 -0.0412 -0.0900
13649W        W30497   9.784   0.494  15.310  0.0735 -0.0351 -0.0654
13650W        W30498  13.173   9.323   2.327  0.0972 -0.0825  0.0219
13651W        W30499   3.253   1.433   0.235  0.1898  0.0097 -0.1937
13652W        W30500   8.714   2.120   2.609 -0.1621  0.1782  0.0225
13653W        W30501   8.849   5.492   3.329 -0.0313 -0.2874 -0.2230
13654W        W30502  10.093  17.813   4.670  0.1251  0.1441 -0.1508
13655W        W30503   2.709   2.228  13.142  0.2377 -0.1386  0.3140
13656W        W30504   0.197  16.116   1.845 -0.0206  0.1393  0.0866
13657W        W30505  17.480  15.315  14.437  0.1488  0.1301 -0.1747
13658W        W30506  11.119   5.148   5.315 -0.0589 -0.1217  0.0140
13659W        W30507   5.763   6.010  14.027 -0.2048 -0.1120 -0.1580
13660W        W30508   5.642   6.765   3.327 -0.4123 -0.1630 -0.3158
13661W        W30509  17.947   0.554  13.857  0.0350 -0.1948  0.0802
13662W        W30510  11.629  13.498   5.163  0.0822 -0.0586  0.0741
13663W        W30511  16.779   4.925  15.343  0.0249 -0.0665  0.1053
13664W        W30512  17.300  14.487   0.778  0.0665 -0.1748  0.1015
13665W        W30513   9.482   6.395   4.296  0.1865  0.2082 -0.1623
13666W        W30514  12.257  11.082  14.979  0.1788 -0.1841 -0.0039
13667W        W30515   5.947   5.635  15.282 -0.1763 -0.0992 -0.0534
13668W        W30516   2.509   5.109  11.760  0.1158 -0.1625 -0.2409
13669W        W30517  16.392   0.704   0.225 -0.2954  0.4374 -0.2858
13670W        W30518  11.717   3.153  14.318 -0.1550 -0.0933 -0.2082
13671W        W30519   2.072   4.479  11.188 -0.1469 -0.0406  0.1102
13672W        W30520   8.038   4.246   3.037 -0.0740 -0.3571 -0.1546
13673W        W30521   9.238  14.146   4.350 -0.0920  0.1884 -0.0281
13674W        W30522  10.556  16.391  12.844  0.1014 -0.3177 -0.0258
13675W        W30523   5.124  15.354  11.359  0.1843  0.3112 -0.1610
13676W        W30524  15.737   5.039   2.915 -0.2237  0.2201 -0.1573
13677W        W30525  12.365  11.342  11.840 -0.1561  0.2258 -0.0560
13678W        W30526   1.401  10.754  14.287  0.0095  0.1252 -0.0798
13679W        W30527   2.723  11.341   4.723 -0.0174 -0.1242  0.1471
13680W        W30528   7.493   0.742   5.123 -0.0964 -0.0730 -0.2051
13681W        W30529   7.687  16.120  15.543  0.1108 -0.1873 -0.0183
13682W        W30530  16.382  11.105   1.645 -0.0437 -0.2628 -0.1866
13683W        W30531  16.784   0.002   4.881 -0.2089  0.3332  0.1339
13684W        W30532   6.934   5.798   0.457  0.1233 -0.2890  0.4548
13685W        W30533   0.698   4.442   0.662  0.0294  0.0450 -0.2958
13686W        W30534  15.702   9.764  12.346 -0.2145  0.0464  0.3861
13687W        W30535   0.197  13.828   1.481 -0.1344 -0.0727  0.1239
13688W        W30536  13.640  18.004  11.825 -0.0004 -0.2758  0.2370
13689W        W30537   9.602   5.718   1.912 -0.1247 -0.0408 -0.1664
13690W        W30538  12.470   7.645   4.909  0.0117 -0.0313 -0.0572
13691W        W30539   3.512  10.711  11.425  0.1852  0.1976 -0.2952
13692W        W30540  15.984   3.156  11.561 -0.0917 -0.2123  0.2502
13693W        W30541  13.803   3.302   2.376 -0.1824 -0.1611 -0.0784
13694W        W30542  12.052  13.254  12.538  0.2083 -0.1591 -0.2675
13695W        W30543   4.426   6.141  12.064 -0.1164 -0.0063  0.0898
13696W        W30544  14.304   3.378   5.529  0.1526 -0.1183  0.4991
13697W        W30545  10.060  16.209   1.441 -0.1620 -0.0077  0.2630
13698W        W30546   1.600   9.629  12.417 -0.1453  0.0645  0.3765
13699W        W30547   0.943   9.226   4.692 -0.0702  0.1162 -0.0001
13700W        W30548  15.466   0.196  12.289 -0.2640 -0.0456  0.2276
13701W        W30549   3.711   8.363   1.490 -0.0299  0.3573  0.2565
13702W        W30550   3.521  16.798   5.065 -0.1328  0.1521  0.1093
13703W        W30551   9.253  13.728  14.088  0.1592  0.0206 -0.1454
13704W        W30552  17.645   7.977  13.486 -0.3090  0.1267  0.0821
13705W        W30553  11.049  16.191   4.587 -0.0660  0.0682  0.2451
13706W        W30554   8.508  10.967   1.138  0.0707  0.0281  0.1514
13707W        W30555  12.022  10.011  13.154 -0.0569 -0.1117  0.2593
13708W        W30556  17.384   3.053  13.709 -0.1774 -0.1511  0.2962
13709W        W30557   6.865   4.560   5.537  0.0983  0.0374  0.0091
13710W        W30558   3.977   9.444  13.206 -0.1938 -0.1319 -0.1540
13711W        W30559  16.210  13.724   2.421  0.0945 -0.1201  0.1197
13712W        W30560  13.054   6.336   5.126  0.1116 -0.0591  0.0089
13713W        W30561  10.581   5.643  16.326 -0.0425  0.1924 -0.4208
13714W        W30562  11.005  15.259  15.271 -0.0437 -0.2469  0.1906
13715W        W30563  11.579   8.766  13.974 -0.0988  0.0177 -0.0218
13716W        W30564  14.409   9.938   0.723 -0.1688  0.1640 -0.2379
13717W        W30565  17.720   1.219   0.253 -0.0641  0.0719 -0.1010
13718W        W30566   0.383   6.810   1.582 -0.0058  0.2411 -0.3026
13719W        W30567   3.579  14.796   1.855 -0.5337  0.0870  0.0590
13720W        W30568   4.689  17.100   0.334  0.1670 -0.0785 -0.0610
13721W        W30569  12.370  10.450   0.702  0.2202 -0.1273 -0.0875
13722W        W30570   0.001  13.078   1.093 -0.1719 -0.2122 -0.3044
13723W        W30571  11.210  12.377  16.294 -0.1583 -0.1940  0.1460
13724W        W30572   4.972   3.806  15.382 -0.0306 -0.1400  0.2989
13725W        W30573  12.508   0.742  12.338 -0.3899 -0.1689  0.3729
13726W        W30574   8.634   0.358   3.362  0.1857  0.0910 -0.4055
13727W        W30575   8.519   2.358   0.343  0.0746 -0.1740 -0.0725
13728W        W30576  12.786   4.055  15.486 -0.1217  0.1403  0.0839
13729W        W30577   2.323   3.513   3.847 -0.0696  0.1616  0.2266
13730W        W30578  17.299  17.738  12.605 -0.0194  0.1734 -0.2243
13731W        W30579   8.510   4.540   2.466 -0.0913 -0.1221 -0.0770
13732W        W30580   7.940  16.572  12.271  0.1795 -0.0279 -0.3942
13733W        W30581   0.704  16.238  12.223  0.1800 -0.0484  0.1786
13734W        W30582   6.870  13.155   1.607  0.1222 -0.0959 -0.0330
13735W        W30583   5.741   6.581  11.604 -0.0115 -0.1533  0.2710
13736W        W30584  16.490  13.635   5.046  0.2516 -0.5631  0.1169
13737W        W30585  10.880  15.043  11.479 -0.1299  0.1881  0.2343
13738W        W30586  13.743  13.401  14.667  0.0637 -0.3109  0.1743
13739W        W30587  12.588  13.363  13.253  0.1413  0.2495  0.0877
13740W        W30588  17.812   6.641  13.535  0.1894 -0.2238  0.2809
13741W        W30589   3.531   6.746   2.103  0.1989  0.0071 -0.2834
13742W        W30590   9.630  11.997   5.795 -0.1968  0.2054  0.1900
13743W        W30591  12.568  17.866  12.247  0.2676 -0.2484 -0.3240
13744W        W30592  14.484  16.049  15.988  0.0600 -0.1337  0.0164
13745W        W30593  12.360   9.311   0.545 -0.2182  0.0612 -0.0811
13746W        W30594  15.677  11.113   5.872  0.2199  0.1256  0.2289
13747W        W30595   6.951   1.875   1.128 -0.0471 -0.2568 -0.0972
13748W        W30596  17.647   7.908   4.860  0.3067  0.0857 -0.0805
13749W        W30597  15.722   7.429  14.903  0.3676  0.0841 -0.1704
13750W        W30598   4.192   8.982  14.376 -0.2218  0.0121  0.3138
13751W        W30599  12.457   8.780   1.847  0.3596 -0.0009 -0.1334
13752W        W30600   6.021   8.137   4.147  0.2763 -0.0574 -0.1846
13753W        W30601  15.338   9.341  10.676 -0.1074  0.3152  0.1480
13754W        W30602  10.613  10.044   2.674 -0.2551  0.2446  0.0021
13755W        W30603   5.479   8.382   0.646 -0.2206 -0.4120 -0.0885
13756W        W30604   6.898  13.541   2.568 -0.2258  0.0073 -0.2591
13757W        W30605  14.624   6.828   0.642  0.0886  0.3396  0.1740
13758W        W30606   1.639  11.198  13.899  0.3475  0.0334 -0.0693
13759W        W30607  10.642  16.989  14.425 -0.1078  0.0310  0.0173
13760W        W30608   0.188   8.595  13.472  0.1301  0.0598 -0.0807
13761W        W30609  10.966   3.715  11.158  0.1854  0.0359  0.3912
13762W        W30610   5.848   8.799   4.273 -0.1109  0.1605 -0.3240
13763W        W30611   8.667   0.582   2.932 -0.0181 -0.0967 -0.2438
13764W        W30612   2.443   2.895  11.270  0.1082  0.0501  0.2292
13765W        W30613   2.141   5.195  16.003 -0.0827 -0.0806 -0.1020
13766W        W30614  11.549   8.419   3.415 -0.0315 -0.2670 -0.1881
13767W        W30615   1.432  11.285   2.244  0.0354  0.0283  0.1441
13768W        W30616  12.788   0.078  14.487 -0.2601 -0.3440 -0.0759
13769W        W30617  13.550   0.910   1.785 -0.1048  0.0928 -0.1357
13770W        W30618  14.764   1.584   2.265 -0.1934  0.1730  0.0678
13771W        W30619   6.011  10.549  14.647  0.0287 -0.0226  0.1135
13772W        W30620  15.846   6.485  11.344  0.0627 -0.1352 -0.2217
13773W        W30621  10.935   7.581  13.819  0.0267 -0.2135 -0.1379
13774W        W30622  16.758   2.460  11.240 -0.0055 -0.0898  0.0667
13775W        W30623  18.085   5.938   4.383 -0.2640  0.3018 -0.1603
13776W        W30624  15.265   1.741  12.750 -0.2443 -0.3359  0.3340
13777W        W30625   6.265  11.002  13.140 -0.0262  0.1238 -0.1864
13778W        W30626   2.342   7.449   1.637  0.0943  0.0444 -0.3940
13779W        W30627   2.669   2.724  15.463  0.0772  0.0642  0.0850
13780W        W30628   9.161  16.121   1.323 -0.2114 -0.1631  0.2503
13781W        W30629   0.427  16.265  13.021 -0.1665  0.2607  0.3219
13782W        W30630  12.702  13.236   3.207 -0.3184  0.1043 -0.1189
13783W        W30631  10.286  12.816  15.545  0.0365  0.0020  0.0681
13784W        W30632  12.911   7.285  11.950 -0.1031  0.0877  0.0443
13785W        W30633   2.097  10.288  11.845 -0.0684 -0.3005  0.2628
13786W        W30634  12.419  10.581  14.832  0.1139 -0.0155 -0.1721
13787W        W30635   9.353   8.096   5.400 -0.3696 -0.1892 -0.1673
13788W        W30636   5.649  13.798   2.891  0.1691 -0.1663  0.0280
13789W        W30637   4.536  13.702  13.922  0.1132 -0.1996  0.2975
13790W        W30638  12.979  11.232  13.478 -0.0614  0.2122 -0.1822
13791W        W30639  11.132  11.771  10.889  0.1673 -0.1418 -0.0003
13792W        W30640  17.413  10.072   6.128  0.0542 -0.0970  0.1115
13793W        W30641   5.883   0.117   0.837 -0.2011  0.0629  0.0354
13794W        W30642  11.764   5.392   0.403  0.4425  0.0477  0.2865
13795W        W30643  17.850   2.993   4.164  0.1421 -0.1667  0.1577
13796W        W30644  10.367  11.124   2.930  0.2838 -0.1261  0.2336
13797W        W30645   9.932   4.013   0.480  0.1163 -0.2524 -0.1314
13798W        W30646   9.110  13.338   4.489  0.0737  0.2506 -0.2114
13799W        W30647   3.289   7.420   2.642  0.0290 -0.1302  0.0028
13800W        W30648  14.734   1.638  13.724 -0.2160  0.0244  0.0810
13801W        W30649   1.535  13.945  13.176 -0.2692  0.0898  0.0091
13802W        W30650   0.775   1.377   1.367 -0.0112  0.0727 -0.1877
13803W        W30651  12.238   7.077  16.325 -0.0209 -0.0228  0.6168
13804W        W30652   8.751   3.424   3.287  0.1781  0.1669  0.1044
13805W        W30653  12.958   1.690  12.407 -0.1462  0.0384 -0.0936
13806W        W30654   9.074   0.362  13.346  0.1012  0.2528  0.2485
13807W        W30655  17.329   6.181  13.015 -0.1190  0.0821 -0.1158
13808W        W30656  16.923  14.125  12.972  0.0920 -0.0600 -0.3110
13809W        W30657   8.038  12.967  13.690 -0.1537 -0.4222 -0.0338
13810W        W30658  13.022   1.901   5.080 -0.1979 -0.0911 -0.1420
13811W        W30659   7.865   7.217   1.229  0.1551  0.1199  0.4062
13812W        W30660  13.025  12.466  13.744  0.3753  0.0808 -0.0526
13813W        W30661  15.997  18.093  13.065  0.2003 -0.0353 -0.3152
13814W        W30662   6.901   7.498  12.228  0.0248  0.1422 -0.1823
13815W        W30663   6.563  10.025   2.227 -0.0165  0.2419  0.0739
13816W        W30664  14.788   5.166   5.019 -0.2738 -0.0482 -0.0199
13817W        W30665  12.881   7.395  14.056  0.1969  0.1802  0.0121
13818W        W30666   9.867   2.526  12.026  0.0349 -0.0093 -0.3825
13819W        W30667  17.912  10.580   3.133 -0.3104  0.1072 -0.0335
13820W        W30668  15.845  12.033  14.863  0.1029 -0.0062 -0.0968
13821W        W30669  17.177   7.488  12.513  0.3146  0.2098  0.0722
13822W        W30670  11.140   0.408  15.248  0.1784  0.3482  0.0109
13823W        W30671   8.572   9.610   3.540  0.1632 -0.1123  0.0179
13824W        W30672  11.655   0.837  15.533 -0.4421 -0.0021  0.0468
13825W        W30673  15.089   7.427   3.389 -0.1199 -0.0873  0.3451
13826W        W30674  14.407   8.213  15.499  0.0869 -0.1009  0.2481
13827W        W30675   6.587   6.468  11.500  0.2427 -0.1374 -0.3021
13828W        W30676   1.843  16.414  12.707  0.2963 -0.0418  0.1956
13829W        W30677   4.713  12.429  15.423 -0.1364  0.0484  0.1333
13830W        W30678   1.806   0.015   3.881  0.2105 -0.2400  0.0779
13831W        W30679   6.486  17.359  14.093 -0.0759  0.1553  0.2199
13832W        W30680   3.817  10.932   3.853 -0.1795 -0.2774  0.2807
13833W        W30681   1.122   2.534  14.354  0.1221  0.0757 -0.0534
13834W        W30682  16.865   6.183   2.995 -0.1101 -0.1825 -0.0559
13835W        W30683  10.846   5.742   1.213  0.2142 -0.1011 -0.0508
13836W        W30684  14.790  10.780   4.762 -0.0916 -0.1390  0.1138
13837W        W30685   4.736   1.825  15.174  0.2532  0.2961 -0.0378
13838W        W30686   5.771   2.778  15.106  0.0599 -0.2308 -0.1765
13839W        W30687  10.398  17.905   1.362  0.0821 -0.0709 -0.2360
13840W        W30688  16.882  13.548  14.406 -0.2130 -0.1153  0.0223
13841W        W30689   3.228   2.405   3.813 -0.0353  0.1339 -0.1741
13842W        W30690  15.009  12.781  16.005  0.1138  0.1358  0.2046
13843W        W30691   3.041   2.871   3.628  0.0142  0.1259  0.2841
13844W        W30692   9.425  14.497   2.177 -0.3824  0.1425  0.0900
13845W        W30693   0.887  12.145  16.278 -0.0174 -0.0997  0.4195
13846W        W30694   5.427  12.964   2.546  0.4401 -0.0237 -0.0621
13847W        W30695   7.608  12.623   1.702  0.0309 -0.2020  0.1360
13848W        W30696   3.904  10.063  15.260  0.0295  0.1607  0.3535
13849W        W30697  14.505   1.204   0.408  0.0421  0.1012 -0.2660
13850W        W30698  13.499  17.527   3.560  0.1802 -0.2227  0.3637
13851W        W30699  13.087   5.695   2.617  0.1062  0.0751 -0.0605
13852W        W30700   7.430   4.410  13.810 -0.6248 -0.0284 -0.1321
13853W        W30701  15.584   1.897  11.328 -0.1421 -0.3925 -0.1232
13854W        W30702   9.218   1.779  12.685  0.0406  0.0454 -0.0796
13855W        W30703   9.470  14.963   3.128 -0.2851 -0.0534 -0.2896
13856W        W30704   9.528   5.798   0.642 -0.1420 -0.1343 -0.1473
13857W        W30705   9.911   6.403  13.695  0.0802 -0.0688  0.0787
13858W        W30706   2.845  11.651  12.854 -0.0310 -0.0018  0.0684
13859W        W30707   6.311   4.042  15.230  0.0678  0.3273 -0.0725
13860W        W30708  11.091   9.002   4.752  0.1153  0.1995  0.1548
13861W        W30709   0.555   5.874  12.767 -0.0198 -0.0715  0.2132
13862W        W30710   1.401   4.780   1.407 -0.3396 -0.0293 -0.2824
13863W        W30711   2.530   3.100   3.591  0.0224  0.0660 -0.3592
13864W        W30712   2.753   9.746  16.120  0.6113 -0.1692 -0.0971
13865W        W30713   7.036  10.193   3.158  0.0666  0.3635 -0.1461
13866W        W30714   4.732   4.948   0.412  0.1622  0.0278  0.1082
13867W        W30715  10.671  13.128   2.368  0.0610  0.1051  0.0016
13868W        W30716   2.604  14.053  12.780  0.1226  0.3099  0.1182
13869W        W30717   4.713   9.647  14.263 -0.4004  0.0419 -0.1398
13870W        W30718  12.544  12.771   3.364 -0.2019 -0.0007 -0.0346
13871W        W30719  12.577   6.817  10.978  0.1972  0.1878  0.1461
13872W        W30720   2.847   4.432   1.266 -0.1987  0.1354 -0.5107
13873W        W30721  17.018   4.567  11.820  0.0503  0.0691 -0.1059
13874W        W30722   0.167   7.015   2.056 -0.0010 -0.3614  0.0338
13875W        W30723   9.771  11.036  14.062  0.1606 -0.1487 -0.0388
13876W        W30724   4.453   1.500  15.557  0.1387  0.0963 -0.0688
13877W        W30725   6.216   3.298   4.110 -0.0888  0.2462  0.0740
13878W        W30726  12.078  15.301  14.265  0.0436  0.2742 -0.4972
13879W        W30727   0.146   1.375  12.475  0.0258 -0.1809  0.0216
13880W        W30728  13.167   4.965   1.451 -0.1558 -0.0818 -0.0357
13881W        W30729   2.353   8.665  14.373 -0.1786 -0.4136 -0.0804
13882W        W30730   8.578   6.503  10.894 -0.3323  0.0120 -0.1381
13883W        W30731   8.250   0.031   4.650 -0.1879  0.1390 -0.2368
13884W        W30732   0.965   6.497  14.287  0.0173 -0.3229 -0.0795
13885W        W30733  16.591   3.837   2.426 -0.1114  0.2543 -0.1606
13886W        W30734  11.690  11.430   4.082  0.2224 -0.0646  0.0225
13887W        W30735   2.967  16.699   1.817 -0.1361 -0.1777 -0.1976
13888W        W30736   6.625  15.449  14.646 -0.2336 -0.2779 -0.2801
13889W        W30737   5.718   4.779  15.028 -0.0985  0.2057  0.0758
13890W        W30738  13.315  11.749   4.079 -0.1904  0.0752 -0.0985
13891W        W30739   9.906   7.951  15.290  0.3645 -0.1076 -0.1408
13892W        W30740   2.164   9.585   1.420  0.1696 -0.1588  0.2051
13893W        W30741  14.344   8.448  15.027 -0.1293  0.0483  0.0818
13894W        W30742  10.035  17.370   6.253  0.2437 -0.0169  0.0051
13895W        W30743   5.992   0.236   4.426  0.0542  0.1677  0.0943
13896W        W30744   6.028   8.625  11.542  0.1773 -0.1209  0.0307
13897W        W30745  10.161   3.210   2.155  0.1122  0.0373  0.0575
13898W        W30746   9.310   6.760  11.487  0.2609 -0.3479  0.4523
13899W        W30747  15.036   6.842   0.216 -0.0999 -0.6003  0.1372
13900W        W30748  13.363   0.889   3.271 -0.1513 -0.2169  0.0700
13901W        W30749  17.375   6.669  13.817 -0.0017 -0.3685 -0.0921
13902W        W30750   6.604   0.829  12.958  0.1634  0.2105  0.4192
13903W        W30751  14.010   4.081   0.997  0.1607 -0.2505 -0.2933
13904W        W30752   3.942   9.393  11.259 -0.2341  0.2118  0.1366
13905W        W30753  17.678  13.243   2.066 -0.0420 -0.1043 -0.2848
13906W        W30754  14.897   4.178   3.985 -0.2790  0.1989 -0.0039
13907W        W30755  17.545   1.847  14.204 -0.1233 -0.0825  0.2088
13908W        W30756   0.136   5.093  12.319 -0.2480  0.2440  0.1895
13909W        W30757  17.981  12.944  14.498  0.3779  0.2488  0.0501
13910W        W30758  12.996  12.975   4.553 -0.1521 -0.1887 -0.0645
13911W        W30759   7.340   7.858   2.484  0.2142  0.2385  0.0438
13912W        W30760   0.694   4.395  14.292  0.2168 -0.3463  0.0746
13913W        W30761  10.805  17.322   6.058  0.0952 -0.3360 -0.1262
13914W        W30762  16.544  17.726  11.662  0.0583  0.0875  0.1146
13915W        W30763  15.378  15.990  11.346 -0.1664  0.3370 -0.2982
13916W        W30764  12.911   0.270  15.446 -0.0771  0.0886  0.2158
13917W        W30765   6.956   7.017   3.010  0.0057  0.2502 -0.2294
13918W        W30766  18.001   1.003  15.804  0.3239  0.0820  0.2151
13919W        W30767   3.799   1.520   1.950  0.2865  0.3741 -0.0613
13920W        W30768   1.292   6.918   1.338 -0.1130 -0.1123  0.0337
13921W        W30769   9.586   7.739   3.906  0.0634 -0.0439 -0.1181
13922W        W30770  17.410  15.023   2.956  0.1010  0.0669  0.0693
13923W        W30771   3.211  15.425  12.518  0.2136 -0.1302  0.0945
13924W        W30772  12.272   5.351  13.305  0.1863  0.1670  0.2888
13925W        W30773   1.209   2.178  13.106  0.0852  0.0118  0.1837
13926W        W30774   3.515   6.827  13.110  0.3127 -0.0369 -0.1714
13927W        W30775  15.433  11.172   4.306  0.4158  0.0552  0.0147
13928W        W30776  17.823   4.111   0.480  0.0103  0.0991  0.0117
13929W        W30777  10.255   7.852   3.664 -0.2657  0.0947  0.0199
13930W        W30778   1.749   3.943   0.350 -0.0633 -0.0314 -0.0389
13931W        W30779  16.444   8.014  12.643  0.1908  0.1325 -0.0434
13932W        W30780   7.902   6.623  12.193  0.2418  0.2090 -0.1785
13933W        W30781   2.128   0.984  11.548  0.1683  0.1031 -0.0612
13934W        W30782   1.030  16.170   3.686 -0.1022  0.0737  0.0418
13935W        W30783  14.394  10.855   2.120  0.2751 -0.1375  0.2754
13936W        W30784  14.181   3.388  12.179 -0.0393  0.1176  0.3928
13937W        W30785  13.089  12.461   4.479  0.3582  0.2023 -0.1472
13938W        W30786   7.772  18.026   4.429  0.5329 -0.1815 -0.0028
13939W        W30787   7.387  15.853   1.015 -0.1085  0.1105  0.1703
13940W        W30788   2.485   6.071  11.785  0.1308 -0.3536 -0.3880
13941W        W30789   6.577  17.812  13.122 -0.0840  0.1779 -0.1020
13942W        W30790  14.739   8.776   1.591  0.1331  0.0909 -0.0979
13943W        W30791   1.308  17.708  13.546  0.0639  0.0216  0.3303
13944W        W30792   6.454   0.396   5.220 -0.1250  0.0936 -0.2649
13945W        W30793  13.554  15.544  12.435  0.2568  0.0234 -0.2333
13946W        W30794  10.142  17.570  12.677  0.3756 -0.0693 -0.4772
13947W        W30795  17.715  12.286   4.504 -0.1162 -0.3960  0.3766
13948W        W30796  15.190   2.212  12.330  0.2060 -0.0365  0.3037
13949W        W30797  16.874   7.801   5.814 -0.0230  0.2552 -0.0363
13950W        W30798  15.894   7.341  11.131 -0.2460  0.1507 -0.0175
13951W        W30799   7.602   4.344   0.722 -0.0462  0.6170 -0.2531
13952W        W30800   3.631   4.055  11.892  0.3049 -0.1406  0.2960
13953W        W30801  15.455   8.016   4.430 -0.4134 -0.0343 -0.0060
13954W        W30802  12.571  10.949  13.929  0.0316  0.0611 -0.0351
13955W        W30803  17.800   0.716   3.673  0.2310 -0.2673 -0.0899
13956W        W30804   7.238  13.248  11.749  0.1372  0.1938  0.3353
13957W        W30805   7.022   3.788   0.083 -0.0486 -0.2465  0.2291
13958W        W30806  11.801   7.450  16.133 -0.1462 -0.0948  0.0975
13959W        W30807  12.125  14.344  12.963 -0.0383 -0.0584 -0.0939
13960W        W30808   5.948   8.237   4.919  0.0607  0.1175 -0.0472
13961W        W30809   0.412  11.821   0.768 -0.4449 -0.0633 -0.2588
13962W        W30810  13.768  12.834  14.367  0.0841 -0.1990 -0.1397
13963W        W30811   0.306   0.642  13.021 -0.3611  0.0505 -0.1832
13964W        W30812   0.607   1.687   0.484 -0.0219  0.0419 -0.4288
13965W        W30813   6.040  13.714  15.665 -0.1101  0.2386 -0.4076
13966W        W30814   4.939   3.440  13.228 -0.4418 -0.0118  0.0006
13967W        W30815   4.131   3.139  16.089 -0.3438  0.2573  0.0382
13968W        W30816   3.507   6.581   3.899  0.0909  0.2534  0.1869
13969W        W30817   5.399   4.201   2.131 -0.3344 -0.3797 -0.0859
13970W        W30818  16.482   7.141   3.827 -0.0512 -0.0708  0.2221
13971W        W30819  15.899   2.987   5.188 -0.0208 -0.3672  0.0973
13972W        W30820   9.890   3.196   1.260  0.1591 -0.1545 -0.1032
13973W        W30821   4.958  12.467  12.975  0.4195  0.3268 -0.0440
13974W        W30822   5.127  12.542  14.980 -0.0475 -0.1517  0.1080
13975W        W30823   7.832  18.012  11.673 -0.2152  0.1085 -0.1590
13976W        W30824  12.491  12.504   1.186 -0.2084  0.2943 -0.3237
13977W        W30825   3.571  13.462   2.582 -0.2519 -0.3318  0.1974
13978W        W30826  17.975  10.313  15.579 -0.0983 -0.0973 -0.0208
13979W        W30827  16.971   9.067  11.316  0.1174  0.0026 -0.1152
13980W        W30828  13.831   6.156   0.424  0.0211 -0.1007  0.0134
13981W        W30829   5.424   1.835  11.283  0.2114  0.4059 -0.2492
13982W        W30830  17.177  16.346  12.857  0.1504 -0.1323 -0.3551
13983W        W30831  16.409   4.687   0.877  0.0124 -0.1728 -0.0495
13984W        W30832   3.645   2.961  15.826 -0.1107  0.0722  0.1775
13985W        W30833   3.914  15.132  14.722  0.3774 -0.2667 -0.3388
13986W        W30834   9.627  16.706   4.125 -0.2938 -0.1918  0.0613
13987W        W30835   5.431   6.036   5.094 -0.2717  0.3051 -0.2598
13988W        W30836   7.981  12.156   1.346  0.0817  0.1473  0.2357
13989W        W30837  14.869   6.204  15.802  0.1471  0.0084  0.0170
13990W        W30838   9.432  14.166   4.916  0.2017 -0.1695  0.1174
13991W        W30839  14.351   6.733   5.023  0.0072  0.0063  0.0477
13992W        W30840  15.380  13.600  15.847 -0.0668  0.2038  0.0007
13993W        W30841  14.846   1.150  13.769  0.0155  0.2664 -0.3572
13994W        W30842  11.589  12.693  15.920 -0.5592 -0.0759  0.0027
13995W        W30843   9.891   4.594   5.473 -0.1909 -0.1178  0.0429
13996W        W30844  12.935  14.826   0.765 -0.1718 -0.1302 -0.0354
13997W        W30845   2.196   4.020   3.761 -0.3102 -0.3229 -0.1330
13998W        W30846   7.792   7.753  16.206 -0.2928 -0.1757  0.1687
13999W        W30847   8.602   7.845  13.848  0.0053  0.1532 -0.0263
14000W        W30848   9.048   5.975  12.553  0.3266  0.1882 -0.1003
14001W        W30849   9.698  14.043   2.385 -0.2401 -0.1209 -0.0502
14002W        W30850  17.579  15.911   5.163 -0.2535  0.1616  0.0501
14003W        W30851  13.289   0.342  13.598 -0.2537 -0.0570  0.0494
14004W        W30852   3.989   6.919  11.323  0.2515 -0.1329  0.0098
14005W        W30853  15.405  14.062  14.747  0.1915 -0.0079 -0.0940
14006W        W30854   0.003   2.448   1.535  0.0558  0.0691 -0.0924
14007W        W30855   2.999   4.906  13.762 -0.0823 -0.0548  0.0277
14008W        W30856  17.073  12.589   1.086 -0.3142 -0.0884 -0.1323
14009W        W30857   9.866   8.510   2.932  0.0961  0.1195 -0.2133
14010W        W30858  11.645  12.245  12.002 -0.1069  0.3573 -0.1422
14011W        W30859  17.913   0.196   1.125 -0.1424 -0.0910  0.1017
14012W        W30860  15.903   1.845  13.365 -0.2251 -0.3645 -0.1696
14013W        W30861  14.396   3.688   0.164  0.1833 -0.1309  0.1141
14014W        W30862   2.824  11.166  13.099  0.2403  0.0108 -0.5402
14015W        W30863  13.411  15.287   4.855  0.0574 -0.2883  0.2067
14016W        W30864   6.203   4.683  15.161  0.1442  0.0726 -0.0134
14017W        W30865   4.913  13.027  14.921  0.3263  0.3327  0.3191
14018W        W30866   7.608   4.853   4.811 -0.0318  0.1951 -0.2399
14019W        W30867  14.354  15.769   2.954 -0.1828  0.4387 -0.0385
14020W        W30868   7.280   9.965  11.155 -0.1335 -0.1054  0.2320
14021W        W30869   6.809  11.720  15.907 -0.0150  0.0409  0.0061
14022W        W30870  11.891   7.384   2.459  0.0199  0.1385 -0.1209
14023W        W30871   6.826   2.879  13.083  0.1039  0.1978  0.3021
14024W        W30872   6.013   0.635  15.237  0.0663 -0.2500  0.1966
14025W        W30873  12.225  11.375  14.451 -0.1680  0.1195  0.2239
14026W        W30874  14.928   2.979   4.830  0.1279 -0.0103  0.2775
14027W        W30875   6.433   9.364   2.452 -0.4340  0.0446 -0.0642
14028W        W30876   7.234  13.024   0.006  0.3206 -0.1570 -0.0171
14029W        W30877  13.351   6.089   2.486  0.1002 -0.2710  0.0763
14030W        W30878   8.109  17.059  13.860  0.0126 -0.1890 -0.1853
14031W        W30879  14.943  15.344   2.364 -0.1216  0.2358 -0.3240
14032W        W30880   7.624   7.970   3.557  0.0470 -0.2510 -0.4036
14033W        W30881   4.412   5.346   1.828  0.0409 -0.0457 -0.4786
14034W        W30882   6.841  13.369  14.411 -0.1902  0.1173  0.1087
14035W        W30883  16.374   5.721   2.004  0.1564  0.1584 -0.1181
14036W        W30884  14.027  12.799   4.337 -0.2007 -0.1147 -0.0841
14037W        W30885   1.878  16.044   3.068 -0.2920  0.4039  0.0584
14038W        W30886   0.540  14.079   1.227  0.0489 -0.0285 -0.5472
14039W        W30887   1.667  13.874   5.108 -0.1464  0.0817 -0.0785
14040W        W30888   4.810  14.351   3.736 -0.2758 -0.0377 -0.1227
14041W        W30889   9.718  11.882   1.730 -0.3798  0.0969 -0.0182
14042W        W30890  14.526  14.186  15.648  0.3634 -0.0685 -0.2008
14043W        W30891   5.098  15.006   5.392  0.0953  0.0924 -0.0371
14044W        W30892  10.609  11.710   2.190  0.0706 -0.0251  0.1045
14045W        W30893   3.260   6.301   0.666 -0.0956 -0.0278  0.1515
14046W        W30894   4.898   4.136  11.374  0.1467  0.2646  0.0860
14047W        W30895   5.607   5.202   4.235  0.0322  0.1038 -0.0280
14048W        W30896   2.094   0.028   0.277 -0.0489  0.2482 -0.1956
14049W        W30897   5.563  13.048  12.057  0.2301 -0.1590  0.2399
14050W        W30898   1.540   9.642  15.149 -0.0668  0.0076 -0.2902
14051W        W30899   2.653   0.686   0.273 -0.0257 -0.1017  0.1638
14052W        W30900   4.332   5.704   0.270 -0.3501  0.0071 -0.1627
14053W        W30901   1.574   4.910   0.314 -0.0448 -0.1689  0.0919
14054W        W30902   1.241   3.689   3.801  0.2127  0.2455 -0.0402
14055W        W30903   3.389   6.024  15.517 -0.2891  0.1878 -0.1523
14056W        W30904  16.866   0.808   2.074 -0.0198 -0.1305 -0.0325
14057W        W30905  18.028   8.008  11.704  0.1336  0.0566 -0.2787
14058W        W30906  15.873   9.711   1.871  0.1264  0.0051  0.1072
14059W        W30907  11.462  11.673  11.434 -0.2078 -0.2614 -0.0680
14060W        W30908  14.051   4.871  15.071 -0.1537 -0.1369  0.0859
14061W        W30909   2.861  10.839   2.277  0.0274  0.3604 -0.1358
14062W        W30910  12.638   1.824  14.869  0.1842 -0.3367 -0.1815
14063W        W30911   6.090   2.993  14.374  0.1270  0.2034 -0.0688
14064W        W30912   5.398   7.156   3.054 -0.0171 -0.1444 -0.2443
14065W        W30913  12.185   2.099  10.064 -0.2379 -0.0909 -0.1336
14066W        W30914   2.735  12.507   0.638 -0.3709  0.2677  0.0604
14067W        W30915   5.221   4.723  14.275 -0.2056 -0.1675 -0.1127
14068W        W30916   2.520  13.005  14.377  0.2837 -0.0950 -0.1303
14069W        W30917   5.796   9.601  11.322  0.1852  0.2494  0.0797
14070W        W30918   1.498   3.935   2.957  0.1157 -0.1108 -0.1292
14071W        W30919  10.769  10.959   3.767 -0.0581 -0.2218 -0.1201
14072W        W30920  12.194  13.472  13.938  0.2159 -0.2176 -0.0144
14073W        W30921  10.783   7.483   1.775 -0.1763  0.0212  0.0815
14074W        W30922   5.699   2.632   4.467  0.0493 -0.0058  0.1135
14075W        W30923   9.203   4.498   0.158  0.2969 -0.2260 -0.2767
14076W        W30924   0.127   2.378  12.876 -0.1589  0.3018  0.0720
14077W        W30925   8.366  17.934  16.273  0.1274 -0.0590 -0.2815
14078W        W30926   0.476   7.385  14.371  0.0758 -0.0304 -0.0726
14079W        W30927  16.853  15.762   3.230  0.2647 -0.2365  0.1061
14080W        W30928   7.485  10.966  14.660 -0.0028  0.1855 -0.1933
14081W        W30929   8.349  12.361   2.964  0.1564 -0.2036  0.0745
14082W        W30930   6.921   2.348   0.734  0.0963  0.1922 -0.1764
14083W        W30931   0.539  11.036   1.240 -0.4519 -0.3148 -0.2975
14084W        W30932   1.555   4.528  14.609 -0.1981  0.0095  0.2555
14085W        W30933  13.411  15.588   4.410 -0.2324  0.1831 -0.1616
14086W        W30934   7.944  13.777   1.954 -0.1168 -0.0138  0.0826
14087W        W30935   2.761   1.907  12.230 -0.0528  0.2366  0.1114
14088W        W30936  10.892   9.529   0.135 -0.2731  0.1676  0.1979
14089W        W30937   5.271   2.278  12.889 -0.0436 -0.1498 -0.2210
14090W        W30938   8.035  13.996   2.818 -0.1007 -0.0240  0.1001
14091W        W30939  17.227  11.548  14.531 -0.0416  0.2618  0.1452
14092W        W30940   1.935   5.649   0.145 -0.3501  0.1622 -0.2147
14093W        W30941   0.178  14.149  13.041 -0.0122  0.1919  0.0844
14094W        W30942   2.733  12.466   2.978 -0.0317  0.3818 -0.1135
14095W        W30943   8.244   7.164   0.871  0.1006 -0.1909  0.0113
14096W        W30944   0.131   6.806   3.032  0.0861 -0.3456  0.2020
14097W        W30945  15.590  11.015   4.724  0.2797  0.2186  0.3197
14098W        W30946   5.143   3.375  12.745  0.1021  0.1193  0.1611
14099W        W30947  17.081   4.472   4.109 -0.1162  0.0067  0.2683
14100W        W30948  12.257  15.958   0.888  0.2754 -0.0293 -0.0289
14101W        W30949  15.993  10.085   4.678  0.0409 -0.0917  0.1331
14102W        W30950  13.117   0.043  11.118 -0.4262  0.1816 -0.1007
14103W        W30951   7.432   2.346   2.300  0.0234  0.0063 -0.1236
14104W        W30952  14.437  17.605  14.786  0.1606  0.1930 -0.0251
14105W        W30953  15.928  18.068  15.582 -0.0076 -0.2039  0.0546
14106W        W30954  15.926   5.092  11.917  0.0361 -0.3025 -0.0208
14107W        W30955  17.389  16.706  11.719  0.1409  0.0466  0.2585
14108W        W30956   3.758   4.800  11.790  0.0046 -0.6956 -0.4093
14109W        W30957   9.676   0.282  12.764  0.1750  0.0834 -0.1950
14110W        W30958  17.148  12.355  14.282 -0.1468 -0.1426  0.0368
14111W        W30959   6.171  13.430  13.699  0.0349  0.0532  0.3939
14112W        W30960  12.059   5.888   2.853 -0.2720  0.1080  0.1250
14113W        W30961   7.601  10.335   5.363  0.0202 -0.1242  0.0240
14114W        W30962  10.950  15.824  12.774 -0.1498  0.0135 -0.0453
14115W        W30963   0.959  10.916  14.493  0.0006  0.2918 -0.0429
14116W        W30964  11.904   0.509  15.922 -0.0889  0.1599 -0.0385
14117W        W30965   9.904   0.097   4.323 -0.0216  0.0637  0.2367
14118W        W30966   9.639   7.597  13.922 -0.0168 -0.0733 -0.2748
14119W        W30967   1.369  15.614   5.183 -0.4962 -0.2230 -0.1657
14120W        W30968  15.362   8.516   1.010 -0.0439  0.2788 -0.0691
14121W        W30969  11.125   1.235   4.116  0.0794 -0.0257 -0.2950
14122W        W30970   5.149   0.429  12.734  0.0238  0.0224 -0.1313
14123W        W30971   4.324   5.050  13.442 -0.0440  0.1396 -0.2549
14124W        W30972   1.526  15.750   4.765  0.2223  0.4317  0.2878
14125W        W30973  12.871   2.580  14.884 -0.0678  0.1230 -0.0767
14126W        W30974   4.421   4.844  12.545  0.2522 -0.2548 -0.0917
14127W        W30975   3.267   7.604   3.625  0.0123  0.0401  0.0858
14128W        W30976   9.426   9.416   3.363 -0.0278 -0.3472 -0.0147
14129W        W30977   3.041   0.076  12.665  0.0790 -0.0900  0.1911
14130W        W30978   5.214   7.110   2.536 -0.0556  0.3791 -0.1711
14131W        W30979   2.047   7.039  15.019 -0.1461 -0.3828 -0.0226
14132W        W30980   7.218   7.104   1.921 -0.3761 -0.5912 -0.0431
14133W        W30981   0.651  14.073  14.843 -0.2403  0.0944 -0.1235
14134W        W30982   8.474  16.682  14.076  0.3976 -0.4671  0.0127
14135W        W30983   5.653   4.670   4.415  0.2220  0.2046 -0.3357
14136W        W30984  10.648  13.434   4.096  0.3146  0.1208 -0.0290
14137W        W30985   3.320  17.625   0.628  0.0815  0.3231 -0.0454
14138W        W30986   4.042  16.447   0.036 -0.0522 -0.0179  0.1956
14139W        W30987  10.307   2.326   1.935 -0.2087 -0.2748 -0.1142
14140W        W30988   5.955  11.489   1.809 -0.0602 -0.1788  0.2759
14141W        W30989  10.130   3.461   4.059 -0.0003 -0.0626 -0.0527
14142W        W30990   0.340   7.183   5.648  0.4409  0.0724 -0.1031
14143W        W30991   8.414  13.487   2.105  0.2961  0.0071  0.0161
14144W        W30992   5.120   4.998   3.412 -0.2178 -0.2269  0.2216
14145W        W30993   4.187  14.566   4.977 -0.1380  0.1242 -0.0269
14146W        W30994   3.109  14.574   1.963  0.0019  0.1851 -0.0501
14147W        W30995  11.976   8.910  12.318 -0.3491  0.1972  0.1104
14148W        W30996  14.281   0.484  12.029  0.0586 -0.2729  0.0120
14149W        W30997   0.418   6.194  12.370 -0.1516  0.1490  0.0832
14150W        W30998  16.298  14.211  10.447 -0.0458 -0.1031  0.1436
14151W        W30999  16.762   0.971  15.773 -0.1600 -0.0707  0.0486
14152W        W31000   7.263   4.722  14.465  0.0155 -0.2003 -0.1131
14153W        W31001  11.149   3.215  12.629  0.1764 -0.0335 -0.0477
14154W        W31002   8.899  16.847   0.201  0.2738 -0.2412  0.0111
14155W        W31003  13.167   7.380  14.481  0.1196 -0.2266 -0.2974
14156W        W31004  16.558  13.815   4.230  0.1510  0.2868 -0.0044
14157W        W31005  13.609  11.437   0.657 -0.1124 -0.4194  0.3536
14158W        W31006   4.986   7.279   4.768 -0.2238  0.0776 -0.1732
14159W        W31007  10.347   8.897  15.961  0.3741  0.2315  0.0679
14160W        W31008  14.888  11.085   2.659 -0.0817 -0.3941 -0.2610
14161W        W31009   7.557   8.536   1.899  0.0667  0.1994 -0.1757
14162W        W31010  14.165   5.917  15.167  0.2246 -0.2235 -0.0869
14163W        W31011  14.587   1.219   3.445 -0.0898  0.0653  0.2055
14164W        W31012   9.347   8.650   3.827  0.2596 -0.0850 -0.0076
14165W        W31013   6.319  16.021  13.991  0.0876 -0.2007 -0.1240
14166W        W31014  16.083  10.017  14.027 -0.1398 -0.0067  0.2353
14167W        W31015  16.225  10.849   1.160 -0.0676 -0.0131  0.1510
14168W        W31016   0.945  13.227  13.092 -0.1439 -0.3980  0.0441
14169W        W31017  16.610   5.105  13.148  0.0141 -0.1748 -0.0180
14170W        W31018  14.738   5.072   6.036 -0.0860  0.0834 -0.1874
14171W        W31019  11.618   2.873   3.196  0.3203 -0.0706  0.0539
14172W        W31020   8.522  10.945   4.553 -0.3760  0.2319 -0.1603
14173W        W31021   2.065   6.963   3.195 -0.1258 -0.0014 -0.5186
14174W        W31022  11.436   3.790  11.359  0.1410 -0.1697  0.1187
14175W        W31023   5.452   4.629  12.396  0.0054 -0.1562  0.2274
14176W        W31024   0.131   4.465  15.024  0.1677 -0.1909  0.4669
14177W        W31025  10.945  13.906   3.185  0.2256 -0.0028  0.1433
14178W        W31026   9.710   6.567  12.312 -0.0847 -0.0133  0.2619
14179W        W31027   4.956   9.874   4.276  0.0732  0.0067 -0.0589
14180W        W31028   2.931   0.532   2.266  0.1202  0.2731  0.2268
14181W        W31029   2.001   1.703   2.395  0.1711 -0.1306 -0.0919
14182W        W31030  13.155   5.362  11.636 -0.0041  0.3929  0.0698
14183W        W31031  12.357  17.372   0.344 -0.3208 -0.0787  0.1023
14184W        W31032   2.901   8.096  12.146 -0.0484  0.2431  0.1513
14185W        W31033   5.738   6.592   0.212 -0.0708  0.2471 -0.2296
14186W        W31034   1.006  11.879   0.736  0.0286  0.2563  0.2301
14187W        W31035  15.272   3.864  15.106  0.1270 -0.0423 -0.0233
14188W        W31036  12.918   9.039   5.220 -0.0094  0.0478 -0.1498
14189W        W31037  10.663   1.884   0.955  0.1014 -0.1991 -0.1771
14190W        W31038  10.620  13.556  11.955 -0.3159  0.1726 -0.1709
14191W        W31039   1.217   0.377   0.501  0.0752 -0.0941 -0.0918
14192W        W31040   8.552   4.320   1.295 -0.1533 -0.1672 -0.2384
14193W        W31041  11.589   4.005  15.457 -0.0254  0.2417 -0.0538
14194W        W31042   4.542  10.670  16.068 -0.1097  0.2240  0.1919
14195W        W31043  17.986  13.026   1.642 -0.2430  0.1400 -0.1290
14196W        W31044  11.828  15.433  12.968 -0.1363  0.1219  0.1684
14197W        W31045  13.887  17.432  12.078  0.1746  0.2465  0.0930
14198W        W31046  11.557   4.800  14.359 -0.1168 -0.1297  0.0767
14199W        W31047   6.753  12.031   0.892  0.1822 -0.2552  0.1832
14200W        W31048  12.947   8.765  13.557  0.0623  0.1210 -0.0281
14201W        W31049  14.270   9.700   5.717 -0.3284 -0.2611  0.3043
14202W        W31050   2.904  11.797   4.599  0.1201 -0.2053  0.4718
14203W        W31051  13.812   5.196   2.306  0.0284  0.2177 -0.1008
14204W        W31052  17.989  16.520  15.372 -0.0799  0.0912  0.2800
14205W        W31053   3.166   8.742  12.640 -0.1451  0.3454  0.0980
14206W        W31054   2.921  10.979  14.580  0.2425 -0.0427  0.1335
14207W        W31055  13.957   5.292  12.375 -0.0399 -0.4358 -0.1131
14208W        W31056   2.018   7.234  16.010  0.1368 -0.1416 -0.2291
14209W        W31057  11.301  14.030   0.863  0.0811  0.0113  0.2858
14210W        W31058  12.283   7.675  15.468  0.1446  0.0005  0.0655
14211W        W31059   7.767   2.640   5.394 -0.1527 -0.1393 -0.1238
14212W        W31060   3.588  15.581  13.769  0.1975  0.2580 -0.0491
14213W        W31061   0.708  13.237   4.933 -0.2578 -0.0913  0.0927
14214W        W31062  12.383   5.410  15.008  0.0910  0.1479  0.1499
14215W        W31063  17.634  12.533   3.311  0.1287  0.1099  0.2524
14216W        W31064   5.531  13.105   3.738 -0.2685 -0.1875 -0.2302
14217W        W31065  10.405   4.901   4.681 -0.1589  0.0413  0.4257
14218W        W31066   1.059  16.799   4.352 -0.2228 -0.5873  0.1174
14219W        W31067  17.516  13.987   4.963  0.1369 -0.0334 -0.2086
14220W        W31068   2.151   8.574   0.004  0.0697 -0.0181  0.2062
14221W        W31069   3.197  14.668   2.655  0.1388  0.2109  0.0762
14222W        W31070   2.573   2.598  14.223 -0.0624  0.0740 -0.1097
14223W        W31071  16.901   9.795   3.279 -0.1612 -0.3849  0.0629
14224W        W31072   9.253  18.087   0.019  0.0234  0.1045 -0.0253
14225W        W31073   7.451   7.735   5.496  0.2654  0.1350  0.1426
14226W        W31074   5.385   6.196  13.075  0.2863  0.1393 -0.0736
14227W        W31075   6.814  10.222  11.047 -0.0427  0.0904  0.1507
14228W        W31076   5.320   8.106  14.688 -0.2541  0.2199 -0.0607
14229W        W31077   6.754  15.958   2.855  0.1092 -0.2936 -0.2299
14230W        W31078   1.427  17.478  13.044  0.0597 -0.1318  0.3054
14231W        W31079  17.515   5.613  11.904  0.1098  0.0855 -0.1607
14232W        W31080  15.489   9.488  15.175  0.0201  0.0225  0.2000
14233W        W31081  12.729  13.356   2.123 -0.0227  0.0808  0.0125
14234W        W31082  15.535   8.379  15.613  0.5828 -0.1296  0.2112
14235W        W31083  11.249  17.852   5.291  0.1637 -0.1398 -0.2674
14236W        W31084  13.833  12.915   4.768 -0.0439 -0.4625  0.1039
14237W        W31085  11.871  14.281   4.898  0.2519  0.0303 -0.1090
14238W        W31086  17.642  16.220   3.199  0.0513 -0.0050 -0.0422
14239W        W31087   7.377   5.233  11.800 -0.2944  0.1035 -0.3424
14240W        W31088  10.536   7.452   0.714 -0.1686  0.2174  0.0331
14241W        W31089   7.805  13.777  12.816 -0.1640 -0.0253  0.0743
14242W        W31090   5.877  12.242   3.675 -0.1077 -0.1389  0.0827
14243W        W31091   0.716   1.251  12.614  0.1646  0.0497  0.1540
14244W        W31092  16.126   2.418  16.202 -0.0460  0.0507 -0.1395
14245W        W31093  10.108  17.877   2.579 -0.0412  0.1250  0.1144
14246W        W31094  16.005  16.022  13.940 -0.0507  0.1243 -0.0909
14247W        W31095  17.242   0.963   4.019  0.1350 -0.2364 -0.0225
14248W        W31096   0.397  16.945   3.295  0.0261 -0.0311 -0.1503
14249W        W31097  11.952  14.820   1.769 -0.1112 -0.4913 -0.0480
14250W        W31098   0.713  14.762  13.309 -0.1986 -0.2889  0.0021
14251W        W31099   4.048   6.203  14.803 -0.1141  0.1866  0.0910
14252W        W31100   2.550   6.840  11.398 -0.1247  0.1270  0.1786
14253W        W31101  14.445   1.222  10.495  0.4076 -0.4323 -0.1037
14254W        W31102   4.464   6.770  12.830 -0.4728 -0.2828  0.2876
14255W        W31103  14.635  12.639  11.561  0.0271 -0.1753 -0.0988
14256W        W31104  12.653   4.296   1.792  0.2045  0.2050 -0.2047
14257W        W31105  12.308   6.696  15.504 -0.1401  0.2108 -0.0236
14258W        W31106   4.708   8.120   1.841 -0.1806 -0.2079 -0.0840
14259W        W31107   6.673   0.592  14.168 -0.1032 -0.0496 -0.0415
14260W        W31108   4.266  11.769  16.024 -0.0083 -0.0463 -0.3151
14261W        W31109   6.013   6.459  14.096 -0.1266 -0.0118  0.0195
14262W        W31110  10.087  15.471   0.396 -0.0795 -0.0114 -0.2630
14263W        W31111   3.962   4.144  13.762 -0.2897 -0.3478  0.2804
14264W        W31112  10.895   2.254  12.885  0.1979 -0.1415  0.0891
14265W        W31113   0.633   3.170  13.670 -0.1192  0.3410  0.0107
14266W        W31114   4.294   5.641   4.898 -0.1707  0.2994 -0.1682
14267W        W31115   4.087  15.257   4.440  0.0921 -0.3350  0.3139
14268W        W31116  13.653  17.319   2.465  0.0089 -0.0395 -0.0767
14269W        W31117  11.782   0.471   0.636 -0.1148  0.2178 -0.1053
14270W        W31118   2.298   3.443  11.266 -0.0257  0.0726  0.1470
14271W        W31119  15.360  13.833  12.747 -0.0504  0.4212  0.2810
14272W        W31120   7.640  11.688   2.001 -0.3606 -0.0132 -0.0966
14273W        W31121  17.386  15.473   1.135 -0.2543 -0.0263 -0.0938
14274W        W31122   2.813  17.676   0.859  0.2138  0.1192 -0.2325
14275W        W31123   6.462   2.264  15.479  0.0710  0.0595 -0.0513
14276W        W31124  10.840   2.788  11.627 -0.2398  0.1191 -0.0517
14277W        W31125   6.443  10.982  16.064 -0.0686  0.1014  0.2540
14278W        W31126   6.328   2.781  13.360 -0.1985 -0.0943  0.0724
14279W        W31127   1.217   5.097   0.047 -0.0073  0.0567  0.0425
14280W        W31128  17.203  12.971   0.684  0.0758 -0.1132 -0.2295
14281W        W31129  11.310   1.372  12.791  0.2013 -0.3203  0.0456
14282W        W31130   4.819   8.561   2.184 -0.2050 -0.0123  0.1374
14283W        W31131   8.864  14.491  14.475  0.0158  0.3685 -0.1590
14284W        W31132  10.260   4.046   1.979 -0.1124 -0.1482  0.3399
14285W        W31133   6.638   2.862  14.219  0.0119  0.4160  0.0058
14286W        W31134  13.841   1.201  13.837 -0.0079 -0.6172  0.1048
14287W        W31135   4.064  10.940   4.763 -0.1190  0.2473  0.0736
14288W        W31136  11.441   2.797  12.274  0.0300  0.1035  0.0093
14289W        W31137   1.552   6.412  14.965  0.1761  0.0044 -0.0176
14290W        W31138  13.887  17.437  14.608  0.0356 -0.2179 -0.3588
14291W        W31139   9.019   8.060  11.625 -0.0672 -0.2882 -0.0678
14292W        W31140  16.272   1.208   3.948 -0.3268 -0.0455 -0.0125
14293W        W31141  16.768  13.660  12.753  0.1380 -0.1626  0.0168
14294W        W31142   4.531   8.567  13.432 -0.1255 -0.2947  0.0241
14295W        W31143  11.625   2.216   5.615  0.0661 -0.2386  0.4166
14296W        W31144  11.558   3.862   4.394  0.0776  0.4122  0.3460
14297W        W31145   9.210   3.242  13.905  0.2359  0.0076 -0.2112
14298W        W31146  15.473   9.242  14.423 -0.0676  0.3792 -0.2729
14299W        W31147  12.023   0.298  11.532  0.1951  0.0346 -0.0496
14300W        W31148   6.035  10.821   2.551 -0.0150  0.0839  0.1728
14301W        W31149   3.178  13.720  12.197 -0.0646  0.1495  0.2473
14302W        W31150   2.203  10.896   3.063 -0.0830 -0.0807 -0.1056
14303W        W31151   9.920  17.505  11.724 -0.0763 -0.3714 -0.0438
14304W        W31152  10.703  12.825   0.691 -0.0427 -0.2333  0.2283
14305W        W31153  12.036  11.977  14.028 -0.3700  0.1166 -0.1121
14306W        W31154  14.536   9.807  14.547 -0.1740  0.4078 -0.2865
14307W        W31155   5.913  11.989   1.445  0.0697  0.0494 -0.0553
14308W        W31156   7.800   0.819   4.650  0.0656 -0.0884 -0.2880
14309W        W31157  12.868   4.498   3.121  0.0261  0.0693  0.2134
14310W        W31158  15.137   8.236   0.630 -0.0124 -0.2516 -0.0475
14311W        W31159  15.105   7.927   1.668  0.0589 -0.0071  0.3363
14312W        W31160   4.323   4.743  11.627  0.0143 -0.1403 -0.0468
14313W        W31161  15.065   3.609   0.035  0.0015 -0.0194  0.3103
14314W        W31162   5.959   9.097  10.996 -0.0798  0.1733 -0.4259
14315W        W31163   3.607  10.261   4.604  0.2043 -0.0436  0.2868
14316W        W31164  16.045   9.280  12.298 -0.2900 -0.1416  0.1596
14317W        W31165   2.291   5.122   1.923 -0.2765  0.2509  0.2084
14318W        W31166   4.897   0.592   2.200 -0.0632 -0.3167  0.0383
14319W        W31167   3.015   5.942   4.922  0.0960  0.1073  0.1678
14320W        W31168   9.157   3.772   4.033 -0.0831 -0.0318  0.0453
14321W        W31169   7.695   1.874   1.889 -0.0548 -0.2377  0.1260
14322W        W31170   3.899   1.421   4.455 -0.1268 -0.3884 -0.2606
14323W        W31171  12.656   2.588  13.483  0.2704 -0.0468  0.2712
14324W        W31172   6.057  11.196  15.876  0.1191  0.0337  0.2965
14325W        W31173  17.106   5.026  13.866 -0.0574  0.0544  0.2841
14326W        W31174  10.651   0.580  15.048 -0.2126 -0.3719  0.3245
14327W        W31175   8.527   2.522   2.973  0.0291 -0.1574 -0.1918
14328W        W31176  10.380  15.356  13.208 -0.0772  0.0699 -0.1983
14329W        W31177  16.919  14.487  14.366  0.0180 -0.0423  0.0495
14330W        W31178   0.058   5.701   2.907  0.0645  0.1626 -0.2279
14331W        W31179  18.061  13.032   4.641  0.0268  0.2288 -0.0867
14332W        W31180   1.647  16.091   4.294 -0.1855 -0.0839  0.1446
14333W        W31181  17.439   1.366   4.738 -0.0020 -0.0348  0.1887
14334W        W31182   4.142  16.793   0.994 -0.3073 -0.1422 -0.0703
14335W        W31183  14.586   8.190   3.159 -0.0127 -0.0259 -0.0946
14336W        W31184   0.180   1.667   4.997 -0.0881 -0.3952  0.1167
14337W        W31185   2.056   2.832   1.574 -0.1891 -0.0155  0.0535
14338W        W31186   7.435   1.220   3.363  0.1324  0.2036 -0.1010
14339W        W31187   6.648  17.344   1.321 -0.0111  0.2624  0.0172
14340W        W31188   9.639   8.374  10.760  0.1314 -0.2308  0.1154
14341W        W31189  15.854   0.933   2.175  0.2022  0.1396  0.0500
14342W        W31190  13.669   0.766  11.429  0.0183 -0.3681 -0.1458
14343W        W31191   7.759   4.922   3.288 -0.1679 -0.3626  0.1814
14344W        W31192   0.993  10.282   0.012 -0.2951  0.0748  0.1196
14345W        W31193   4.476  16.937  12.091  0.0523 -0.1731 -0.1471
14346W        W31194   2.423  12.408  13.285 -0.2347 -0.0509 -0.1126
14347W        W31195   6.444   6.556   2.301 -0.0845 -0.0530 -0.1436
14348W        W31196   3.476  13.855   1.050 -0.1034 -0.2641 -0.0026
14349W        W31197  15.784  10.491   4.084  0.5880 -0.0399 -0.0865
14350W        W31198   7.146  17.209   1.653  0.1572  0.0511  0.0841
14351W        W31199  13.568  12.530  15.142  0.0122  0.0563 -0.1487
14352W        W31200  17.946   2.842   2.909 -0.1612 -0.0697 -0.1576
14353W        W31201   5.968  17.789  12.201  0.1656 -0.2278  0.1165
14354W        W31202   7.396   3.411   3.023 -0.0914  0.0429  0.0215
14355W        W31203   4.071   8.595  16.154  0.2288  0.1459 -0.1376
14356W        W31204   7.932  15.843   1.281  0.2176 -0.0534  0.1535
14357W        W31205  10.356  11.967   3.986  0.0524 -0.0093 -0.0016
14358W        W31206  16.693   5.815  11.185 -0.1259  0.1297  0.0128
14359W        W31207  14.930   3.975  11.312 -0.1637  0.3132  0.2601
14360W        W31208   4.980   6.358   0.947 -0.0903  0.4109 -0.0354
14361W        W31209   8.297   3.077   0.730 -0.3455  0.0604 -0.1316
14362W        W31210   8.899  14.231  15.400  0.1083 -0.3869 -0.2103
14363W        W31211   5.447  14.141   4.371  0.1532 -0.2412 -0.5268
14364W        W31212  12.885  14.388  13.661  0.3760 -0.1027  0.1336
14365W        W31213   1.950   3.110  11.072 -0.0890  0.2430  0.0803
14366W        W31214  11.594   4.409   4.926  0.1921  0.1860  0.3276
14367W        W31215  15.695   5.308  15.666  0.1423  0.0301 -0.0113
14368W        W31216  14.842  13.809  10.525 -0.0438 -0.2099  0.1069
14369W        W31217   8.535   6.165   2.292  0.2219 -0.4374 -0.2866
14370W        W31218  16.883  12.158   1.924 -0.0033 -0.2241  0.0068
14371W        W31219  12.801   7.842   3.283 -0.0961  0.1227  0.2502
14372W        W31220  15.481   9.870   2.138 -0.4645 -0.1800 -0.1500
14373W        W31221  17.880  17.776  14.764 -0.2139 -0.0720 -0.0485
14374W        W31222   4.001   6.664   3.747 -0.3173  0.2273 -0.1217
14375W        W31223   4.197   7.239  14.229  0.3251 -0.1527 -0.2187
14376W        W31224   2.867  11.599   2.804  0.0017  0.0097  0.1019
14377W        W31225  15.818  13.970   2.530 -0.3083 -0.1724  0.3295
14378W        W31226  11.777  16.697   4.022  0.0274  0.3030  0.1738
14379W        W31227   3.779   3.355   3.783 -0.0256 -0.1763 -0.2541
14380W        W31228   3.107   0.046  15.341  0.1615 -0.0771 -0.0068
14381W        W31229  12.984   2.165   0.362  0.0695 -0.0958 -0.1961
14382W        W31230   2.836  12.636  11.427  0.4019  0.1492  0.0043
14383W        W31231   8.404   6.214  11.319  0.2588 -0.3641 -0.0458
14384W        W31232  14.633  11.698  15.396 -0.3113  0.1069 -0.0442
14385W        W31233   9.346  12.803  11.309  0.1624  0.1085  0.0447
14386W        W31234  12.062  17.241  16.121 -0.1588 -0.3839 -0.0041
14387W        W31235   6.075   5.946   4.159 -0.0461 -0.2205 -0.2522
14388W        W31236  15.033   1.630   5.217  0.0982  0.0959  0.0557
14389W        W31237   4.694   1.586   4.549  0.4105 -0.0127  0.0876
14390W        W31238  15.195   2.729  12.529 -0.0137  0.0512  0.2312
14391W        W31239   8.507  16.517  11.660  0.0156 -0.1949  0.0972
14392W        W31240  14.752  17.159   0.239 -0.4385  0.0409  0.4021
14393W        W31241   1.160   2.974   1.492  0.0993  0.0734  0.0707
14394W        W31242  14.158  14.276  11.598 -0.0161 -0.1442 -0.0514
14395W        W31243   0.842  15.928   1.039 -0.2308 -0.0198 -0.0434
14396W        W31244   0.646  10.566  14.850  0.0154  0.0414 -0.1531
14397W        W31245   5.195   6.641   3.308  0.3469 -0.0452 -0.0416
14398W        W31246   2.489  17.772   0.209 -0.0985  0.0799  0.3209
14399W        W31247   4.106   6.614  11.663  0.0291  0.1037  0.2541
14400W        W31248  16.441  16.587  12.801 -0.1766  0.1264 -0.1750
14401W        W31249   8.574   3.869   6.214  0.2051 -0.0407  0.0526
14402W        W31250   2.066  15.819   1.519 -0.0400 -0.2743 -0.2995
14403W        W31251  15.628   8.914   1.676 -0.1617 -0.1119  0.0439
14404W        W31252   1.731   7.157   6.436  0.0042  0.2120 -0.3967
14405W        W31253  11.733   7.575   1.493 -0.1161  0.1053 -0.2299
14406W        W31254   8.730   4.367   4.409  0.2034 -0.0421 -0.1970
14407W        W31255  16.335   2.015   5.314 -0.2455 -0.5210  0.0396
14408W        W31256   2.585   0.047   3.060  0.1394  0.4727  0.3755
14409W        W31257   8.523   6.058  12.393  0.1112  0.3572  0.1370
14410W        W31258   5.350  15.374   4.934  0.0193 -0.0455  0.0704
14411W        W31259   5.805   4.760  15.939 -0.1510 -0.1901  0.2754
14412W        W31260  11.006   0.995   3.242  0.0880 -0.0727  0.0273
14413W        W31261  10.506   7.146   4.857  0.1577 -0.1554  0.1984
14414W        W31262   4.542  15.616   1.614  0.0085 -0.2042  0.0553
14415W        W31263  16.197   6.658  16.042  0.0068 -0.0722 -0.1425
14416W        W31264  12.706   4.895   4.929  0.2409 -0.0983 -0.0427
14417W        W31265   0.941   9.296  12.196 -0.0268  0.0219 -0.4178
14418W        W31266  17.827   2.027  14.568  0.2189  0.0295 -0.2646
14419W        W31267   5.869   7.304   1.981 -0.1116  0.0572  0.0646
14420W        W31268   7.809  15.463   6.009  0.0192  0.2858  0.0025
14421W        W31269  16.361  15.155  15.080  0.1094  0.2013 -0.2488
14422W        W31270   6.109  16.673   3.026 -0.0207 -0.1482 -0.2896
14423W        W31271  15.165   9.625  16.232 -0.4253  0.1736  0.0963
14424W        W31272  11.009   5.118   1.971  0.1079  0.0390  0.4321
14425W        W31273   0.389   0.236   3.291  0.4568  0.0782  0.3937
14426W        W31274   3.818   6.720   3.276  0.1888 -0.2714 -0.0928
14427W        W31275  11.382   2.301  13.987 -0.0641 -0.0019 -0.0298
14428W        W31276   3.554  17.066  10.448 -0.1227  0.0809 -0.1060
14429W        W31277   6.056  12.510   4.773 -0.1296 -0.0486  0.0340
14430W        W31278  10.138   6.504  14.158  0.3684 -0.0526  0.2548
14431W        W31279   0.621  13.565  14.785  0.2312 -0.1911  0.0820
14432W        W31280   1.291   3.496  13.316  0.0012 -0.1760  0.0705
14433W        W31281  11.713   1.111  14.413 -0.1514 -0.1816 -0.0142
14434W        W31282   8.848  10.934   2.574  0.2019  0.1090  0.4402
14435W        W31283  15.931   4.676  11.408  0.2588  0.1008  0.0905
14436W        W31284   2.592  10.846   4.989 -0.0594 -0.2127 -0.0769
14437W        W31285  11.902   8.778  10.963 -0.0143 -0.0306 -0.2141
14438W        W31286   8.850  15.408   0.477 -0.2312  0.1787 -0.0119
14439W        W31287  16.028  15.049   0.329 -0.3092 -0.1005 -0.0900
14440W        W31288  17.573   8.305  11.593 -0.2920 -0.0519  0.1163
14441W        W31289  18.032   0.603   2.629 -0.0270 -0.0032  0.3964
14442W        W31290  11.485   5.474   1.829  0.2433 -0.2777 -0.0340
14443W        W31291   5.730   6.269  16.025  0.0253 -0.0410 -0.2706
14444W        W31292  17.203   7.626   4.947 -0.0923  0.3778  0.2464
14445W        W31293  17.409   8.840   2.259 -0.3079  0.3388 -0.1889
14446W        W31294  10.435  16.992   2.140  0.1425  0.4623 -0.1609
14447W        W31295  16.611  10.850   0.778 -0.3766  0.0791  0.1438
14448W        W31296  10.356  11.651  16.158 -0.1870 -0.2784 -0.1231
14449W        W31297  16.707   4.014  15.997 -0.0365 -0.2015  0.0359
14450W        W31298  14.645  17.872  11.001 -0.0902 -0.0238 -0.2305
14451W        W31299   4.414   6.099  10.992 -0.2034  0.3552 -0.0724
14452W        W31300  13.030  15.615   4.696 -0.1220 -0.0199  0.0455
14453W        W31301  17.031   1.945  16.030  0.0108 -0.1377  0.2583
14454W        W31302  13.776   2.199  10.802  0.1298  0.1147 -0.1234
14455W        W31303   9.820  12.128   2.233 -0.3872 -0.2515  0.0308
14456W        W31304  10.898  12.824  14.483 -0.2089 -0.3136 -0.3791
14457W        W31305  17.990   0.262   3.485  0.0757 -0.0961 -0.0854
14458W        W31306   7.166  15.696  15.357 -0.0700 -0.0394  0.2528
14459W        W31307   6.674   1.632  14.837 -0.2990 -0.2227  0.0568
14460W        W31308   9.130   1.415   4.810  0.0626 -0.3727  0.0313
14461W        W31309   1.870   1.336  14.483 -0.3097 -0.0440 -0.0716
14462W        W31310   5.466   8.279  15.903 -0.1295 -0.0526  0.2991
14463W        W31311   3.042   8.215  13.787  0.0766 -0.0103  0.0767
14464W        W31312  13.476  14.234  13.949 -0.2389  0.1106  0.2670
14465W        W31313  13.245   2.809  11.546  0.2291 -0.1582  0.0439
14466W        W31314   3.007   0.639   3.600  0.0568 -0.0110  0.0294
14467W        W31315  13.881  14.640   2.077 -0.0421  0.1795  0.2224
14468W        W31316   6.700  10.070   0.638 -0.1077 -0.0380 -0.0335
14469W        W31317   6.346  17.176  15.118 -0.2900 -0.0237 -0.0018
14470W        W31318  17.009   8.052   1.635  0.3169 -0.1379  0.0836
14471W        W31319   3.687   4.686  15.900 -0.0850 -0.1799 -0.1429
14472W        W31320   1.046  17.253  15.114  0.0106  0.0757 -0.2028
14473W        W31321  12.464   3.893  10.685  0.0699 -0.0113 -0.2137
14474W        W31322  12.432   9.998  13.530  0.2434  0.1937 -0.0551
14475W        W31323   9.726  17.248  14.067  0.0581 -0.0591  0.1837
14476W        W31324  10.116  13.239   3.452 -0.1709  0.4459 -0.0161
14477W        W31325  13.167  11.152  14.657  0.0285 -0.0702 -0.2941
14478W        W31326   9.644  15.266   0.389  0.0685  0.1876  0.5358
14479W        W31327   6.207   3.555   4.570 -0.2580  0.1548  0.1683
14480W        W31328  11.873  11.085   2.097 -0.0969  0.1839 -0.1337
14481W        W31329   3.453   5.024  13.948  0.5153  0.1243  0.1669
14482W        W31330   1.587   0.345   4.982  0.2249  0.1110 -0.1692
14483W        W31331  10.608  14.920   0.696  0.0531  0.1404 -0.1582
14484W        W31332  17.121   8.703   0.984 -0.0561  0.1479  0.3112
14485W        W31333  12.755  10.487  12.811 -0.1698  0.1519 -0.0913
14486W        W31334  13.230  14.530  11.458  0.0449  0.2376  0.4032
14487W        W31335   0.167   1.843   0.736 -0.1616 -0.0453 -0.1436
14488W        W31336  17.646  14.970   2.249  0.2945  0.0740 -0.3024
14489W        W31337  16.971   4.820  13.346  0.0101 -0.0442  0.3667
14490W        W31338  11.683   7.438   3.721 -0.3533 -0.1972 -0.3185
14491W        W31339  10.173  11.514   4.143 -0.1989 -0.2143 -0.2553
14492W        W31340   8.223   2.608   0.624  0.0573  0.0998  0.2010
14493W        W31341  13.076   7.081  14.906  0.4683  0.0278 -0.0133
14494W        W31342   4.050  17.746  13.932  0.4193 -0.3147  0.1710
14495W        W31343  10.689   6.205   1.336  0.2185 -0.1675 -0.1568
14496W        W31344   2.721  10.575  16.266  0.0297  0.1543  0.2034
14497W        W31345  10.236  11.197   1.445  0.2741 -0.0886 -0.1874
14498W        W31346   2.549   6.265   3.897  0.1380  0.0432 -0.1578
14499W        W31347   4.166   6.732  12.457 -0.1639  0.1871  0.1309
14500W        W31348  11.455  14.145   3.498 -0.0538  0.1702 -0.1855
14501W        W31349  14.184  11.581  16.237 -0.2325 -0.0080 -0.1637
14502W        W31350   8.082   4.564  11.986  0.0557  0.4360 -0.0345
14503W        W31351  13.570   3.003  13.906 -0.2664  0.1475 -0.0789
14504W        W31352   2.227   0.383   3.720 -0.1191  0.0477  0.1405
14505W        W31353  17.546   4.192   1.961  0.0737 -0.2399  0.1365
14506W        W31354   6.183  15.294   5.030  0.4089 -0.1956  0.2998
14507W        W31355   3.507   0.639   2.061 -0.0150  0.0167 -0.1591
14508W        W31356  16.633   0.059  11.976 -0.3367  0.3619 -0.0272
14509W        W31357  17.134  13.290   3.315 -0.1133  0.0661  0.3796
14510W        W31358  15.428   7.423   2.607  0.2888 -0.0634 -0.0231
14511W        W31359   0.246   7.393  15.382  0.3714  0.0146  0.1465
14512W        W31360   7.428   4.147  14.306 -0.2526  0.1743  0.0527
14513W        W31361   4.110  16.095   5.067 -0.0896  0.4284  0.0324
14514W        W31362   6.646   3.139  12.534 -0.3097 -0.2134  0.0389
14515W        W31363   2.946  11.802  11.952  0.1712 -0.2649 -0.0185
14516W        W31364  11.003  10.367   0.861  0.0787  0.1243 -0.1550
14517W        W31365   1.205  15.929  14.698  0.0693 -0.0108 -0.0697
14518W        W31366   4.812  13.377   3.163  0.1971  0.0377  0.0655
14519W        W31367  12.722   3.631  15.152  0.1711 -0.0829  0.0641
14520W        W31368   6.382  11.832   1.106  0.2005 -0.0193  0.2557
14521W        W31369  16.074  10.478  14.881  0.1321  0.2229 -0.0467
14522W        W31370  12.421   8.775  11.873 -0.0087  0.0105  0.1854
14523W        W31371  10.033   0.630  13.007  0.1733  0.1547  0.1926
14524W        W31372   8.460  10.946  12.660  0.2326 -0.0970  0.1145
14525W        W31373  14.947  12.316   3.604 -0.2185  0.1698 -0.3100
14526W        W31374   9.888   2.616   4.372 -0.2015 -0.1233 -0.1148
14527W        W31375  12.814  16.092   3.602 -0.1122  0.0838 -0.0913
14528W        W31376   1.644   2.804  14.626 -0.1091  0.0455 -0.0586
14529W        W31377  11.759  16.164   0.810 -0.1360  0.0599  0.0839
14530W        W31378  15.235   5.517   4.232 -0.0413 -0.1036  0.1460
14531W        W31379   7.104   6.921  13.528  0.0363 -0.6154 -0.4253
14532W        W31380  13.043  14.111   0.516  0.0116  0.1563 -0.1478
14533W        W31381   6.711   1.122   1.553  0.2101  0.1080 -0.1088
14534W        W31382  13.032  17.619  12.035  0.4982 -0.1569 -0.2597
14535W        W31383   6.672   3.416  13.157 -0.3312  0.2134 -0.2354
14536W        W31384   4.782  16.806   5.228 -0.0162 -0.1154  0.1365
14537W        W31385  16.397   1.592   2.966  0.1215 -0.2367  0.2085
14538W        W31386   4.572   9.052  13.245 -0.1717  0.0733  0.2391
14539W        W31387  15.093   4.825  15.655  0.0599 -0.3876 -0.2951
14540W        W31388   6.724  14.267  15.640  0.0768 -0.1926 -0.0109
14541W        W31389   3.999   5.082   3.893  0.0340 -0.1279 -0.2550
14542W        W31390  11.321  16.898   4.306 -0.0054  0.1876  0.0829
14543W        W31391   8.873  16.947  14.675 -0.0046 -0.0693 -0.0767
14544W        W31392  11.558   1.891  11.197  0.0774 -0.0139  0.0848
14545W        W31393   9.218   3.337   0.532  0.0364 -0.0831  0.1072
14546W        W31394  15.575   4.734  15.466 -0.1938  0.1395  0.1726
14547W        W31395   7.166  14.394   0.624 -0.0315 -0.2965 -0.0039
14548W        W31396   4.292  15.538   4.806 -0.1495  0.2454 -0.1107
14549W        W31397  13.756   0.716   2.196  0.0077  0.0782  0.0690
14550W        W31398   0.321   9.496  10.855  0.0855 -0.0513  0.2330
14551W        W31399   6.462   5.344   3.564  0.1641 -0.1838  0.3325
14552W        W31400   2.619   4.851   1.668 -0.0423 -0.5105  0.0391
14553W        W31401   1.296   6.465  12.720 -0.0964  0.0269 -0.1261
14554W        W31402   9.315   6.316  11.764  0.2137 -0.2539 -0.0882
14555W        W31403  15.763   0.584   2.739  0.0703 -0.1862 -0.0819
14556W        W31404   1.218   0.179   4.669  0.0611  0.1208 -0.0618
14557W        W31405  10.261  17.077   5.123 -0.1563 -0.0171 -0.1769
14558W        W31406   2.942   6.264  10.524 -0.1299 -0.1837 -0.2526
14559W        W31407   2.329   0.079  14.821 -0.0469 -0.2568  0.0907
14560W        W31408   1.178   6.503  11.685  0.0560  0.2842  0.0220
14561W        W31409   3.896   2.838  11.249 -0.0815 -0.1266 -0.1456
14562W        W31410  10.280  17.962  11.486  0.1165  0.2766 -0.1171
14563W        W31411  14.716  13.195  16.262 -0.0603  0.0654  0.1218
14564W        W31412  10.429   2.851  15.466  0.1117  0.3403  0.0941
14565W        W31413  14.664  14.460  11.582  0.0847  0.0168 -0.1591
14566W        W31414   4.608   2.208   2.867 -0.1647  0.1712 -0.1949
14567W        W31415   8.350   3.676  13.430 -0.0155  0.0999  0.2321
14568W        W31416   9.473  11.090   2.550  0.1335 -0.1254 -0.1071
14569W        W31417  10.939  17.441  14.682 -0.1099  0.1264 -0.0461
14570W        W31418   1.732   6.390  13.995  0.1651 -0.4106  0.1473
14571W        W31419   7.237  15.319   1.379 -0.1017  0.1908 -0.5087
14572W        W31420  17.742   4.314   1.529  0.2582  0.3369  0.1382
14573W        W31421  16.176   7.151   1.595  0.2581  0.2348  0.1812
14574W        W31422   3.597   1.429  14.463  0.3204 -0.2103  0.0665
14575W        W31423  13.965   4.598   3.546 -0.0450  0.1282  0.1439
14576W        W31424  18.023  16.106  16.281 -0.0264  0.0921 -0.0220
14577W        W31425   3.921   3.162  13.609 -0.0983  0.3008  0.0578
14578W        W31426  10.484  13.707  15.608  0.4813 -0.0143  0.2720
14579W        W31427   9.935   3.686   2.404 -0.1753 -0.3038 -0.4942
14580W        W31428   0.704   9.269   1.986 -0.2458  0.3203  0.0277
14581W        W31429   2.799   9.283  15.250 -0.1367 -0.2347  0.0493
14582W        W31430  10.135  17.294   0.795 -0.3766 -0.0104  0.1254
14583W        W31431   0.495  15.986   4.943 -0.0152 -0.1458  0.1050
14584W        W31432  15.258  15.557   2.702 -0.2159  0.0262 -0.0921
14585W        W31433  12.194   4.317  10.423 -0.2518  0.0689  0.0905
14586W        W31434  17.855   6.324  12.949  0.1765 -0.2624  0.1146
14587W        W31435   3.516  13.190  15.198  0.2888  0.0510  0.0783
14588W        W31436   4.409   5.764  15.155  0.1278 -0.3201 -0.0846
14589W        W31437   3.740   9.417  14.068 -0.0118 -0.1118  0.1058
14590W        W31438   9.186  13.907   3.870 -0.0491  0.0511  0.0796
14591W        W31439   0.072  16.145   3.048 -0.1653  0.1995  0.1665
14592W        W31440   2.229   4.356  15.459 -0.4334 -0.0044 -0.0867
14593W        W31441   5.078  10.711   2.596 -0.1222 -0.0294  0.2593
14594W        W31442   9.789  11.244  12.186 -0.1526 -0.2165  0.0904
14595W        W31443  15.006  15.364  12.718 -0.2016 -0.0044 -0.1411
14596W        W31444   9.841   1.148  12.980  0.1819 -0.1999 -0.0168
14597W        W31445  11.488   4.476   0.106  0.1176 -0.2130  0.2237
14598W        W31446   2.707  13.453   0.930  0.2358  0.0662 -0.1442
14599W        W31447  14.632  12.998  13.568  0.0340  0.0663  0.1601
14600W        W31448   3.312   7.008   4.582  0.1493 -0.3035 -0.0093
14601W        W31449   9.271   2.907  14.898  0.1509 -0.0831  0.2216
14602W        W31450   7.481   3.609  15.191  0.0127  0.1264 -0.0148
14603W        W31451  12.999  12.209  13.271  0.2060 -0.2802 -0.1418
14604W        W31452   9.957   7.169  13.951  0.0813  0.1510  0.1084
14605W        W31453  16.309  17.515  14.312  0.0655  0.1363 -0.2149
14606W        W31454  16.251  10.408   0.087  0.0245 -0.4697  0.1147
14607W        W31455  13.548   7.890   6.045 -0.0699 -0.0650 -0.1842
14608W        W31456   2.067  12.276  14.750  0.1581  0.0832 -0.3511
14609W        W31457   4.317  13.961   1.402 -0.1000  0.3342 -0.0566
14610W        W31458  12.878   8.421  13.018  0.1757  0.0618  0.0611
14611W        W31459   6.047   3.713   0.055  0.1213 -0.1862  0.2651
14612W        W31460   3.044   8.396   5.124  0.4990  0.3510  0.0614
14613W        W31461   7.795   5.798   2.804 -0.2027  0.1893  0.3969
14614W        W31462   5.663  11.350  13.452  0.2931 -0.0878  0.2211
14615W        W31463  15.886  13.910  12.621  0.3105 -0.0561 -0.0803
14616W        W31464   8.102   3.230   2.439 -0.1057 -0.0314  0.0914
14617W        W31465  11.359   5.098  15.804  0.0369  0.2619 -0.0417
14618W        W31466  12.638  14.571   3.166  0.1647  0.0126 -0.3951
14619W        W31467   6.126  12.745  15.662  0.2664  0.2688  0.1777
14620W        W31468  13.726   6.365   2.907  0.5736 -0.0871  0.1640
14621W        W31469  13.551  11.732   5.083 -0.0204  0.1787 -0.0036
14622W        W31470   7.622   6.189   3.027 -0.0816  0.0175 -0.3198
14623W        W31471   7.908   7.509   4.311  0.1587  0.0592 -0.0171
14624W        W31472   4.996   8.872   4.638  0.1828  0.4664  0.0968
14625W        W31473   8.023  14.238   4.791 -0.1788 -0.0437 -0.0968
14626W        W31474   7.013   8.208   4.218  0.0726 -0.2901  0.0212
14627W        W31475   6.159   3.719  15.626  0.1093 -0.0017  0.1413
14628W        W31476  17.523  17.763  13.651  0.3290 -0.1262 -0.0303
14629W        W31477   8.339   3.244  14.304  0.3160  0.1874 -0.0157
14630W        W31478   6.464  14.276  13.957  0.1038 -0.1127 -0.0159
14631W        W31479   8.898  16.083   0.849  0.0940  0.0008  0.2187
14632W        W31480  12.022  17.110  14.856 -0.2215 -0.0186 -0.2232
14633W        W31481  13.189  13.874  13.720  0.0594 -0.1803 -0.2646
14634W        W31482   4.709   2.909  14.162  0.0839  0.1497  0.3457
14635W        W31483   9.661  16.927  15.040 -0.1552 -0.1093 -0.0376
14636W        W31484  10.392  11.947  12.334  0.1248 -0.1900  0.0902
14637W        W31485  16.010  10.102   2.378 -0.0790  0.3082 -0.1827
14638W        W31486   9.594   1.413   4.007  0.0849 -0.0723  0.1416
14639W        W31487   1.749   9.954  15.853  0.0672 -0.1962 -0.0842
14640W        W31488   6.871   4.638   3.631  0.0457 -0.0450  0.2408
14641W        W31489   4.625   7.571  12.319  0.1531 -0.2037 -0.1579
14642W        W31490  17.916   0.206  14.893  0.3534 -0.1013 -0.0026
14643W        W31491  10.681   6.787   3.367 -0.0077 -0.2374  0.0349
14644W        W31492   9.247  14.720  14.849 -0.3248 -0.0444 -0.2423
14645W        W31493  17.920   0.884   2.235  0.0744  0.0175 -0.0298
14646W        W31494  17.979  15.426   2.359 -0.1523 -0.3393  0.2636
14647W        W31495  17.210   4.481   1.636  0.1309  0.1464  0.0960
14648W        W31496   6.526   4.048  13.838 -0.1091 -0.0672  0.0932
14649W        W31497   8.819   7.853  14.338 -0.2755  0.0234  0.0825
14650W        W31498   1.665  10.884   0.843  0.0278  0.1250 -0.1481
14651W        W31499  15.544  16.108   4.226  0.0574  0.1639  0.4692
14652W        W31500   1.598   1.873  15.751  0.3320 -0.1232 -0.0448
14653W        W31501   4.191   2.213   4.154 -0.3206 -0.1094  0.0357
14654W        W31502   8.713   8.371   4.657  0.1459  0.0271 -0.4304
14655W        W31503  16.448   0.819  13.821  0.0697 -0.1032 -0.2211
14656W        W31504   3.302   1.979   3.460  0.2100  0.1632 -0.3686
14657W        W31505   5.507   7.278  15.745  0.3018 -0.1786 -0.0183
14658W        W31506   5.393   3.941   3.106 -0.0140 -0.1188  0.0588
14659W        W31507  10.879  16.037  14.096  0.0912 -0.0368  0.2223
14660W        W31508   8.017  10.171  11.308 -0.1011  0.0991  0.0685
14661W        W31509  11.315   3.714   3.420  0.0951  0.0605  0.3601
14662W        W31510  12.097  10.306   2.622  0.1034  0.1252  0.0085
14663W        W31511   2.049   2.142  14.999  0.3668  0.0678  0.0327
14664W        W31512  12.828   9.491  14.673  0.1947 -0.1054  0.0919
14665W        W31513  12.609   9.613  11.685 -0.0605 -0.0960  0.0539
14666W        W31514   2.664  14.329   1.828  0.1999  0.1433  0.3145
14667W        W31515  12.168   6.712  16.005 -0.0184 -0.1125  0.1469
14668W        W31516  11.645   0.138  11.143 -0.0019 -0.0448  0.0644
14669W        W31517   9.795  12.329   0.783  0.1452  0.2523 -0.2525
14670W        W31518   1.673  15.805  13.875  0.1277 -0.0302  0.2029
14671W        W31519  17.336   1.244  13.568 -0.1789  0.2138  0.0497
14672W        W31520   0.972   7.042  12.692 -0.0598 -0.1303 -0.1858
14673W        W31521   2.604   3.908   4.118  0.0436  0.2597  0.1681
14674W        W31522   7.473   6.986  16.183 -0.1017  0.2456  0.0553
14675W        W31523   9.457   2.578   0.178  0.0419  0.1218 -0.1765
14676W        W31524  17.255  17.224  11.802 -0.2908  0.0665 -0.0139
14677W        W31525  18.085  11.673   1.638 -0.0280 -0.0026  0.3247
14678W        W31526  10.361   4.138  11.840 -0.0141 -0.0248  0.0681
14679W        W31527  15.157  17.189  15.163 -0.1169 -0.1129  0.0815
14680W        W31528   2.484   1.568   2.565  0.0732 -0.0121  0.0664
14681W        W31529  13.384   1.058  11.140 -0.3458  0.3614 -0.1727
14682W        W31530  17.773  12.713  15.506  0.1399 -0.0514  0.0694
14683W        W31531  13.079   1.263  10.783 -0.1298  0.0003  0.1556
14684W        W31532   0.647   2.575  11.251 -0.2707  0.0213 -0.1512
14685W        W31533  13.785  17.418  11.360  0.0658  0.1434 -0.0555
14686W        W31534   1.495   4.473   3.151 -0.0446 -0.0797  0.1965
14687W        W31535  12.776  14.316  15.948  0.0318  0.1370 -0.0139
14688W        W31536  11.828  14.488   3.586  0.1155 -0.1914 -0.2707
14689W        W31537   6.691   9.560   2.046 -0.0648  0.2453 -0.2554
14690W        W31538  11.795   5.124   1.248 -0.1836 -0.3339 -0.0483
14691W        W31539  14.410  16.092   4.633  0.0889  0.0194 -0.2731
14692W        W31540   1.943  10.471   2.205 -0.4647  0.1641  0.0840
14693W        W31541   9.565  13.322   5.278  0.0848  0.2612  0.0548
14694W        W31542   7.226  13.125   0.539  0.0642  0.2305  0.0781
14695W        W31543   5.406   5.073   2.326 -0.3105 -0.1000 -0.0755
14696W        W31544   4.528  12.092  13.729  0.1079 -0.0050  0.0252
14697W        W31545  10.806   7.253   3.583 -0.0673 -0.1690 -0.0052
14698W        W31546   6.145  13.139   4.095 -0.2605 -0.1177  0.0208
14699W        W31547  13.293  15.697  11.996  0.1087  0.4470  0.0193
14700W        W31548  14.492  12.674  12.018 -0.2013  0.1399  0.3690
14701W        W31549   5.390   8.873   1.630 -0.1579  0.0778 -0.0410
14702W        W31550  10.564   8.093  11.864 -0.3072 -0.0371 -0.0058
14703W        W31551  15.298   3.364   2.081 -0.3232 -0.0833 -0.0541
14704W        W31552  16.751   5.326  14.031  0.2329  0.0477  0.1049
14705W        W31553  10.226   0.383  13.570  0.1433  0.1961  0.3808
14706W        W31554   8.934  15.561   5.010 -0.1453 -0.1030 -0.1980
14707W        W31555   9.861   5.800   0.297  0.2523  0.1601  0.0785
14708W        W31556   0.164  10.555   4.466  0.0695  0.2762  0.1012
14709W        W31557   0.545  14.346   3.283 -0.3451  0.1110  0.0704
14710W        W31558   8.469   4.515  15.003 -0.0189 -0.1468  0.3066
14711W        W31559  11.930   6.891  12.044  0.0089 -0.3471 -0.5339
14712W        W31560   7.613   9.033   2.116 -0.0067  0.0583  0.0671
14713W        W31561  11.745   1.846  11.768  0.2867  0.4237 -0.2368
14714W        W31562   8.518   5.694  14.598 -0.0814 -0.1685  0.0108
14715W        W31563   7.667  16.539   4.586 -0.2269 -0.0008  0.1139
14716W        W31564  14.534   7.521  14.639  0.0747 -0.0519 -0.0816
14717W        W31565  17.070   8.129  11.439  0.1048 -0.2701  0.0271
14718W        W31566   4.522  14.895  11.964  0.0988  0.0165 -0.0658
14719W        W31567  11.302   3.056  13.654 -0.0664  0.1749 -0.0295
14720W        W31568   3.099  15.309  15.218  0.0647 -0.0284  0.1286
14721W        W31569   1.605   5.046   4.015 -0.2830 -0.1373 -0.1254
14722W        W31570  17.787  16.797  15.830 -0.1336 -0.0432  0.1018
14723W        W31571   5.838   6.338   1.692  0.2079 -0.0723 -0.0996
14724W        W31572  16.892   7.719   4.236 -0.0444 -0.0392  0.0080
14725W        W31573   6.234  13.398   5.248 -0.2550  0.1387 -0.0042
14726W        W31574  16.816  16.440  14.416  0.1053 -0.0130 -0.1512
14727W        W31575   9.546  15.084   4.890  0.1097 -0.1071  0.0341
14728W        W31576   5.978  16.824  15.181  0.0477 -0.1619 -0.1145
14729W        W31577   2.664   5.573  11.658 -0.3678 -0.0492  0.0571
14730W        W31578   0.403   3.354   4.634  0.0928 -0.0213 -0.1021
14731W        W31579  12.247   1.583  15.174 -0.0112 -0.0179 -0.4291
14732W        W31580   0.432  13.554  12.996 -0.1534 -0.2944  0.0020
14733W        W31581   7.294  16.687   4.897 -0.0022 -0.2753 -0.3110
14734W        W31582   8.518   6.633  14.588  0.0592  0.0570  0.1234
14735W        W31583  13.763   6.219   1.294  0.2211  0.4972  0.0597
14736W        W31584   1.428  16.111  13.534 -0.3020 -0.2572 -0.1939
14737W        W31585   2.791   6.792   0.718  0.0435 -0.1337  0.2573
14738W        W31586   9.077  11.095   3.771  0.0790  0.0098  0.0939
14739W        W31587   6.253  16.129  15.698  0.0825  0.0233 -0.0237
14740W        W31588   2.874  12.909  12.514 -0.0038  0.1055  0.1744
14741W        W31589   3.498   5.552   2.986 -0.2515  0.0884  0.0843
14742W        W31590   6.733  15.360  12.993  0.0533 -0.2222 -0.2154
14743W        W31591   9.748   7.933  10.598 -0.0282 -0.0171 -0.1027
14744W        W31592  14.181   6.609  14.649  0.0780 -0.0221  0.1530
14745W        W31593   6.124   6.644  16.239  0.2123  0.1282 -0.1246
14746W        W31594  16.884   4.344   0.847 -0.1073 -0.0586  0.1406
14747W        W31595   7.259  13.285   2.924 -0.1105  0.1484 -0.1564
14748W        W31596   9.372   3.643  10.899  0.2128  0.1050 -0.0066
14749W        W31597  13.697   1.114   5.000 -0.2332  0.0681 -0.0533
14750W        W31598  10.334  16.056   3.163  0.1181 -0.0985  0.0223
14751W        W31599   5.733   8.501  15.510 -0.1717  0.0854 -0.1326
14752W        W31600   4.243  11.582   1.378 -0.1598  0.0623  0.1743
14753W        W31601  12.459   3.882  13.643 -0.0026 -0.0009 -0.3224
14754W        W31602   6.935  13.453   0.822 -0.4728  0.0935  0.0708
14755W        W31603  17.794  10.217  12.646  0.2602  0.2289 -0.1142
14756W        W31604  14.374  12.383  10.509 -0.0594  0.1731  0.1414
14757W        W31605   4.705  14.912   1.121  0.0616  0.0379  0.0176
14758W        W31606   2.301  15.550  15.003  0.0974 -0.1652 -0.0151
14759W        W31607  17.879  14.110  15.285 -0.1525  0.1040  0.0929
14760W        W31608   5.839   5.180   1.394 -0.0278 -0.2374  0.1076
14761W        W31609  14.353  11.401  12.138  0.0943  0.3031 -0.1330
14762W        W31610  12.714   3.660  12.365 -0.3075  0.1698  0.1189
14763W        W31611   4.318  12.933  11.982  0.0613 -0.0944 -0.1390
14764W        W31612   5.636   7.651   9.842 -0.0234  0.0126 -0.2094
14765W        W31613   7.201   9.376   4.267  0.2423  0.0848 -0.0045
14766W        W31614  12.099  10.237   2.050 -0.0276 -0.0824 -0.0653
14767W        W31615   2.755   5.042  11.295 -0.2093  0.2090 -0.3256
14768W        W31616  15.004   3.985   4.740 -0.1439  0.2949 -0.0066
14769W        W31617  10.415   5.464  12.664  0.0942  0.1336 -0.1031
14770W        W31618  14.936  17.460   3.317  0.0638 -0.0476 -0.0365
14771W        W31619   4.034   7.291  11.581  0.3155  0.2114  0.2808
14772W        W31620  12.753   3.384  15.938 -0.1563  0.0199  0.0517
14773W        W31621   7.525  10.463  11.608 -0.2063  0.1227 -0.1301
14774W        W31622  14.610  15.085  16.106 -0.0559 -0.5055  0.1583
14775W        W31623   1.304  16.554   5.162  0.3173 -0.0913 -0.3984
14776W        W31624   4.804   8.426   4.947 -0.0561 -0.0431  0.4359
14777W        W31625  16.278   9.605   3.945 -0.1815 -0.0495 -0.0693
14778W        W31626  13.995  12.917   6.115  0.0638  0.0699  0.0643
14779W        W31627   3.352  11.148   4.047 -0.2095 -0.0034  0.0565
14780W        W31628   2.722   7.974  12.928 -0.0007 -0.1243 -0.2349
14781W        W31629   9.966   5.838   0.887 -0.0868 -0.0879 -0.0810
14782W        W31630   1.404   3.621  11.427 -0.1598  0.1711 -0.1469
14783W        W31631   2.036  16.109   2.458 -0.0397  0.0827 -0.0106
14784W        W31632  17.564   3.538   4.895  0.2813  0.2115  0.1519
14785W        W31633   0.252   3.861   4.650  0.1505  0.1025 -0.0679
14786W        W31634   8.612   2.176   4.619  0.0317  0.2509 -0.0388
14787W        W31635   5.908  11.321   0.025 -0.2134 -0.0054  0.1517
14788W        W31636   8.380  17.602   3.934 -0.0911  0.1132  0.1391
14789W        W31637  14.697  11.679  16.042  0.0214 -0.1876  0.1569
14790W        W31638  15.642  14.370   3.674 -0.1102 -0.1367  0.2581
14791W        W31639  10.153   4.483   1.146  0.0830  0.0729  0.1399
14792W        W31640  12.982   9.254   2.845  0.2170  0.0089 -0.0590
14793W        W31641   3.226   9.438   1.964 -0.3144  0.0150  0.1718
14794W        W31642  12.141   8.088  15.123 -0.2638  0.2529 -0.2518
14795W        W31643   9.854   3.216  15.674 -0.1774  0.0503 -0.0896
14796W        W31644  11.578   4.905  12.775 -0.1681  0.0088 -0.0807
14797W        W31645  13.511  11.183   4.618  0.0277  0.0322 -0.0201
14798W        W31646   0.318   8.259   1.546 -0.0252  0.1042 -0.0163
14799W        W31647   5.888  12.924  14.978  0.3369 -0.1474  0.0843
14800W        W31648  16.046   1.342  13.132  0.1215  0.0928 -0.2040
14801W        W31649  10.093   8.819   2.050  0.1409  0.4875  0.1801
14802W        W31650  17.875   4.530  12.901 -0.0596  0.0741 -0.1995
14803W        W31651  12.509   1.448  14.046 -0.0406  0.0023  0.1141
14804W        W31652  13.737   3.218  14.347 -0.0106  0.0556  0.0687
14805W        W31653   4.054  11.821  11.987  0.0283 -0.0752  0.1331
14806W        W31654   7.937  12.456   4.450 -0.2105  0.0108 -0.1137
14807W        W31655  11.963   7.701   2.876  0.2749 -0.0422 -0.1492
14808W        W31656  16.596  17.629   4.808 -0.0130  0.0914  0.1143
14809W        W31657   5.859   2.969   1.693 -0.3889  0.2778  0.1104
14810W        W31658   1.118  12.835   2.585 -0.2287  0.1197 -0.3385
14811W        W31659   1.817  14.104  15.474 -0.3992 -0.0510  0.1965
14812W        W31660   8.439   7.240  15.843  0.2219  0.2108  0.1549
14813W        W31661  14.195  13.678   2.555  0.0360 -0.1366 -0.1806
14814W        W31662  14.733   0.857   3.077  0.2115  0.0570  0.0391
14815W        W31663   0.198   1.770  16.101  0.1817 -0.0118 -0.0179
14816W        W31664   2.496   5.360  14.703 -0.0010  0.1321  0.1381
14817W        W31665   0.296  11.983  15.522 -0.1057 -0.0221 -0.1725
14818W        W31666  17.707  17.937   3.370 -0.0889  0.0085  0.0086
14819W        W31667  16.933   7.288  11.883  0.0720  0.1917  0.0844
14820W        W31668   5.043  13.603  11.479  0.0317  0.0276  0.1310
14821W        W31669  18.035   2.837  13.125 -0.0533 -0.1401 -0.0534
14822W        W31670   1.846  16.295  15.787  0.0365  0.2387 -0.1674
14823W        W31671  14.243  11.698   1.066  0.4421 -0.1482  0.1541
14824W        W31672  12.079   0.942  12.515 -0.1388  0.0923  0.0787
14825W        W31673  17.606   3.766   4.447  0.0791 -0.1105 -0.1399
14826W        W31674   4.006   9.503   4.816  0.2472 -0.1177  0.1617
14827W        W31675  17.885   1.087   2.836  0.0817  0.1718 -0.0765
14828W        W31676   9.922  14.421  15.193  0.0720  0.1526 -0.1234
14829W        W31677  12.087   4.578  14.681 -0.1042 -0.2532  0.0016
14830W        W31678   4.160  13.469  12.027 -0.0383 -0.2533  0.0559
14831W        W31679  13.512  11.166   5.152  0.1577  0.2601 -0.0858
14832W        W31680  16.414   0.538  14.768 -0.1502  0.2514  0.0780
14833W        W31681   5.551   7.024   1.029 -0.0764 -0.1803  0.0238
14834W        W31682   0.897  16.882   1.884 -0.0761  0.0710  0.0527
14835W        W31683  17.177  10.227   2.947  0.1571 -0.1017  0.2029
14836W        W31684   0.020  15.625   0.558 -0.1849  0.0284  0.1998
14837W        W31685   7.962  12.797  11.925 -0.1378  0.1206 -0.1762
14838W        W31686   8.193   0.651   2.436 -0.0667  0.2369 -0.1673
14839W        W31687   3.792  13.055  14.745  0.0625  0.1155 -0.2104
14840W        W31688   0.804  17.062   2.358 -0.0334  0.1296  0.2013
14841W        W31689   9.809   6.090  15.121 -0.2106 -0.0273 -0.0779
14842W        W31690   9.093   3.923   4.823  0.1554  0.2012 -0.3828
14843W        W31691   7.845  11.527   5.037  0.1689 -0.1161 -0.1496
14844W        W31692  15.956   2.453   2.718  0.1647 -0.0380  0.0157
14845W        W31693   4.974  11.154  11.026 -0.0826  0.1241  0.2441
14846W        W31694  13.270   8.123   0.307  0.4188  0.3704 -0.1874
14847W        W31695  11.467   0.001   3.963 -0.0291 -0.1580  0.0606
14848W        W31696   5.006  16.633  11.604  0.0764 -0.0608 -0.1161
14849W        W31697   3.433  11.068   3.363 -0.2179  0.0805  0.1836
14850W        W31698  15.642   1.675   4.814  0.1451  0.0178  0.0254
14851W        W31699   9.449  12.654  10.331 -0.1210  0.0336  0.1166
14852W        W31700  12.715  15.128  10.960  0.1850  0.0829  0.0645
14853W        W31701   0.030   9.940  15.167  0.1041 -0.1638  0.1025
14854W        W31702   9.018  15.213   3.066  0.1252 -0.3824  0.0296
14855W        W31703  15.510   4.453  12.127 -0.0343  0.3144  0.2724
14856W        W31704   8.314   9.104  14.347 -0.1936  0.1047 -0.0661
14857W        W31705   6.588   0.635   1.586 -0.1334  0.2182 -0.0198
14858W        W31706  15.083   8.895  14.974 -0.3785 -0.0718  0.1635
14859W        W31707   9.948   2.805  15.323  0.1781  0.2622  0.0684
14860W        W31708   3.055  15.538  12.060 -0.1482 -0.3642  0.2262
14861W        W31709   7.708   7.347   3.801  0.3001 -0.5420  0.0113
14862W        W31710  14.689  15.802  12.534  0.1893  0.1358 -0.0703
14863W        W31711   6.146   6.130  14.484  0.0544 -0.2683  0.1134
14864W        W31712   9.892  10.992   4.434  0.1411 -0.0776  0.1211
14865W        W31713   9.260  14.143   3.413  0.3124  0.0645 -0.0560
14866W        W31714  14.883  16.690   2.969  0.0741  0.0436 -0.2189
14867W        W31715  16.581  15.510   2.821  0.1064 -0.1765  0.2812
14868W        W31716  10.487   0.801   0.268 -0.0429  0.0245 -0.0955
14869W        W31717   6.580  15.028  11.889  0.0521  0.1826 -0.1443
14870W        W31718  13.322   3.651   0.174 -0.0034 -0.1781 -0.0905
14871W        W31719   4.149  10.599  12.684 -0.4772  0.0147 -0.1760
14872W        W31720   8.135  11.259   0.821 -0.1754  0.1797 -0.0128
14873W        W31721   1.424  16.254  16.070  0.4630 -0.1300 -0.1302
14874W        W31722   8.007  11.962  11.591 -0.2404  0.1224  0.1435
14875W        W31723  14.394   3.941   3.264  0.0486 -0.0862  0.0984
14876W        W31724  12.612  16.092   4.407 -0.2262  0.1028 -0.2872
14877W        W31725   2.860   3.560  13.089 -0.0658  0.0714  0.3882
14878W        W31726   2.003   9.827  14.988  0.0049  0.2477  0.1958
14879W        W31727   4.952   1.257  16.147 -0.2495  0.2426 -0.0826
14880W        W31728   7.918  14.525  14.791 -0.1755  0.0791  0.1077
14881W        W31729   9.293  16.097   6.233  0.1806 -0.0249 -0.0072
14882W        W31730   2.922   6.496   0.247 -0.0236  0.0122  0.3727
14883W        W31731   9.337   8.426   3.255 -0.0303  0.0071 -0.1132
14884W        W31732   6.553   7.964  12.907  0.0230  0.1326  0.0045
14885W        W31733   2.367   3.127  11.710 -0.4234 -0.2851 -0.1091
14886W        W31734   7.307   8.738   0.941  0.3166  0.1737 -0.4760
14887W        W31735  16.135  15.930  14.596 -0.0884  0.4821  0.2850
14888W        W31736   0.715  11.421   0.899  0.1408  0.0650  0.1139
14889W        W31737  10.798   7.817   3.403  0.0925  0.4509 -0.0858
14890W        W31738   2.564  10.126   1.714 -0.1593  0.4550 -0.1542
14891W        W31739  16.839  16.673   3.691 -0.0796  0.3805 -0.0724
14892W        W31740  13.557   0.990  14.249  0.0744  0.0558  0.1142
14893W        W31741   4.151  10.127  10.932 -0.0407 -0.1772 -0.0148
14894W        W31742  13.560   9.958   0.727 -0.2857  0.0657 -0.1359
14895W        W31743   0.032  10.826   4.029  0.0541  0.1646  0.0178
14896W        W31744   7.129   3.578   2.613 -0.1159  0.3978  0.1938
14897W        W31745  11.658   4.806  16.117 -0.1667  0.3720  0.3510
14898W        W31746  11.657  12.311  14.276 -0.1902  0.0088 -0.2316
14899W        W31747   0.297  12.750   2.447 -0.1174 -0.0813 -0.0903
14900W        W31748   9.255  15.817  11.757  0.0228  0.2039 -0.0386
14901W        W31749   3.268   2.833  11.898 -0.0374  0.1359  0.1618
14902W        W31750  17.612   5.164  13.829  0.0579  0.0679  0.3645
14903W        W31751  16.083   5.710   2.609 -0.0476  0.2017 -0.2794
14904W        W31752   5.175   1.590  13.362  0.4554 -0.1611  0.1528
14905W        W31753   5.061   5.289  12.992 -0.0891 -0.1155  0.1902
14906W        W31754   7.357  11.765  14.796  0.0345  0.3796  0.3736
14907W        W31755  11.630  17.790  14.255 -0.0251  0.1156 -0.1611
14908W        W31756  15.975  16.818   2.071  0.0820  0.0719 -0.1390
14909W        W31757   6.398  14.195   0.719 -0.0481  0.0913 -0.2357
14910W        W31758  16.962  14.823  16.236  0.2952 -0.0405  0.1030
14911W        W31759   0.937  10.916   4.052  0.3611  0.0448 -0.1559
14912W        W31760   6.232   7.652   3.407  0.1209  0.0584 -0.1115
14913W        W31761   9.202   5.336   0.420  0.2356  0.3184  0.2398
14914W        W31762  13.833   2.473   2.473 -0.2105  0.2544  0.3675
14915W        W31763   2.088   5.205   2.637 -0.0059  0.0385 -0.0089
14916W        W31764  10.497  13.613   2.494 -0.2454  0.1873  0.1886
14917W        W31765  11.565  12.594   3.428  0.2750 -0.1808 -0.3082
14918W        W31766   0.596  14.209  12.148  0.0455  0.3343 -0.2727
14919W        W31767   9.322   9.887  13.732  0.1841 -0.1250  0.0632
14920W        W31768  17.040   2.656   1.660  0.0678 -0.1639  0.0840
14921W        W31769   7.033   8.380   5.092 -0.0306  0.1175  0.0664
14922W        W31770   9.106   1.523   1.894  0.0156 -0.0402  0.1113
14923W        W31771   4.530  15.803  13.477  0.1061  0.0472 -0.0443
14924W        W31772   8.053   5.775   2.321 -0.1263 -0.3453 -0.0191
14925W        W31773   0.786  12.401   1.485  0.1418 -0.0172  0.0109
14926W        W31774  17.020  15.594  15.359  0.1188  0.0314 -0.1355
14927W        W31775  13.439   3.951   0.564  0.1369 -0.0453  0.0580
14928W        W31776   9.208   7.234   2.909 -0.2239 -0.1248  0.0915
14929W        W31777   4.694  17.377  14.976 -0.1223 -0.1042 -0.5656
14930W        W31778   8.517  12.914  13.636  0.1109 -0.2303  0.2243
14931W        W31779  15.047   8.366   1.879  0.1674 -0.0481  0.3456
14932W        W31780  16.405   2.634   2.960  0.4224  0.1617 -0.3262
14933W        W31781  10.646  14.009   2.221  0.0658 -0.2874 -0.0163
14934W        W31782  11.671   8.479  15.267 -0.1974  0.1056  0.0941
14935W        W31783  15.892   1.986   3.051 -0.0364 -0.0450  0.1168
14936W        W31784   7.750  15.373   1.339  0.0763 -0.2214  0.1956
14937W        W31785   7.015   2.053   1.612  0.1053 -0.2496 -0.1655
14938W        W31786   9.597  12.834   2.010 -0.2060  0.0428  0.1945
14939W        W31787  10.664  16.858   5.256  0.0912  0.0282  0.0748
14940W        W31788  11.883  14.443  10.194  0.0345 -0.2887 -0.0213
14941W        W31789  13.817   9.404   0.284  0.0251  0.0833  0.1534
14942W        W31790   5.117   0.958   2.486  0.1758 -0.0828 -0.1358
14943W        W31791  17.945   2.004  12.061  0.1738  0.2079  0.1114
14944W        W31792  13.279  11.812   0.792  0.0565 -0.1173  0.0914
14945W        W31793   7.615   2.422   4.482 -0.1680 -0.1735  0.2689
14946W        W31794  17.659  14.267   2.043 -0.2526  0.0371 -0.1261
14947W        W31795   6.355   1.822   0.227 -0.2644 -0.0173 -0.4798
14948W        W31796  14.535  16.593  12.188  0.0385  0.2067 -0.0045
14949W        W31797  17.021   0.068   1.377 -0.1469 -0.1817  0.1065
14950W        W31798  17.005   6.225  12.660  0.3272  0.0979 -0.1888
14951W        W31799   1.908  15.359   2.113  0.0926  0.0255 -0.4086
14952W        W31800  13.893  10.136  15.813 -0.0042  0.1385 -0.2904
14953W        W31801   1.071   9.178   2.349 -0.0701  0.0035  0.0777
14954W        W31802  10.234   6.520  12.376  0.0551  0.2680  0.2770
14955W        W31803  10.474  16.483   1.070  0.0411  0.2691  0.2604
14956W        W31804  15.181  17.050   3.142  0.1248  0.2236  0.0969
14957W        W31805   1.632   6.304  15.982  0.1710 -0.0432  0.2032
14958W        W31806   6.705   6.253   4.721 -0.2147  0.0808  0.5592
14959W        W31807  12.490  15.753   4.069  0.0070 -0.0993  0.0386
14960W        W31808  13.050   9.468   4.273 -0.3483 -0.2068 -0.0455
14961W        W31809   8.844  14.153  14.113  0.0818 -0.1143 -0.1836
14962W        W31810   8.709  15.175   4.816 -0.3227 -0.1243  0.0591
14963W        W31811   7.903   1.495  15.107 -0.0671  0.1267  0.0423
14964W        W31812   7.158   5.624  13.042 -0.0817  0.0810 -0.0303
14965W        W31813   1.082   7.100   3.033  0.1631  0.0718 -0.1430
14966W        W31814   6.420  10.853  11.026 -0.0362 -0.3243  0.1393
14967W        W31815   7.443   1.467   2.868 -0.4816 -0.3971  0.0100
14968W        W31816  17.555   0.160   0.680 -0.0669 -0.2254 -0.4340
14969W        W31817  10.901   5.832   4.010  0.1032  0.1150 -0.0656
14970W        W31818  11.894   5.280   3.978 -0.0421  0.1876 -0.0272
14971W        W31819  10.480  17.452   1.077 -0.1537 -0.1517 -0.1619
14972W        W31820   8.410   4.970  13.344 -0.0144  0.1353 -0.1179
14973W        W31821   7.372   0.148  11.864 -0.1142  0.0691  0.1001
14974W        W31822   9.641  14.605  12.820 -0.0403  0.0327 -0.2133
14975W        W31823   1.028   3.687   1.324 -0.0679 -0.1505  0.1712
14976W        W31824  17.361   2.498  13.814  0.0917  0.1229  0.1630
14977W        W31825   7.386   9.865  14.793 -0.0221 -0.0327 -0.4358
14978W        W31826   5.410   4.887  15.652 -0.0667  0.2110  0.2845
14979W        W31827   4.261  10.514   5.077  0.2520 -0.0768 -0.3241
14980W        W31828   7.205  12.179   0.604 -0.0518 -0.0643  0.1995
14981W        W31829   3.426   2.572   4.222 -0.0973  0.2566  0.3216
14982W        W31830  13.938   4.779   1.132  0.2119 -0.2205 -0.0256
14983W        W31831   2.622  14.207   3.249  0.0345  0.6521 -0.2535
14984W        W31832   5.396   9.690   4.664 -0.2316  0.1678 -0.1128
14985W        W31833   7.866  17.371  12.616 -0.0951  0.0910  0.1843
14986W        W31834  12.001   1.272   3.736  0.2293  0.1142  0.0011
14987W        W31835   6.892   6.600   2.602 -0.0215  0.1017  0.0514
14988W        W31836   3.072   4.992   2.361  0.1753  0.2785  0.3561
14989W        W31837   1.115   5.568   3.691 -0.3224  0.2602 -0.0066
14990W        W31838  15.440  15.208  12.498 -0.2952  0.1409 -0.0381
14991W        W31839   2.432   7.634   5.203  0.2265  0.1037  0.3910
14992W        W31840   1.583  14.710   2.237  0.1017  0.2422  0.1143
14993W        W31841   6.603  17.776  11.530 -0.0590 -0.2392 -0.0027
14994W        W31842   2.287  15.720   3.906 -0.1056  0.2853  0.0241
14995W        W31843   8.837   6.822   4.591  0.0595 -0.3611 -0.0854
14996W        W31844   4.594  14.655  15.479 -0.0670 -0.3788  0.1912
14997W        W31845   0.703   1.253   1.882  0.1823 -0.0311  0.3279
14998W        W31846  13.961  14.176   0.376 -0.0642 -0.0954 -0.0725
14999W        W31847   0.765  12.119  15.706  0.1406 -0.3255 -0.0269
15000W        W31848   5.280   6.385  16.193  0.3572  0.1140  0.2018
15001W        W31849   9.962  14.235  15.665 -0.0506 -0.0366  0.1175
15002W        W31850  17.698  14.472   5.106 -0.3409 -0.0798  0.1944
15003W        W31851   4.065   2.934   3.739 -0.0015  0.1700 -0.1149
15004W        W31852   3.584   2.280   1.269 -0.7182  0.0231 -0.3517
15005W        W31853  12.800   8.923  13.159 -0.2106 -0.1335 -0.1666
15006W        W31854  16.150   2.333   3.295  0.1422  0.0366 -0.0618
15007W        W31855   4.153  16.708  15.513  0.1000 -0.1391  0.0256
15008W        W31856  10.480   3.280   4.413  0.0656  0.2365  0.1194
15009W        W31857   5.283   7.440   5.200  0.1381  0.1437 -0.3980
15010W        W31858   2.135  13.662  13.724 -0.1878  0.1930 -0.0091
15011W        W31859   7.326  14.680   4.048  0.3074 -0.0333 -0.3111
15012W        W31860   3.200  16.808  13.772  0.2164 -0.1136  0.0104
15013W        W31861   1.856   8.718   3.658  0.2881 -0.0985 -0.0722
15014W        W31862   8.780   5.346   5.314 -0.1748 -0.0929  0.1478
15015W        W31863  14.899   7.026   1.979  0.0261  0.1827  0.1347
15016W        W31864  17.415   6.603  14.279  0.1263 -0.1673  0.0998
15017W        W31865   1.990  13.264  15.790  0.4620  0.2104  0.2369
15018W        W31866   8.376  11.458   3.133 -0.1002 -0.3804 -0.0713
15019W        W31867  10.526   0.985   4.005  0.1344  0.0538  0.4629
15020W        W31868  13.181   2.696  13.822 -0.0338 -0.4117 -0.2217
15021W        W31869   7.906   6.910   3.566 -0.1977  0.2984 -0.0927
15022W        W31870   6.468  17.112   0.569 -0.0938 -0.2590 -0.2027
15023W        W31871   0.908  15.453  16.257  0.1121 -0.0892  0.2995
15024W        W31872  15.304  16.251  13.270  0.4878 -0.0181  0.2246
15025W        W31873  12.339  16.533   0.271  0.2284 -0.1645 -0.2060
15026W        W31874  14.814   9.488  15.755 -0.1653 -0.0637  0.0753
15027W        W31875  15.372  15.674  12.577  0.1302  0.3644 -0.0541
15028W        W31876  15.814   7.206   1.896 -0.0115  0.2723 -0.0095
15029W        W31877   1.845  16.508   4.034 -0.0196 -0.5159  0.2508
15030W        W31878   1.450   4.163   1.368  0.1792  0.1320  0.2003
15031W        W31879  10.751   3.135   1.441 -0.2297  0.0979  0.3243
15032W        W31880   7.897   3.389  15.080 -0.1502 -0.2012 -0.0946
15033W        W31881  14.081  10.510  12.740  0.2438 -0.2570  0.1794
15034W        W31882   0.817   2.960   1.047  0.1460 -0.2542  0.0610
15035W        W31883   7.187   1.390  13.392  0.3463 -0.0084 -0.1784
15036W        W31884  17.225  10.671   1.087 -0.2734 -0.1534 -0.0394
15037W        W31885   6.263  17.099   4.326  0.0306  0.0749  0.0490
15038W        W31886   8.719  12.339  13.186 -0.1515  0.2033  0.2407
15039W        W31887   4.510   6.175   1.075  0.1107  0.1047 -0.3765
15040W        W31888   5.064   5.717   5.324  0.1017 -0.1593  0.0585
15041W        W31889   1.307   3.698  13.798 -0.1373 -0.1157  0.0275
15042W        W31890   1.089   9.201  15.103 -0.0394  0.1676  0.1733
15043W        W31891   9.996  10.202  15.636  0.2253 -0.3719 -0.3465
15044W        W31892  13.980  17.912   2.833 -0.0600 -0.2420  0.3765
15045W        W31893   6.175   5.622  14.293  0.2534 -0.2463 -0.2588
15046W        W31894  13.897   5.046  13.730 -0.3267 -0.5233  0.0679
15047W        W31895   3.739   4.446  12.204  0.2951 -0.0232 -0.1015
15048W        W31896  14.224   0.452  13.386 -0.0024 -0.0709 -0.3823
15049W        W31897   4.540   8.488  14.893  0.0960 -0.1125 -0.2466
15050W        W31898  12.663  15.291  16.273 -0.0806 -0.2561 -0.0700
15051W        W31899   2.877  16.433  13.556 -0.1693  0.0624  0.2461
15052W        W31900   5.417  11.171  16.184 -0.0305 -0.0692 -0.2701
15053W        W31901  12.953   6.915   3.972  0.1199 -0.0539 -0.0707
15054W        W31902   0.560  15.616  11.966  0.3179 -0.1049  0.1136
15055W        W31903   8.521   9.661   4.787 -0.0399 -0.1111 -0.0766
15056W        W31904  12.673   6.456   4.172 -0.3059 -0.0009  0.0773
15057W        W31905  13.956   4.167   3.212 -0.1195 -0.0506  0.0565
15058W        W31906   7.543  13.450  13.824  0.0825  0.0634  0.1352
15059W        W31907   5.044  12.405   4.903  0.3070 -0.0285 -0.2130
15060W        W31908   3.624   4.285  15.049  0.1061  0.1578 -0.3241
15061W        W31909   6.300   9.232   4.976  0.1950 -0.6514 -0.1438
15062W        W31910  13.740  14.540  11.545 -0.1477  0.1084 -0.0424
15063W        W31911   8.508   1.273  15.281  0.0799 -0.0224 -0.3468
15064W        W31912   0.899   9.728   2.182  0.0122  0.0730  0.0066
15065W        W31913   0.366   0.584   0.232 -0.0923  0.0727 -0.1302
15066W        W31914  14.718   2.102   3.609 -0.4842 -0.0635  0.2309
15067W        W31915  12.126  14.220   3.928 -0.1654 -0.2079 -0.4014
15068W        W31916  11.603   0.749   2.907 -0.2217  0.0265  0.2126
15069W        W31917   7.133   0.412  13.392  0.2654 -0.0667  0.0176
15070W        W31918  10.824   6.535   0.293  0.0015  0.1681  0.0527
15071W        W31919   8.705  13.358  11.478  0.4328 -0.1425 -0.1179
15072W        W31920   8.418   0.787  12.733  0.3692 -0.3074  0.0221
15073W        W31921  15.417  11.522   3.875  0.2020 -0.0137  0.0263
15074W        W31922  12.876   8.131   5.989  0.0390  0.1363  0.0778
15075W        W31923  15.920   0.377   3.251 -0.2869  0.3709  0.3416
15076W        W31924  15.449  14.567   4.096  0.1169 -0.4192  0.0668
15077W        W31925  13.308  11.613  14.784 -0.0603 -0.2576 -0.3081
15078W        W31926   6.847   3.000   5.234  0.3119 -0.1177  0.1435
15079W        W31927  10.473  15.179  12.740 -0.1202  0.0916 -0.1529
15080W        W31928  10.616  16.759   4.719  0.0424  0.0752 -0.3650
15081W        W31929  17.417  12.263   1.221 -0.3953 -0.4234 -0.0574
15082W        W31930  13.471   2.091  15.604  0.1575 -0.0508  0.1052
15083W        W31931  17.260   9.329   0.843 -0.3944  0.2848  0.0424
15084W        W31932  14.433   5.318  14.317  0.0742 -0.0088  0.1094
15085W        W31933   4.911   2.342   5.075  0.1808 -0.1946  0.0357
15086W        W31934  10.296   9.249  15.614 -0.1385 -0.1236  0.0158
15087W        W31935   9.712  10.829   1.165  0.0609 -0.2194 -0.0291
15088W        W31936   2.223  17.760   2.465  0.2942  0.1701  0.1413
15089W        W31937  15.987  11.081  11.308 -0.0665 -0.1141  0.3483
15090W        W31938  17.317   2.279  11.908 -0.0615  0.0035  0.1646
15091W        W31939  14.790  10.534  11.786  0.0041  0.1536 -0.0884
15092W        W31940  16.582   3.493   0.403  0.0186 -0.0491  0.0810
15093W        W31941  11.726   4.806  11.859  0.2679 -0.1045  0.1936
15094W        W31942   6.304   3.995   3.444 -0.0100 -0.1521  0.1098
15095W        W31943   4.092   3.065   4.389 -0.1430 -0.1605  0.0204
15096W        W31944  10.432   9.151   3.741 -0.2139 -0.2145 -0.0688
15097W        W31945   7.723  11.023  11.596 -0.0308  0.0842  0.1213
15098W        W31946   5.890   4.565  11.183  0.0382 -0.0529  0.0143
15099W        W31947  11.668   9.465  15.814  0.6019 -0.0912  0.0945
15100W        W31948   5.529  12.515  12.903  0.0630 -0.0809 -0.1571
15101W        W31949   9.827  13.122  15.629 -0.0875 -0.3345  0.1063
15102W        W31950   8.423   1.718   3.664 -0.0796  0.0650  0.1320
15103W        W31951   4.586  17.349  15.483 -0.0511 -0.0159  0.2784
15104W        W31952   7.884  15.246   0.296  0.1032 -0.1143  0.0006
15105W        W31953  10.084   3.260   2.655 -0.0412 -0.0841  0.0438
15106W        W31954   1.813  17.128  12.980  0.1244  0.4666  0.1314
15107W        W31955   0.707   3.849  15.674 -0.0304  0.1152  0.0627
15108W        W31956  11.351  15.940  11.312  0.1343  0.0828  0.2553
15109W        W31957  15.954   6.470  13.601  0.0328 -0.2058  0.3062
15110W        W31958  11.455  12.632   4.991  0.4189  0.1368 -0.2221
15111W        W31959  13.639  14.691  13.898  0.0766 -0.1125 -0.1047
15112W        W31960  14.743  14.904   4.460 -0.2789 -0.0439 -0.1185
15113W        W31961   3.838  15.576   4.953  0.1147 -0.2439  0.2188
15114W        W31962  12.690  11.386   2.820  0.1831  0.0676 -0.0905
15115W        W31963   9.571   8.757   0.615 -0.1243  0.1191  0.3815
15116W        W31964  12.027   4.618  15.843 -0.1027  0.3879 -0.1101
15117W        W31965  10.765  15.025  13.164 -0.0628 -0.3801 -0.1584
15118W        W31966  14.977   1.045   2.156  0.2311 -0.0008  0.1985
15119W        W31967   0.208  10.432  14.025 -0.2444  0.1236 -0.2498
15120W        W31968   1.859   6.768   3.622 -0.0954  0.1925  0.2411
15121W        W31969   6.621   3.105  13.649 -0.1815  0.1645 -0.1732
15122W        W31970  16.865   2.537   2.121 -0.0933  0.0365  0.0407
15123W        W31971   5.146   1.240  13.751 -0.2609 -0.1040 -0.1013
15124W        W31972  12.544  17.937  12.745 -0.0166  0.1125  0.4512
15125W        W31973   8.768  15.949  12.931 -0.0378 -0.0578 -0.0358
15126W        W31974   4.673  16.804  15.624  0.2774 -0.1854 -0.2684
15127W        W31975  15.793  15.521   1.895  0.0362 -0.0968 -0.4310
15128W        W31976  17.237   1.597   3.964  0.0474 -0.1258  0.0660
15129W        W31977  16.224  16.773  11.000  0.3450 -0.2471  0.3813
15130W        W31978  11.504   0.251  15.566 -0.0792 -0.0855 -0.1126
15131W        W31979   6.867  10.375   4.246 -0.2983  0.0056  0.2258
15132W        W31980   7.436   9.535  10.920 -0.2444  0.3078  0.0246
15133W        W31981   7.773  10.825   4.286  0.4143  0.2585 -0.0195
15134W        W31982   4.490   1.356  16.021  0.1738 -0.0806 -0.2381
15135W        W31983   2.034  11.810  11.412  0.0202  0.0670 -0.2047
15136W        W31984  13.345  16.371  12.842 -0.2382 -0.0908 -0.3646
15137W        W31985  17.347  11.995   0.345 -0.0902  0.0062 -0.2279
15138W        W31986   4.852   1.497   1.738 -0.1593  0.2613  0.0241
15139W        W31987   4.913   2.609   2.724  0.2483  0.1884  0.3046
15140W        W31988  13.880   3.757  15.301 -0.0667 -0.3091  0.0232
15141W        W31989   8.235  15.916   2.067 -0.3789 -0.1049 -0.1396
15142W        W31990  16.811   1.338   3.952 -0.0753  0.2240 -0.4758
15143W        W31991  15.786  12.624  13.385 -0.1220  0.1265  0.0461
15144W        W31992   6.297   5.710   1.777 -0.2287  0.0140  0.0921
15145W        W31993   4.409   3.265   3.836  0.2681 -0.1487  0.0094
15146W        W31994  15.968  10.432  15.489 -0.2572  0.2896  0.1979
15147W        W31995   4.321   6.693   4.781  0.1804  0.1885  0.0774
15148W        W31996  12.311   8.529  14.772 -0.0182  0.0246 -0.1346
15149W        W31997  10.488   4.905  12.394 -0.0898  0.0812  0.4066
15150W        W31998   6.908  11.751   0.500 -0.0959 -0.0924  0.0679
15151W        W31999  11.871   1.188   3.136  0.2678  0.4426  0.3505
15152W        W32000  10.884   6.471   2.457  0.3814  0.0754 -0.1776
15153W        W32001  15.841   4.132   4.341  0.3147  0.1900  0.2603
15154W        W32002   6.210   5.126  14.531  0.3108 -0.0262 -0.2398
15155W        W32003  16.839   4.447  14.498  0.1940  0.1759 -0.1857
15156W        W32004   1.295   4.342   5.579  0.0483 -0.0990 -0.0391
15157W        W32005   8.565  10.628   2.258 -0.1361  0.1459  0.2145
15158W        W32006  10.459  15.507   2.783 -0.0271  0.3162  0.2736
15159W        W32007   4.512   2.743   2.923  0.2280  0.1482 -0.1182
15160W        W32008   8.695   8.139  14.758  0.3759 -0.0300 -0.0772
15161W        W32009   4.426  13.217  14.041  0.1214  0.0077  0.0701
15162W        W32010   1.478  16.258  15.490  0.0526 -0.0832  0.2391
15163W        W32011   1.369   0.850   2.486  0.0405 -0.1134 -0.0085
15164W        W32012  12.218  14.492  13.829 -0.0973  0.1075 -0.0304
15165W        W32013  17.154  16.937   3.363 -0.1021 -0.1542  0.0621
15166W        W32014   3.955  10.927   3.262  0.0238 -0.0259 -0.1659
15167W        W32015   6.246   2.687   3.309 -0.2601  0.0378 -0.5992
15168W        W32016   2.540   3.178  14.343  0.0573 -0.1412 -0.2471
15169W        W32017  18.078   0.106   6.096 -0.3624 -0.0505 -0.1513
15170W        W32018   7.348  15.951   2.037 -0.1017 -0.0728  0.0745
15171W        W32019   2.242  11.271   4.862  0.1451  0.0408  0.0294
15172W        W32020  10.058  16.532   3.839 -0.2688 -0.3697 -0.0636
15173W        W32021   3.975   6.161  12.408  0.2425  0.0446  0.0432
15174W        W32022  14.578   6.013   4.441  0.2629 -0.4376  0.2632
15175W        W32023  12.083  15.032   4.953 -0.1021 -0.0080  0.0807
15176W        W32024  10.263  14.074  13.918  0.3105 -0.1485  0.0727
15177W        W32025   1.119  12.823   0.635 -0.1296 -0.2188 -0.2227
15178W        W32026   9.196  14.515   3.077  0.1587 -0.0038 -0.1611
15179W        W32027   8.883  17.337   4.938 -0.1892 -0.0567  0.1720
15180W        W32028   8.593   2.874  13.991 -0.0477 -0.2136  0.0473
15181W        W32029   2.708  15.975  11.988 -0.1394 -0.0289 -0.2397
15182W        W32030  12.453   4.386   2.751  0.0249 -0.2941 -0.0462
15183W        W32031   5.427   6.298  14.350 -0.0217  0.0053  0.0192
15184W        W32032   0.943  17.413   1.600  0.0525 -0.2054  0.0703
15185W        W32033  10.074   9.799  13.421  0.1471  0.1800  0.3819
15186W        W32034   2.812  10.842  15.289  0.0918  0.0400  0.3174
15187W        W32035  14.320   4.699  14.539  0.0225 -0.0159 -0.1573
15188W        W32036   7.349  14.859  14.205 -0.0448 -0.2489  0.1431
15189W        W32037  11.160   4.703  14.817 -0.0435  0.2009 -0.3199
15190W        W32038   6.520  11.938   4.865 -0.3524  0.3395  0.0221
15191W        W32039   5.660  16.702   1.159  0.0446  0.0397  0.2438
15192W        W32040   2.282   7.880  13.162  0.1050  0.1607  0.0584
15193W        W32041  17.290   3.770  12.870 -0.1655  0.0213  0.2878
15194W        W32042  13.862   6.441  15.198 -0.0405  0.0239 -0.1185
15195W        W32043   9.807  11.507   3.232 -0.2017  0.2130  0.0917
15196W        W32044  11.466   1.221  15.220 -0.1041  0.1387 -0.1091
15197W        W32045   8.240   9.683   1.108  0.0798 -0.1377  0.0011
15198W        W32046  14.345   5.652  12.957 -0.1309 -0.0779  0.1181
15199W        W32047  12.047  17.529   1.306 -0.2512  0.3047  0.1098
15200W        W32048   3.073  15.184   2.675 -0.2089  0.0863 -0.1653
15201W        W32049   6.364   4.616  11.362  0.0316  0.0194 -0.0346
15202W        W32050   9.528  11.812  12.961  0.2039  0.1064 -0.2357
15203W        W32051   4.471  10.640  14.494  0.0773 -0.1779  0.0976
15204W        W32052   1.042  10.397   1.791 -0.1307  0.1663 -0.1433
15205W        W32053   4.911   5.011   2.568  0.0166 -0.1243  0.3273
15206W        W32054  17.173   8.139  15.746 -0.1134  0.1666 -0.1072
15207W        W32055  16.710   0.022  13.068  0.0353 -0.1967 -0.0272
15208W        W32056  11.634  11.133  15.615  0.0640 -0.0024 -0.1643
15209W        W32057   4.220  14.181   0.649  0.0041 -0.2320  0.0750
15210W        W32058   2.971  17.532   0.190  0.4116 -0.1211 -0.1282
15211W        W32059  16.115   6.346  13.054 -0.2325 -0.0887  0.0273
15212W        W32060   6.181   5.290   3.135  0.1401 -0.0759  0.1098
15213W        W32061  17.832   0.092  11.459  0.0280  0.0331  0.1947
15214W        W32062  16.062  16.920   4.136 -0.3967 -0.1663 -0.1127
15215W        W32063  15.580  16.749   4.891 -0.1359 -0.0332  0.1964
15216W        W32064   9.826   9.692   1.044 -0.1627  0.2503 -0.0729
15217W        W32065   1.905   2.393  11.947 -0.0712  0.1990  0.1774
15218W        W32066   6.201   4.636  16.213 -0.0918 -0.1242 -0.0739
15219W        W32067  11.969   3.794  15.649  0.1069  0.1395  0.0108
15220W        W32068   6.978   3.879  14.150 -0.1246  0.1231  0.0278
15221W        W32069   6.022   9.339  12.423 -0.0327  0.0507  0.0030
15222W        W32070  16.827   0.523  15.551 -0.2050 -0.1219 -0.1272
15223W        W32071  16.662   0.796   5.695 -0.1345  0.0613  0.1406
15224W        W32072   3.746  13.967   2.550  0.1099  0.0094  0.0061
15225W        W32073  11.817   2.064   5.177  0.5538 -0.1907 -0.1243
15226W        W32074   5.417   8.630   4.511 -0.0190  0.1591 -0.1027
15227W        W32075  11.701   4.843   2.578  0.2430 -0.0591 -0.0060
15228W        W32076   8.222   8.972   1.335 -0.1370 -0.0923  0.1319
15229W        W32077   9.299   8.321   4.832 -0.2541  0.0530 -0.2037
15230W        W32078  12.314   7.556   0.665 -0.0227 -0.0103 -0.0749
15231W        W32079  14.059  16.542  13.468  0.1893  0.0381 -0.3149
15232W        W32080  17.515  16.143   3.873 -0.3579  0.0200 -0.0578
15233W        W32081   9.955  10.165  12.440  0.1144  0.0533  0.0117
15234W        W32082  13.849   8.861  10.531  0.2740  0.1309  0.1111
15235W        W32083   9.634  16.935   1.388 -0.2923  0.1565 -0.0038
15236W        W32084   9.445   1.440   1.105  0.1463 -0.3278 -0.0763
15237W        W32085   0.461   0.381  12.598  0.1902  0.0080 -0.4528
15238W        W32086   8.625   2.836  15.663 -0.0570 -0.2099  0.2754
15239W        W32087  11.402  13.884   4.365  0.0991  0.2733 -0.0101
15240W        W32088   0.701  10.664   0.881 -0.0291  0.0562  0.1718
15241W        W32089   9.501   6.290   2.721 -0.0971  0.0087  0.0082
15242W        W32090   7.682   1.102   2.618 -0.1513  0.0862  0.3122
15243W        W32091   9.466  13.629   4.222  0.3802 -0.0447 -0.1583
15244W        W32092   8.583  17.410  12.044 -0.1396 -0.0783  0.0790
15245W        W32093   1.520   3.992  13.281 -0.0845  0.1585 -0.0389
15246W        W32094   7.754  17.862   0.875  0.0062 -0.1662 -0.1207
15247W        W32095  11.892  17.161   2.680  0.3895 -0.1157 -0.0299
15248W        W32096   6.470  12.127   9.790  0.0409  0.0700 -0.2045
15249W        W32097  14.435  10.881   0.668  0.0778 -0.3635 -0.3448
15250W        W32098   2.179  11.477  15.906  0.1884  0.2202 -0.0080
15251W        W32099   3.997   9.153   2.043 -0.0066 -0.1290  0.2099
15252W        W32100  10.878  12.946  13.231  0.3203 -0.2851 -0.2636
15253W        W32101  14.156   6.913  13.078 -0.0997  0.0332 -0.1141
15254W        W32102  11.892   9.843  12.466  0.0161 -0.0268 -0.2339
15255W        W32103  15.648   5.255  14.840 -0.1215 -0.0504 -0.0531
15256W        W32104  16.958  11.034   2.341 -0.1273  0.1857 -0.0137
15257W        W32105  11.129  12.731  12.832 -0.0963 -0.0707 -0.0714
15258W        W32106  12.253   0.688   1.812 -0.2471  0.2684  0.2211
15259W        W32107   2.805   5.321  14.021 -0.1008  0.0344  0.0477
15260W        W32108  17.020  11.240  13.615  0.1050 -0.1060  0.1762
15261W        W32109   8.671  11.476   4.645  0.0819  0.0042 -0.0557
15262W        W32110  11.743  12.209  14.851 -0.2416  0.1796  0.2366
15263W        W32111   8.418  17.126   0.468  0.0348  0.1996 -0.2968
15264W        W32112  10.618  14.940   3.615 -0.3593  0.3569  0.0684
15265W        W32113   5.941  11.053   0.659 -0.2125 -0.1032 -0.1489
15266W        W32114   7.994  17.741  10.481  0.0100  0.0317 -0.1733
15267W        W32115  14.456   4.060  11.467 -0.1153 -0.0133  0.0859
15268W        W32116  13.913   4.820  11.464  0.0561 -0.0796  0.2108
15269W        W32117   8.773   5.350  15.470  0.0037 -0.0045  0.0677
15270W        W32118  13.232  14.516   1.349  0.0080 -0.1788  0.1150
15271W        W32119   0.291   6.404  12.843 -0.1654 -0.0631  0.0073
15272W        W32120   8.344   1.374   3.293  0.0963  0.3681  0.0597
15273W        W32121   8.493   1.128   1.782 -0.2412  0.2414  0.0151
15274W        W32122   0.897  12.490  14.998 -0.0331 -0.3007  0.0977
15275W        W32123  11.639  16.111   4.566  0.0927 -0.0909  0.0143
15276W        W32124   5.585   9.982  14.148  0.0290 -0.2252  0.1396
15277W        W32125   8.949   2.810   2.932 -0.0721  0.3992  0.0331
15278W        W32126   5.603   2.813   0.442 -0.0004  0.1632 -0.3551
15279W        W32127  15.706   4.624   2.116  0.1842 -0.0253  0.1146
15280W        W32128   6.786  10.479   1.953  0.0709 -0.3942 -0.0246
15281W        W32129   8.698   3.564   3.782  0.0775 -0.0593  0.0162
15282W        W32130   6.623   5.492  16.068 -0.0078 -0.2707 -0.0806
15283W        W32131   1.636   3.176  12.673  0.2843  0.1379  0.0781
15284W        W32132  17.160  13.407  12.821 -0.3418  0.0696 -0.1818
15285W        W32133   6.909  17.568   4.738 -0.0877 -0.0409 -0.0058
15286W        W32134   8.735   0.409  12.592  0.1344 -0.1164 -0.0284
15287W        W32135   0.427  11.706  15.076 -0.0397  0.2132  0.2411
15288W        W32136   0.154  14.940   4.479  0.3197  0.1512 -0.0576
15289W        W32137   7.943   2.553  12.679  0.0027 -0.1314 -0.3000
15290W        W32138  13.924   5.366  16.042 -0.0709  0.0163  0.0267
15291W        W32139  12.655   6.938  13.906 -0.2374  0.3240 -0.4642
15292W        W32140  17.416   7.400  15.747  0.0797 -0.1399 -0.1731
15293W        W32141  17.134  16.949   2.794  0.3283 -0.2064 -0.1188
15294W        W32142   7.296   3.168   5.126 -0.0569  0.0531  0.0346
15295W        W32143  16.419  14.043   1.653 -0.0556  0.0672 -0.1970
15296W        W32144   5.840   6.104  12.289  0.2701 -0.0727  0.3941
15297W        W32145   1.447  15.944   3.826 -0.1545 -0.1277 -0.1478
15298W        W32146   0.303   8.010  15.726 -0.0673  0.0281  0.2111
15299W        W32147  11.125  18.071   0.133  0.2692  0.0792 -0.1290
15300W        W32148  15.788   1.490   3.498 -0.0376 -0.2036  0.0487
15301W        W32149   3.713  12.267   2.665  0.0360  0.0488  0.0220
15302W        W32150   1.037  10.846  15.033 -0.0372 -0.2201  0.2596
15303W        W32151   1.765  11.383   1.829  0.3608 -0.2311 -0.0847
15304W        W32152  15.533  15.115   0.207  0.1428  0.0881  0.1166
15305W        W32153  14.821  15.471  11.410 -0.0390 -0.0481  0.0961
15306W        W32154  13.351   1.995   3.223 -0.2549  0.0148 -0.2114
15307W        W32155   1.974   5.871  11.655 -0.0965 -0.1331  0.0507
15308W        W32156   5.155  13.199   4.003 -0.0855 -0.0676 -0.1233
15309W        W32157   1.192  17.864   3.595 -0.0974  0.0843  0.1830
15310W        W32158   5.157   9.375  10.628 -0.0031  0.0497 -0.4776
15311W        W32159  11.806   0.019   5.033 -0.2033  0.0304  0.0726
15312W        W32160   4.333   3.272  13.210  0.1471 -0.0775 -0.1020
15313W        W32161   0.337   6.970  14.013  0.0047  0.1213 -0.1419
15314W        W32162   2.835  10.545  10.596  0.1082  0.0419 -0.2207
15315W        W32163  17.340  15.296  12.757  0.0755  0.0113 -0.2797
15316W        W32164   6.728  15.418  11.232 -0.2354  0.3176  0.2427
15317W        W32165   5.550   6.307  15.166  0.3067 -0.1704  0.1948
15318W        W32166  15.316  17.677  13.638  0.0894  0.2447  0.1270
15319W        W32167   9.376   1.961  14.708  0.1488  0.0931  0.4864
15320W        W32168  11.729  14.099   0.645  0.3658 -0.0688 -0.0488
15321W        W32169   9.397   6.050  11.089  0.0372 -0.0194  0.1853
15322W        W32170   9.009   2.789   0.233  0.1217 -0.1104  0.1125
15323W        W32171   1.055   6.161  15.094 -0.2721 -0.2858 -0.1451
15324W        W32172  11.439   1.803  12.500 -0.0638 -0.1469 -0.0304
15325W        W32173  14.966   3.813  14.695  0.3066  0.0736 -0.0564
15326W        W32174   7.282   6.941  12.673 -0.1753  0.0089  0.0363
15327W        W32175   1.306  10.385  15.936  0.4772  0.0205 -0.3597
15328W        W32176   1.291  12.033  13.658 -0.1514 -0.1748 -0.1482
15329W        W32177   3.221   7.109   1.749  0.2686  0.0491 -0.1734
15330W        W32178   8.362   6.533  13.936 -0.0708  0.2596 -0.2120
15331W        W32179   3.017   1.862  13.397 -0.1900 -0.0124  0.0335
15332W        W32180  13.819   6.933   4.905 -0.2468  0.0632  0.0062
15333W        W32181   7.352   4.474   3.834 -0.0286  0.0069  0.3257
15334W        W32182   0.027  16.229  11.767 -0.0191  0.2907 -0.2058
15335W        W32183   0.103   7.067  16.324 -0.0090 -0.0250  0.1379
15336W        W32184   1.902   5.741   1.237 -0.2610  0.1720 -0.2567
15337W        W32185   2.720   6.518   1.494  0.0010  0.3928 -0.0565
15338W        W32186   1.280   6.628  13.828 -0.1664  0.4306 -0.1475
15339W        W32187  12.683  10.036   1.106  0.0524 -0.2489  0.1300
15340W        W32188   2.480  15.847  15.400  0.0794 -0.2098  0.0667
15341W        W32189  15.841   8.305   2.350 -0.1533  0.1252 -0.4616
15342W        W32190  13.161  10.532   3.319 -0.0141 -0.0276 -0.3562
15343W        W32191   6.387   6.151  12.233 -0.0303 -0.5424  0.2647
15344W        W32192   2.243   6.567  13.160  0.1181 -0.1550  0.1816
15345W        W32193   2.839   4.930  14.971  0.0595 -0.0647  0.0392
15346W        W32194  13.861   2.782  15.309 -0.1548  0.1258 -0.0496
15347W        W32195  12.961  17.807   4.847 -0.1601  0.1813  0.3164
15348W        W32196  17.087  10.551   0.158  0.2412  0.2173 -0.1344
15349W        W32197   1.835  17.417   3.079  0.0149  0.3796  0.2449
15350W        W32198  16.426   9.197  14.193  0.3365 -0.2378 -0.1982
15351W        W32199   0.758   0.365   1.406 -0.1771  0.1082  0.0721
15352W        W32200   9.495  17.608   1.218  0.0009 -0.3281  0.1977
15353W        W32201   7.939  14.078  15.980  0.2549 -0.2376 -0.2950
15354W        W32202  17.359   9.132  15.798  0.0838 -0.0613  0.1071
15355W        W32203  15.662  11.837  10.728 -0.3236 -0.0674 -0.1536
15356W        W32204   3.556  13.987   3.333  0.1029  0.6617  0.0508
15357W        W32205   6.831  14.429   1.591  0.2126  0.1733  0.0567
15358W        W32206  17.542  16.992  11.345  0.0661  0.3523 -0.0780
15359W        W32207  12.302   0.317  15.708 -0.0429  0.3010 -0.0103
15360W        W32208   3.319  12.887  14.774 -0.1376  0.1317  0.0699
15361W        W32209  13.993  15.924  13.388  0.1484 -0.1651  0.0941
15362W        W32210  10.528   8.825  15.379 -0.0491  0.1302 -0.1819
15363W        W32211  13.186  13.811  12.310  0.0485 -0.3465  0.2576
15364W        W32212  16.056  17.105  14.222 -0.3240 -0.1411  0.3157
15365W        W32213   8.933  15.600   1.013 -0.0289 -0.0691 -0.2452
15366W        W32214   9.759   1.014  13.490 -0.5163  0.2933  0.1967
15367W        W32215   4.417   9.438   5.066  0.1593  0.3880 -0.2599
15368W        W32216  16.018   0.158   2.807  0.0215 -0.1170 -0.0816
15369W        W32217   8.973   8.942   4.140 -0.3873  0.1873 -0.2991
15370W        W32218   6.593  12.995  13.402  0.0490  0.1870 -0.0962
15371W        W32219   4.916  13.540   4.777 -0.0166  0.1093  0.2126
15372W        W32220   6.003   3.529  13.094  0.2483 -0.2129 -0.3573
15373W        W32221  10.926  12.645  14.010 -0.2150  0.0509  0.0927
15374W        W32222   0.844   4.336  12.082  0.1015 -0.0244 -0.2612
15375W        W32223  14.804  10.535   2.954  0.2061 -0.4180  0.0106
15376W        W32224   8.263  11.734   1.217 -0.4419 -0.1001  0.0386
15377W        W32225  17.302   1.049   0.100 -0.0947  0.2054 -0.0862
15378W        W32226   1.369  16.503   4.121  0.2455 -0.0627 -0.0373
15379W        W32227  15.047   1.522  13.397 -0.1686 -0.1457 -0.2341
15380W        W32228  17.926  13.817  13.020  0.1257  0.1787 -0.2389
15381W        W32229  17.399   4.384   5.174 -0.2234  0.1193 -0.1264
15382W        W32230  13.946   4.925   3.975 -0.3806 -0.0642 -0.0411
15383W        W32231   8.486  13.202  11.959  0.0209  0.2327 -0.1175
15384W        W32232   6.280   7.597   1.863  0.0632  0.0522 -0.0986
15385W        W32233  12.363   2.193  12.772 -0.0445 -0.0168  0.4571
15386W        W32234   9.497  11.753  15.164 -0.0668  0.0905 -0.0774
15387W        W32235   0.807  12.071  12.965  0.0663 -0.1910 -0.0924
15388W        W32236   1.941  10.847   4.277 -0.1578  0.0544 -0.1079
15389W        W32237   3.829   4.980   2.817 -0.0015 -0.0142  0.1159
15390W        W32238   9.323   4.484   0.654  0.0995  0.0337  0.0527
15391W        W32239   8.218  10.193   2.313  0.1022 -0.0949  0.0515
15392W        W32240  13.389  16.711   3.237  0.0699 -0.1847 -0.2193
15393W        W32241   6.645   1.379  15.297  0.0267  0.0561  0.1367
15394W        W32242  13.939   0.206  15.641  0.1061 -0.0833  0.0301
15395W        W32243  10.343  17.248   5.944  0.0993 -0.0776 -0.1362
15396W        W32244   0.377   5.188  14.490  0.2124  0.0392  0.3215
15397W        W32245   8.967  15.373  13.824  0.0291 -0.0092  0.1369
15398W        W32246   3.127  12.784  15.288 -0.1111  0.0743 -0.0612
15399W        W32247   6.313  11.487  13.310 -0.0204 -0.3104  0.2374
15400W        W32248  11.805   1.792   2.493 -0.0607 -0.1321 -0.2275
15401W        W32249   7.966   1.076   0.711 -0.0662 -0.1190 -0.1180
15402W        W32250  14.696   3.823   3.662 -0.2113  0.0156  0.0104
15403W        W32251  14.937   3.383  14.416  0.0387  0.1689  0.0378
15404W        W32252   5.695   1.862  14.507 -0.0785  0.0028  0.1349
15405W        W32253   6.831   3.624   1.501  0.0045 -0.0706  0.1534
15406W        W32254   3.418   0.008   1.372 -0.1163 -0.0363  0.0379
15407W        W32255   9.621   6.945   1.820 -0.2782  0.1768  0.0875
15408W        W32256   6.412  12.011  12.919 -0.1644 -0.5285  0.2634
15409W        W32257   7.874  16.785  15.593  0.2168 -0.1008 -0.0746
15410W        W32258  10.280  13.644  11.468  0.0334 -0.1383  0.1917
15411W        W32259   4.766  11.245   4.689 -0.4093  0.0410 -0.1315
15412W        W32260   6.703  11.239  10.185  0.1932 -0.1209 -0.0986
15413W        W32261  15.340   9.831   3.158 -0.3206 -0.1114  0.0278
15414W        W32262   5.721  11.523  10.750 -0.3308  0.1612  0.1532
15415W        W32263  12.446   3.600  15.580 -0.2506  0.0846 -0.1510
15416W        W32264  10.492   3.666  14.405  0.4710 -0.1915  0.1362
15417W        W32265   9.388  14.099  11.380  0.1208 -0.0875 -0.3513
15418W        W32266   7.026   3.412  15.010 -0.0703 -0.1619 -0.2074
15419W        W32267   9.430  12.852   4.894  0.0008 -0.3709  0.1486
15420W        W32268   3.842   7.386   2.586 -0.0429 -0.1419 -0.0512
15421W        W32269   9.297  12.588  11.789  0.1572 -0.0245 -0.0460
15422W        W32270   9.190  17.189   1.246 -0.0169 -0.1589 -0.1636
15423W        W32271  10.374  15.063  13.846 -0.0587  0.1131 -0.2790
15424W        W32272  14.824   5.231   5.596  0.2171  0.2656  0.2717
15425W        W32273  10.371   0.443   1.580  0.2640 -0.0204 -0.1997
15426W        W32274  12.561   7.806  13.022  0.0842  0.5076 -0.1409
15427W        W32275   5.408  11.727   2.319 -0.2784 -0.1209  0.0177
15428W        W32276   2.751  13.132  11.636 -0.1884 -0.2334 -0.6951
15429W        W32277  17.481   3.616   0.590 -0.0114  0.2669 -0.0405
15430W        W32278   8.551  17.098   3.918 -0.0553 -0.0661  0.1638
15431W        W32279   9.262   2.085   2.374  0.0468 -0.0550 -0.0273
15432W        W32280   4.118   2.710   5.274  0.1661  0.0380  0.2822
15433W        W32281  13.659   7.283   3.572  0.0563  0.2190 -0.0720
15434W        W32282  15.246   8.048   1.183 -0.3114  0.1352  0.0802
15435W        W32283   2.545  11.884   3.073  0.0968  0.1330  0.0550
15436W        W32284   9.213   0.204   3.036  0.1576 -0.0732  0.1006
15437W        W32285   6.425  11.478  16.198 -0.0483  0.2615  0.2038
15438W        W32286  12.238  12.450  15.760 -0.0298  0.0713 -0.1678
15439W        W32287  10.893   4.720  14.377  0.0618 -0.1603 -0.0543
15440W        W32288  12.761  15.014  12.319  0.1330  0.1152 -0.0049
15441W        W32289  11.426   3.797   2.170 -0.0178  0.0553 -0.1229
15442W        W32290   1.519   7.182   0.945 -0.0709 -0.1779  0.1431
15443W        W32291   5.160   0.206   2.102 -0.3205  0.4699  0.4421
15444W        W32292  15.497  16.282   3.759 -0.2001 -0.0372 -0.0158
15445W        W32293  14.748   3.815  13.235 -0.2067 -0.2462 -0.0412
15446W        W32294  14.919  12.401   2.630 -0.4036 -0.0008  0.0036
15447W        W32295  13.518   7.792  15.368  0.0898 -0.2750 -0.1139
15448W        W32296   1.872   5.837  13.847 -0.1032  0.0553  0.1513
15449W        W32297   6.700   9.774  10.281 -0.2944 -0.3337  0.1226
15450W        W32298  18.036   9.697   0.039 -0.2087  0.0257  0.2256
15451W        W32299   7.227   2.884   3.715 -0.0633 -0.3762 -0.1314
15452W        W32300  10.857   5.384  13.872  0.1248  0.2823  0.0478
15453W        W32301   1.848  17.835   2.034  0.1471  0.4396  0.1415
15454W        W32302   5.539   2.080   4.742  0.1204  0.1676 -0.0859
15455W        W32303   7.164  16.037  15.779 -0.1989 -0.1172 -0.0415
15456W        W32304  15.583  10.849  10.568  0.0631 -0.1657 -0.2866
15457W        W32305   0.967   6.081  12.496  0.0079  0.0486 -0.1924
15458W        W32306   1.528   8.747   6.141 -0.0043  0.2094 -0.0279
15459W        W32307   7.569   0.433   1.434  0.2536  0.1058  0.1220
15460W        W32308  11.910  15.310   0.073 -0.1153 -0.0267 -0.1391
15461W        W32309   1.131  17.345  14.546  0.1440  0.2158 -0.0947
15462W        W32310   5.503  17.237   2.740 -0.3451  0.1748  0.0886
15463W        W32311   6.750  13.494   5.086 -0.0260 -0.3842  0.1256
15464W        W32312   2.235  16.337   1.252  0.1931 -0.0725 -0.1046
15465W        W32313  18.053  14.024   3.284  0.3877  0.0002  0.0303
15466W        W32314   6.107   2.903  13.799  0.1587 -0.0785  0.2545
15467W        W32315  11.645   7.403  12.868 -0.0808 -0.2343  0.2113
15468W        W32316  17.875  15.199  12.703  0.2076 -0.0358  0.0034
15469W        W32317   7.898   8.011  13.415  0.0189  0.1473 -0.0078
15470W        W32318   3.113   4.874  15.982  0.0891 -0.2079 -0.1884
15471W        W32319  12.054   2.355   1.269 -0.0653 -0.0213 -0.1276
15472W        W32320  14.258  11.009   3.444 -0.1271 -0.0272  0.0348
15473W        W32321   6.970  16.619  11.879  0.1369  0.3078  0.3472
15474W        W32322   9.444  11.048   4.640  0.2012  0.0837  0.1035
15475W        W32323  16.619   9.292  13.764 -0.3393  0.0070  0.2063
15476W        W32324   0.138   3.617  11.911  0.2915 -0.0170  0.2211
15477W        W32325   3.120  15.612  13.488  0.1456  0.0574  0.1040
15478W        W32326   4.774  13.245   1.043 -0.1173 -0.2108 -0.3087
15479W        W32327   9.287  14.622   1.697  0.0020  0.0700  0.1296
15480W        W32328   4.912  15.977  12.570  0.0787 -0.1657  0.0392
15481W        W32329   5.333   8.377  12.202  0.3038 -0.0123  0.0607
15482W        W32330   0.959  16.543   4.826 -0.2311  0.2608  0.0825
15483W        W32331  13.720   8.524   1.189  0.2301  0.3152  0.1453
15484W        W32332  12.217  13.842   4.741 -0.1160 -0.2260 -0.1200
15485W        W32333  16.136   6.688  15.555  0.2367  0.0852  0.2574
15486W        W32334  13.692  16.054  15.757  0.1227  0.2368  0.1717
15487W        W32335   7.165  15.145  13.292  0.0216 -0.5122 -0.0493
15488W        W32336   0.285   2.296  15.677 -0.3152  0.0110 -0.1569
15489W        W32337   6.966   7.974  14.197  0.3285  0.0098 -0.0509
15490W        W32338   2.379   6.655   2.823 -0.1908  0.0378  0.0336
15491W        W32339   0.095  16.457   5.816 -0.2309  0.4133 -0.2880
15492W        W32340   6.236   1.847   5.477 -0.2908 -0.0345 -0.1606
15493W        W32341  16.376  16.533  12.333 -0.0366 -0.2330  0.0052
15494W        W32342   6.715   3.470   4.277  0.3779  0.1307  0.0809
15495W        W32343   8.553  16.962   2.223 -0.2803  0.2098  0.0271
15496W        W32344   1.311   9.783   0.181  0.1460 -0.0347  0.1224
15497W        W32345  14.624  10.544   5.197 -0.1255 -0.2816  0.3116
15498W        W32346   2.513   5.265  15.172 -0.1196 -0.0176  0.0651
15499W        W32347  11.107  12.814   1.081 -0.0062 -0.1448 -0.0409
15500W        W32348   5.123  14.408   3.313  0.5036 -0.1605 -0.1353
15501W        W32349   9.315  13.074  13.470 -0.0253 -0.1437 -0.0569
15502W        W32350   6.370  12.948  16.107  0.1501  0.1144  0.1029
15503W        W32351   0.092  14.268   1.796 -0.0775  0.0171 -0.1387
15504W        W32352   5.610  10.208  14.652 -0.0998  0.2118 -0.1179
15505W        W32353  17.089   7.398   2.513 -0.0222  0.2662  0.0690
15506W        W32354   6.571   6.973   3.671  0.0631  0.0060  0.1131
15507W        W32355  11.331   9.193  14.830 -0.1243  0.1786 -0.1018
15508W        W32356   4.237  15.201   2.243 -0.0574 -0.3761 -0.2884
15509W        W32357  15.416  13.776   0.872  0.1480 -0.0259  0.1943
15510W        W32358  15.492  12.630  13.796 -0.1161 -0.1004 -0.2423
15511W        W32359  17.225   5.463   0.696 -0.4603 -0.1476  0.1993
15512W        W32360   8.313  16.815  15.236 -0.1798  0.0308 -0.2116
15513W        W32361  17.820   6.134   2.744 -0.1312  0.2040  0.0861
15514W        W32362   8.539   4.627  12.851 -0.0505 -0.1341  0.3179
15515W        W32363   2.056   0.566  15.194  0.6356  0.0034  0.1331
15516W        W32364   4.010  14.389  13.300 -0.2757 -0.1000  0.3114
15517W        W32365   2.822  12.620  10.544  0.1238  0.1280 -0.0999
15518W        W32366  15.391   2.493  10.034  0.3895 -0.0896 -0.0336
15519W        W32367   6.355   4.556   4.216 -0.4050  0.1277 -0.0619
15520W        W32368  16.981  13.878   5.119 -0.3171 -0.2245  0.0263
15521W        W32369   2.231  15.808  15.859  0.2436 -0.0900  0.0343
15522W        W32370   4.609  14.605   1.957 -0.0685 -0.0165 -0.0150
15523W        W32371   7.065  13.188   4.574 -0.3484 -0.1532  0.1878
15524W        W32372  10.995   2.823  11.069  0.1672 -0.0499 -0.1616
15525W        W32373   1.623  11.183  13.411 -0.1538 -0.0234 -0.0370
15526W        W32374   9.923   4.332  11.675 -0.1869 -0.3561  0.2031
15527W        W32375   8.559  15.179   0.888 -0.1273 -0.1289 -0.0414
15528W        W32376  15.242  17.457  11.693  0.0865 -0.1273 -0.0478
15529W        W32377  17.286  10.722  10.989  0.2324  0.0889  0.0185
15530W        W32378  13.991   0.673   4.907 -0.1937 -0.0135  0.0964
15531W        W32379  15.096   4.468  15.270  0.1973  0.1561  0.0425
15532W        W32380   1.841   5.000   1.677  0.6454 -0.3463  0.0361
15533W        W32381  13.847   9.247  16.074 -0.0497 -0.1987 -0.3813
15534W        W32382  14.417   2.648   2.397 -0.0067 -0.2444  0.0952
15535W        W32383   4.895   0.375  13.496  0.0564 -0.2567  0.1882
15536W        W32384  15.995  17.694   2.770  0.0676  0.2300 -0.2836
15537W        W32385   4.985   1.940   1.954 -0.0703  0.0642 -0.2525
15538W        W32386  12.531  17.875  11.008  0.0869  0.3418 -0.0606
15539W        W32387  11.855   4.778  12.338 -0.0062 -0.1102  0.0359
15540W        W32388  12.577  12.048  15.733 -0.1981 -0.3289  0.0276
15541W        W32389  15.430  11.514   0.205  0.0196 -0.2803 -0.0329
15542W        W32390   2.106  18.059   1.156 -0.1544 -0.0774 -0.1193
15543W        W32391   3.934  17.114   0.492 -0.4819  0.0181 -0.0728
15544W        W32392  10.769  11.376   3.353  0.1450 -0.0366  0.0479
15545W        W32393  17.466  16.297  10.945 -0.1140 -0.0134 -0.1937
15546W        W32394  11.893  15.892  11.458  0.1095 -0.1299 -0.0387
15547W        W32395  17.470  13.207   1.505  0.2818 -0.3194 -0.1577
15548W        W32396  13.961  16.607  14.582  0.4445 -0.1930 -0.1160
15549W        W32397   0.547   5.851   0.178 -0.1126 -0.0688  0.2721
15550W        W32398   4.112  13.804  12.355  0.2182  0.1240  0.0287
15551W        W32399   0.490   9.659   5.079  0.0513 -0.1841  0.1037
15552W        W32400  16.989  17.769   0.653 -0.0677  0.2535  0.2273
15553W        W32401  16.769  12.905   4.334 -0.1108 -0.1908  0.0086
15554W        W32402  13.694   5.711   4.359  0.2325 -0.3130  0.2245
15555W        W32403  10.613   5.180   2.255 -0.1858  0.3787 -0.2312
15556W        W32404  17.837  12.632   4.097 -0.0561 -0.3335  0.0263
15557W        W32405  17.182  13.346   1.026 -0.1367  0.0926 -0.2673
15558W        W32406   2.614   7.866   4.289  0.1208  0.0341 -0.0057
15559W        W32407  11.595  14.382   0.269 -0.0842  0.0400 -0.1118
15560W        W32408  14.877  12.087   3.176  0.2956  0.0165  0.0671
15561W        W32409   0.647   8.191  13.928 -0.1077  0.2499  0.0923
15562W        W32410   8.255  14.361  15.694 -0.3530  0.1173  0.1755
15563W        W32411  10.662   4.498  14.823 -0.2461  0.1510  0.1855
15564W        W32412   8.668  11.077  14.306 -0.0366 -0.0110 -0.1133
15565W        W32413  17.690   3.891   3.879 -0.3472  0.1820  0.1406
15566W        W32414  13.774   1.984   4.546 -0.4735 -0.0640 -0.1714
15567W        W32415  10.381   8.632  12.581 -0.0311 -0.0339  0.1955
15568W        W32416   3.636   7.202   3.795  0.0577 -0.1731  0.0749
15569W        W32417   5.741   9.747   0.529  0.2334 -0.2885  0.0015
15570W        W32418  11.598  11.825   0.395 -0.0064 -0.0620  0.1077
15571W        W32419   5.548  13.280   1.516 -0.1656 -0.1624  0.2381
15572W        W32420   6.881   4.654   4.097  0.0472 -0.0210 -0.0024
15573W        W32421   5.057   4.965  13.822 -0.1324 -0.1037  0.0171
15574W        W32422   2.638   0.948   4.670  0.0179  0.0954  0.2244
15575W        W32423   5.140   7.485  14.504  0.2435 -0.5443 -0.2453
15576W        W32424   0.423  15.931   5.441  0.0925  0.0734  0.1688
15577W        W32425  11.726   3.651   3.133  0.0113  0.0798 -0.0701
15578W        W32426  17.887   2.386  15.469 -0.0993  0.3246 -0.0558
15579W        W32427  17.751  14.441  15.678 -0.0007  0.0817  0.0863
15580W        W32428  15.314  15.857   3.606  0.0120 -0.1750  0.0406
15581W        W32429   0.077   7.982   1.835  0.0360  0.2659  0.0368
15582W        W32430   0.833   2.270  12.151 -0.1375 -0.2317 -0.0796
15583W        W32431  17.269   8.755  11.018  0.0725  0.1689  0.1992
15584W        W32432  14.317   8.086   5.311 -0.0241 -0.3173  0.2846
15585W        W32433   4.635   0.597  11.166 -0.0629 -0.0879 -0.0907
15586W        W32434  13.980  12.886   2.768 -0.1132  0.0398 -0.3704
15587W        W32435   4.754   4.743  11.881 -0.0998 -0.1908 -0.3787
15588W        W32436   1.061   7.546  12.774  0.2270 -0.0182 -0.1859
15589W        W32437  17.078   6.453   4.165  0.1042 -0.0741 -0.0049
15590W        W32438  12.424  16.249   5.249  0.0718  0.3049  0.1008
15591W        W32439  12.196   0.984   0.862  0.0619 -0.1677 -0.0719
15592W        W32440   7.673  16.605   0.111 -0.0044  0.1452 -0.4238
15593W        W32441  11.140   0.946  13.844 -0.1829 -0.1180 -0.2525
15594W        W32442  12.358   8.472  14.227  0.1866  0.1136 -0.0075
15595W        W32443  12.018   1.194  15.399  0.2428  0.0835  0.1025
15596W        W32444   9.275  16.713  13.034 -0.1224  0.0264  0.1422
15597W        W32445  10.917   1.011   1.581 -0.0250  0.0069  0.0549
15598W        W32446  16.439   7.198  11.801 -0.0198 -0.0897 -0.0964
15599W        W32447  14.853  17.196   4.792  0.2172  0.0014 -0.3305
15600W        W32448   4.006   6.669  14.972  0.2992  0.4756 -0.1799
15601W        W32449   1.320  14.623  15.297 -0.0394 -0.1279  0.0106
15602W        W32450   5.986   5.190   3.562 -0.4851  0.0205 -0.1578
15603W        W32451   9.598  12.911  16.169  0.1980 -0.1280 -0.3066
15604W        W32452   1.912  13.782   2.766 -0.2795 -0.3067  0.2269
15605W        W32453   8.026   2.022  13.051 -0.0504  0.1684  0.0547
15606W        W32454  17.850   1.166  12.651  0.0481 -0.3097 -0.0363
15607W        W32455  14.957   2.713   2.496 -0.0344 -0.1278  0.1700
15608W        W32456  11.411   3.697   1.657 -0.3421 -0.0557 -0.1910
15609W        W32457   9.057  13.205   5.537  0.0912  0.1586 -0.0852
15610W        W32458   0.120  12.603  16.324 -0.2158  0.1027  0.1833
15611W        W32459  14.370  12.434   0.212  0.1485  0.2271  0.1900
15612W        W32460  14.177  12.452  11.399  0.1848 -0.1666 -0.1061
15613W        W32461   2.321   0.489  11.512  0.1969  0.0235  0.3065
15614W        W32462  17.224  13.245   4.432 -0.0255 -0.0756 -0.0374
15615W        W32463   8.250  12.135   2.414 -0.1692 -0.2714 -0.0783
15616W        W32464  15.285  18.021   0.317 -0.3914 -0.1447 -0.1426
15617W        W32465   5.957   0.452   0.407  0.4038  0.0701 -0.0560
15618W        W32466   6.659  16.007  11.983 -0.0207  0.1464 -0.3284
15619W        W32467  16.799  14.299   1.465 -0.0821 -0.0838 -0.1362
15620W        W32468  14.678   9.366   3.412  0.1128 -0.0462  0.0952
15621W        W32469   0.529  15.324  11.540  0.1469  0.1250 -0.1261
15622W        W32470   9.040  12.325  11.241 -0.1221 -0.2267  0.2255
15623W        W32471   2.039   6.337  11.913 -0.3993  0.1357 -0.2323
15624W        W32472  10.928   9.532   0.796  0.1140 -0.2477 -0.0623
15625W        W32473   7.332  11.557  16.137 -0.0099  0.1193  0.0182
15626W        W32474   5.481  11.749   1.529 -0.1349  0.0331 -0.0749
15627W        W32475   3.217  10.666   3.696  0.3310 -0.0599  0.0427
15628W        W32476   7.438   7.888  10.999 -0.0057  0.0583 -0.0354
15629W        W32477  14.363   8.441  11.937  0.1521  0.1997 -0.1302
15630W        W32478   6.069   7.231   1.170  0.1193 -0.0693  0.0293
15631W        W32479  14.994  10.841   0.730  0.1336 -0.1474 -0.3615
15632W        W32480   4.624  14.746  12.519 -0.1015 -0.0453  0.0353
15633W        W32481   7.192   3.601  15.982 -0.1420 -0.0821 -0.0769
15634W        W32482  11.302   4.228  14.237  0.0058 -0.0679 -0.1087
15635W        W32483   0.236   3.107   0.230 -0.3442 -0.0854 -0.1200
15636W        W32484   5.745  10.247  15.487 -0.4302  0.2752 -0.1635
15637W        W32485  12.922   5.377   0.014 -0.1680 -0.0616 -0.0031
15638W        W32486  16.350  14.397  11.097 -0.1020 -0.2013  0.1837
15639W        W32487  11.953  11.917  14.532  0.1455  0.2142  0.0076
15640W        W32488   7.931  12.966  11.168 -0.0687  0.1836 -0.1946
15641W        W32489  17.259   0.880  14.558  0.0407 -0.3444 -0.1671
15642W        W32490   4.539  14.820  13.264 -0.3002  0.1793  0.2116
15643W        W32491  16.886  14.123  15.307  0.1316  0.1403 -0.2518
15644W        W32492  13.547   9.976  16.302 -0.3444 -0.1203  0.2830
15645W        W32493   5.043  11.277   2.302  0.3465 -0.1080 -0.0969
15646W        W32494  18.050   0.342   3.993 -0.0064 -0.2900 -0.2898
15647W        W32495   1.481  16.947  12.190 -0.2116  0.2991 -0.4358
15648W        W32496   2.416   6.849   0.163  0.2923  0.2418 -0.0469
15649W        W32497  16.811  12.747  12.767  0.1772 -0.0412  0.2199
15650W        W32498   8.272  16.852   2.723  0.0911  0.0034  0.0230
15651W        W32499  10.901  12.010  12.590 -0.3191  0.0349 -0.1139
15652W        W32500   3.027  12.549   3.933  0.2251  0.2428  0.0487
15653W        W32501   5.528  11.992  15.023  0.2054 -0.3681  0.0716
15654W        W32502   5.223   8.988  14.786 -0.1127 -0.3258  0.0648
15655W        W32503  16.322   8.509   3.622  0.0383 -0.2282  0.1065
15656W        W32504  11.178   5.882  12.786  0.1449  0.0350 -0.0419
15657W        W32505  15.819  12.818  14.143 -0.0030  0.0031 -0.3213
15658W        W32506  13.317   7.459   2.252 -0.2127  0.0964 -0.3428
15659W        W32507   6.996  10.096   1.066  0.0760  0.0227 -0.0899
15660W        W32508  14.906   4.345  14.348 -0.0137 -0.1665 -0.0799
15661W        W32509  18.006   8.898   2.727 -0.2664 -0.1067  0.1299
15662W        W32510  16.233  12.240   5.476 -0.0186 -0.1961 -0.1794
15663W        W32511   1.457   5.732   4.033 -0.4735 -0.2176 -0.0613
15664W        W32512  14.471   0.229   0.145 -0.1395 -0.1450 -0.1785
15665W        W32513   1.967   0.846  14.411  0.4676 -0.3579 -0.4535
15666W        W32514  13.878   5.717  15.559  0.1939 -0.0681 -0.1434
15667W        W32515   6.177  13.081   3.525  0.0349  0.4039 -0.0559
15668W        W32516   9.736   9.281  15.838  0.0306  0.2413  0.0239
15669W        W32517   1.633   7.415   5.485  0.0847  0.1143  0.1464
15670W        W32518  13.352   8.570  15.669  0.3476 -0.2103  0.1167
15671W        W32519  10.751   2.275   3.711  0.1888  0.0822  0.0920
15672W        W32520   9.063  17.576   0.745 -0.0274 -0.2236 -0.2786
15673W        W32521  14.088  15.262  16.025  0.1583 -0.1001 -0.1054
15674W        W32522   5.319   1.322   2.118 -0.2088 -0.3085  0.0159
15675W        W32523  16.229  12.921  16.285 -0.2098 -0.1242  0.2119
15676W        W32524  17.348   8.240   0.069 -0.0560 -0.0966 -0.2430
15677W        W32525  10.432  10.851   0.571  0.0222 -0.4241  0.0850
15678W        W32526   4.299   7.602   4.219  0.4401 -0.0990  0.1430
15679W        W32527  16.849   9.200  11.794  0.2096  0.0273  0.0845
15680W        W32528   6.335  10.307   1.887 -0.0901  0.1290 -0.0198
15681W        W32529   8.619   8.310  16.069  0.1295  0.1061 -0.0213
15682W        W32530   1.034  17.446   3.959  0.0186  0.3116 -0.1321
15683W        W32531   4.953   7.263  13.736 -0.0119  0.1996 -0.3879
15684W        W32532  11.920   3.677   1.612  0.0773  0.2924 -0.1281
15685W        W32533   9.270  17.651   0.308  0.0721  0.2353 -0.1839
15686W        W32534  11.078   1.354   5.124 -0.2872 -0.0139  0.2818
15687W        W32535  17.594  11.959   0.818  0.0547  0.1466  0.0408
15688W        W32536   1.696  12.243   1.428 -0.0801 -0.1265  0.0965
15689W        W32537   6.915   7.491  14.086 -0.1034 -0.0030 -0.0937
15690W        W32538   7.757  13.883   0.125  0.1958 -0.2213 -0.1114
15691W        W32539   2.736   3.313  11.449 -0.4556 -0.0653 -0.1055
15692W        W32540   0.682   4.678  12.494  0.1366  0.0554  0.3882
15693W        W32541   2.813  15.729  13.024 -0.1810 -0.0660  0.1182
15694W        W32542   7.188   3.129  12.781  0.0593 -0.1536  0.1201
15695W        W32543   2.602   0.001   2.567 -0.2028 -0.0207 -0.0134
15696W        W32544   5.417  14.290  12.787 -0.1670  0.1328 -0.2015
15697W        W32545   4.089   7.409   0.410 -0.2596  0.1059  0.2119
15698W        W32546   5.324   2.432  15.979 -0.2149 -0.0282 -0.0640
15699W        W32547  17.828   2.885   2.418 -0.2176  0.3370 -0.0767
15700W        W32548   3.817   7.196   1.209  0.1384 -0.1779 -0.0653
15701W        W32549   4.687   5.416   0.513 -0.0900 -0.3319  0.1235
15702W        W32550  11.274  13.477  12.139 -0.5205  0.0187  0.0782
15703W        W32551  12.547  15.389   4.613  0.2489  0.0306  0.1548
15704W        W32552  17.642   9.349   0.489 -0.1175 -0.2664  0.3106
15705W        W32553   5.351  12.431   5.504  0.0676  0.0354 -0.1894
15706W        W32554   7.298   4.521  16.232  0.2610  0.2026  0.3451
15707W        W32555   0.811  17.254   2.989  0.1842  0.2002 -0.0937
15708W        W32556   1.029   8.116   3.277  0.0487  0.1225 -0.0364
15709W        W32557   5.269   5.673   1.906 -0.3535 -0.1148 -0.1306
15710W        W32558  11.087  15.109   0.490 -0.0281 -0.2581 -0.1794
15711W        W32559   6.416   6.583   1.771 -0.4200 -0.0384 -0.3037
15712W        W32560   5.697  14.208   3.190  0.1229  0.1343 -0.0542
15713W        W32561   3.221   9.812   2.411  0.0075 -0.2119  0.2512
15714W        W32562   0.906  17.828   0.494 -0.0875  0.4222 -0.3343
15715W        W32563   5.587   0.560  15.445  0.1493 -0.2821 -0.1576
15716W        W32564   1.180  12.201   4.655 -0.4003  0.0494  0.0240
15717W        W32565  17.318   6.064   0.340 -0.1654 -0.0557  0.1753
15718W        W32566  14.086   6.630   2.030  0.1897 -0.0863 -0.0626
15719W        W32567  14.823  14.321  13.446  0.0519  0.1012  0.0922
15720W        W32568   9.863   0.751   0.405 -0.0838  0.0030 -0.0207
15721W        W32569  14.124   7.345  15.774 -0.2800 -0.1724 -0.2673
15722W        W32570   2.966   9.307   3.197 -0.2800  0.0153  0.0478
15723W        W32571  15.281  14.911  12.106  0.3257  0.2764  0.0600
15724W        W32572   0.025  15.376   3.568  0.1282 -0.1651  0.2231
15725W        W32573  17.576   0.848  14.925 -0.1356  0.0980 -0.3356
15726W        W32574   9.500  10.154  13.295 -0.2301 -0.0182  0.0126
15727W        W32575   4.748   1.782  10.640  0.2631  0.2366  0.1946
15728W        W32576   6.939  17.760  14.778 -0.1841 -0.0381  0.1665
15729W        W32577   0.455   3.680  13.508  0.0166 -0.0180 -0.2268
15730W        W32578   0.802  11.196  13.769  0.1539  0.1339 -0.1091
15731W        W32579  12.941   2.090  11.308  0.0158  0.0035 -0.1615
15732W        W32580  15.118  16.712   0.167 -0.0220 -0.0897  0.1095
15733W        W32581   1.817   4.363   5.666  0.0889  0.2854 -0.0847
15734W        W32582   5.989  14.124  12.521  0.0966 -0.0616 -0.2315
15735W        W32583   0.355   0.938  13.433 -0.1188 -0.1460  0.1264
15736W        W32584   1.798   7.762  15.788 -0.1260 -0.1424 -0.1271
15737W        W32585   6.921  17.116   2.930 -0.2240  0.1757 -0.0640
15738W        W32586   1.117   2.991  13.472 -0.2454  0.0213  0.6719
15739W        W32587   2.627  14.858   4.937 -0.1779  0.1417 -0.4151
15740W        W32588  14.293  12.037  14.070  0.0522  0.2300  0.1525
15741W        W32589   9.383  11.003   5.587  0.2471  0.0087 -0.1433
15742W        W32590   3.202   2.618   1.369 -0.1719  0.1494 -0.1313
15743W        W32591   7.072  10.783  14.319  0.2308 -0.2410  0.0479
15744W        W32592   9.240   6.224  14.191 -0.6823  0.1229 -0.2022
15745W        W32593   7.674   7.435  14.538 -0.0471  0.3707  0.0504
15746W        W32594   5.799   3.790   2.818 -0.3542  0.1605  0.0858
15747W        W32595  13.598   1.438  14.442  0.0937 -0.0292  0.0908
15748W        W32596  10.113   0.349  14.859 -0.1807 -0.2269 -0.4866
15749W        W32597   9.607   4.204   5.715 -0.2190 -0.2581  0.0746
15750W        W32598   0.311   9.861  13.402 -0.2603 -0.0530 -0.1136
15751W        W32599  15.630  14.270  11.644  0.0195 -0.0159  0.1583
15752W        W32600   7.683  15.604   2.178 -0.3181 -0.2569  0.2933
15753W        W32601  18.012   1.457  15.228  0.1035  0.1549 -0.1207
15754W        W32602   8.529  17.967  14.207 -0.1668 -0.0890 -0.0809
15755W        W32603  13.706  14.286   2.405 -0.1183  0.0668 -0.3954
15756W        W32604   4.605   6.269   2.382  0.0942 -0.0579 -0.3140
15757W        W32605   4.600  10.727   3.567  0.0985  0.1737  0.1975
15758W        W32606   7.762  13.662  14.641 -0.1582 -0.2007 -0.1356
15759W        W32607   9.617  10.074  14.621  0.2297  0.0131 -0.0051
15760W        W32608   8.224  12.319  11.875  0.2812  0.0534  0.4571
15761W        W32609   6.894   7.220  13.089  0.1830 -0.0130  0.1484
15762W        W32610  12.844   6.603  15.828 -0.0066  0.1515  0.0901
15763W        W32611   9.493  12.120  15.915  0.3701  0.1814 -0.0266
15764W        W32612  15.187   5.804   2.461 -0.2268  0.1960  0.0102
15765W        W32613  15.745   0.438   1.069 -0.2446  0.0517 -0.3078
15766W        W32614   1.426   5.984  12.955  0.2054  0.6146 -0.1097
15767W        W32615   8.786   0.687   3.688 -0.3445 -0.0892  0.0489
15768W        W32616  14.147   0.964   0.785 -0.2081  0.1596 -0.0684
15769W        W32617  13.330   7.930   2.453 -0.3045  0.1765  0.1507
15770W        W32618  12.986  13.628  15.161  0.2680 -0.2021  0.2463
15771W        W32619  17.729  15.473  11.391  0.0401  0.0257  0.2589
15772W        W32620  14.761   9.176   3.887 -0.0432 -0.0758 -0.2726
15773W        W32621   8.275  14.720  13.362  0.1605  0.1188  0.0041
15774W        W32622  12.440  13.741   1.853 -0.4369  0.1203  0.1026
15775W        W32623   7.206   5.191  13.420  0.0622  0.0160  0.3603
15776W        W32624  16.966   1.118  12.683  0.0573 -0.1292  0.1297
15777W        W32625  17.296  10.853  12.104 -0.1077  0.0419 -0.0666
15778W        W32626  11.897   4.291  11.996  0.1065  0.2443 -0.0443
15779W        W32627  13.795  10.386  14.827 -0.0500 -0.1535 -0.0086
15780W        W32628  13.759  11.126  13.142 -0.1517 -0.1585  0.3314
15781W        W32629   8.705  15.906   1.313 -0.5449  0.3198 -0.0099
15782W        W32630   1.907  13.974   3.256  0.2620 -0.0538  0.3647
15783W        W32631   6.696  16.678   0.128 -0.1749 -0.2656  0.1387
15784W        W32632   6.981   9.223   0.822  0.4984 -0.3412  0.0746
15785W        W32633   8.348   8.176  14.241 -0.3200 -0.2279  0.0835
15786W        W32634   1.897   1.839  12.666 -0.1652  0.2589 -0.1683
15787W        W32635   5.664   3.547  11.457  0.2263 -0.0329 -0.2981
15788W        W32636  12.277   5.217   0.372 -0.2371 -0.2739 -0.3805
15789W        W32637  15.770  16.841   6.243  0.1182  0.2161  0.0585
15790W        W32638  10.727  12.775   3.318 -0.1411  0.3129  0.1505
15791W        W32639  17.040   4.080  12.569 -0.0850 -0.1271 -0.1235
15792W        W32640   9.706  10.505   2.555 -0.0513  0.1987  0.2014
15793W        W32641  11.008   5.288  15.471 -0.1886  0.0368 -0.1277
15794W        W32642   8.544   3.536  10.062  0.1385 -0.0185 -0.0572
15795W        W32643   6.592  12.398  13.720  0.0089 -0.0140 -0.1479
15796W        W32644   8.663   5.798   1.779  0.1235  0.2322 -0.0321
15797W        W32645   6.855   2.366   3.974  0.1563  0.0060 -0.1249
15798W        W32646   8.627   3.572  11.527  0.2963  0.0531 -0.3228
15799W        W32647  10.772  17.149  11.830  0.0088 -0.0309 -0.2011
15800W        W32648  16.102   5.263   3.234 -0.0710 -0.0425 -0.3009
15801W        W32649  12.256   6.613   0.691  0.2501 -0.2381 -0.1477
15802W        W32650  13.310  17.996   0.005 -0.2294  0.0485 -0.3989
15803W        W32651  12.612  11.897   5.545 -0.1369 -0.1130 -0.1300
15804W        W32652  13.235  10.716   0.574  0.4229  0.1080 -0.0439
15805W        W32653  15.012  10.011   2.053 -0.0619  0.0318  0.1071
15806W        W32654   9.492  10.380  11.772  0.2913  0.1392 -0.0730
15807W        W32655   0.795   5.927   3.766 -0.0185  0.2033  0.0548
15808W        W32656   7.740   6.873   2.019 -0.0344  0.0507  0.0126
15809W        W32657   6.643   9.964  14.279 -0.3598  0.1314  0.1863
15810W        W32658  17.355  14.370  10.388  0.1708  0.1118  0.1496
15811W        W32659   1.425   4.756   2.429 -0.2207 -0.1172 -0.0496
15812W        W32660   5.053   0.435  15.147 -0.0324  0.1936 -0.1067
15813W        W32661   3.358   7.193  13.787  0.3029 -0.0348  0.3015
15814W        W32662   7.703  10.659  15.475  0.0776 -0.0439 -0.0699
15815W        W32663  17.324   1.475  11.167  0.0183  0.1245  0.1284
15816W        W32664  12.708  12.317   3.260 -0.1770 -0.0569  0.0107
15817W        W32665  17.272  14.560   1.309  0.1550  0.1473  0.3516
15818W        W32666   2.512   0.897  15.179  0.2370 -0.0955  0.0026
15819W        W32667   3.594   6.275  13.193  0.2441  0.3649  0.1449
15820W        W32668  16.124  12.608   1.449 -0.1523  0.1703  0.1633
15821W        W32669   3.599   1.771   1.164 -0.3520 -0.1663 -0.2027
15822W        W32670   4.292   4.414   0.824 -0.1929 -0.0501  0.0885
15823W        W32671  14.295  11.658  15.731 -0.1042  0.2229  0.0355
15824W        W32672  10.565  11.320   1.825  0.3610 -0.2216  0.0437
15825W        W32673   5.396   6.586   1.807 -0.1769 -0.1373 -0.0613
15826W        W32674   9.207   5.745  11.686  0.1107 -0.1161  0.2524
15827W        W32675   2.484  15.756   4.408 -0.1369 -0.1039  0.1649
15828W        W32676   8.810  11.702  12.186 -0.1199  0.0414  0.0478
15829W        W32677   8.145   2.228  11.640  0.4379 -0.1749  0.2522
15830W        W32678   7.585   5.265  13.811 -0.0162  0.2865 -0.1735
15831W        W32679  10.186  12.129  16.240 -0.1591 -0.2516  0.0689
15832W        W32680   8.296  15.317  12.916 -0.1035 -0.1141  0.0668
15833W        W32681  14.922  11.485   3.910  0.2750  0.2454 -0.1380
15834W        W32682  14.079   6.468  12.870  0.1732 -0.2973  0.2525
15835W        W32683   4.756   8.288  10.849  0.0004 -0.2794 -0.0515
15836W        W32684  10.957  10.299   1.443  0.1411 -0.4439  0.2061
15837W        W32685  15.499  16.412   0.198 -0.2353 -0.1246 -0.0950
15838W        W32686  13.451   7.263   4.733  0.0772  0.1199 -0.2547
15839W        W32687   4.907  10.293  14.798 -0.0460  0.3166  0.0869
15840W        W32688  17.855   3.042  11.428 -0.2139 -0.3001  0.0332
15841W        W32689  16.958   1.973   0.621 -0.3048  0.1511  0.0710
15842W        W32690  12.030   7.317   4.487  0.1490  0.0088 -0.2999
15843W        W32691   5.126   7.437  15.389  0.0810  0.2743  0.0364
15844W        W32692  17.874  10.240  11.677  0.3454  0.0535 -0.1896
15845W        W32693   5.617   6.187   2.183 -0.1850 -0.0621 -0.0825
15846W        W32694   3.142   3.441  11.206  0.0445 -0.2462  0.0770
15847W        W32695  12.385   1.870   2.148 -0.1472 -0.0351 -0.1047
15848W        W32696   5.192  17.281  14.341 -0.0754  0.1804  0.0579
15849W        W32697  13.117   1.531   2.637 -0.3683 -0.2481  0.1794
15850W        W32698   1.893   5.716  11.175  0.1173 -0.0126 -0.0262
15851W        W32699   5.670  11.235   4.261 -0.1239 -0.3617 -0.2296
15852W        W32700  14.417   2.032   0.472 -0.1221 -0.0350  0.0825
15853W        W32701  12.870  10.845  12.427  0.3150  0.1166  0.1612
15854W        W32702  14.115   1.152  11.701 -0.0310  0.2333  0.0245
15855W        W32703   9.068  12.030   3.503  0.2527 -0.0728  0.0780
15856W        W32704  14.983  13.427  14.720  0.0649  0.4145  0.2759
15857W        W32705   9.516  15.778   2.051  0.0331  0.2313 -0.0353
15858W        W32706  10.250  17.553   5.174 -0.2704 -0.3519  0.0843
15859W        W32707   1.411  14.618  14.794 -0.0298  0.3116  0.0879
15860W        W32708   6.178   4.835  14.140  0.0002 -0.2363 -0.0434
15861W        W32709   1.635   8.852   2.822 -0.0906 -0.0344  0.1376
15862W        W32710   9.644  15.771  12.011  0.0083 -0.2562  0.1481
15863W        W32711   7.005  11.416  11.971 -0.1347  0.0452 -0.1338
15864W        W32712  11.938   5.534   3.537  0.3026  0.2018 -0.0641
15865W        W32713   6.824  17.865   1.126 -0.1317 -0.1172 -0.0146
15866W        W32714  17.191   7.093  13.580  0.1626  0.1334  0.0412
15867W        W32715   0.590   8.682   1.475 -0.0038  0.0707  0.0313
15868W        W32716   0.108   3.104  11.047  0.0028  0.2879  0.4027
15869W        W32717  10.257  11.307  14.895 -0.4154  0.1521 -0.2238
15870W        W32718  12.434  15.149  11.391 -0.0870  0.0979  0.0097
15871W        W32719   5.736  11.344  12.460 -0.0556  0.0383  0.0631
15872W        W32720   9.075   9.784   3.639 -0.0708 -0.2442  0.1864
15873W        W32721   3.336   1.248  14.854 -0.2043 -0.1998  0.0569
15874W        W32722   0.172  15.818  15.896  0.1023  0.2223 -0.1151
15875W        W32723   3.356   4.793  12.101  0.0396 -0.0231 -0.0458
15876W        W32724  10.723  15.381   3.504 -0.2722 -0.0714 -0.3866
15877W        W32725  17.478  15.494  10.978 -0.2582  0.2056 -0.1023
15878W        W32726   7.938   8.475   1.493 -0.0805 -0.2533 -0.1450
15879W        W32727  13.190   7.215   4.308  0.0869  0.2193  0.0831
15880W        W32728   9.072   2.005  13.120  0.1680  0.2042 -0.0427
15881W        W32729   8.509   6.636   1.457 -0.3171  0.3566 -0.2494
15882W        W32730   3.181  17.340  11.584  0.1266  0.2907 -0.0859
15883W        W32731  16.293  14.948   3.355  0.1159  0.2927  0.2499
15884W        W32732   1.442  17.551   2.335 -0.0895  0.1340 -0.2016
15885W        W32733   0.954   0.875  13.284  0.0499  0.2119  0.1452
15886W        W32734   1.727   2.290  15.477 -0.3161  0.0278  0.0777
15887W        W32735  17.394   8.477   5.475  0.2061 -0.1701  0.1090
15888W        W32736   8.281   9.491   0.039  0.0277  0.0526 -0.3536
15889W        W32737  17.294  11.094  14.764  0.0891  0.4076 -0.3976
15890W        W32738   8.335   3.674   3.081 -0.2234  0.0186  0.0959
15891W        W32739  11.108   2.257   2.133 -0.0956 -0.2423 -0.2179
15892W        W32740   1.658  14.364   3.466 -0.2880  0.1735 -0.2111
15893W        W32741  11.722  10.895  15.202  0.1692  0.3750  0.2741
15894W        W32742  10.815   5.369   3.063  0.0182 -0.1507 -0.0844
15895W        W32743  10.258   8.198  13.832  0.2642 -0.0157 -0.0795
15896W        W32744  13.781  11.736  14.650  0.1833  0.0344  0.0576
15897W        W32745  15.509   8.694  12.341 -0.2734  0.1621  0.0076
15898W        W32746   6.217  10.226  14.190 -0.0492 -0.1719  0.0062
15899W        W32747  15.757  16.256  11.574 -0.4831  0.0177 -0.3573
15900W        W32748   3.820   4.984   0.428 -0.0419  0.1039  0.0586
15901W        W32749   2.398   5.941   2.946 -0.0443  0.0411  0.3640
15902W        W32750   5.093  14.880   3.201  0.0806  0.0575  0.1695
15903W        W32751   4.083   3.239   1.277  0.0564 -0.1786 -0.4425
15904W        W32752   4.573  13.518  11.713  0.2281 -0.0112  0.2886
15905W        W32753  13.789   8.856   0.023 -0.1863 -0.1298 -0.0640
15906W        W32754   1.512   3.678   1.299 -0.2024 -0.1333 -0.1343
15907W        W32755  14.790  15.328   4.168  0.0187 -0.0761 -0.3065
15908W        W32756   3.842  15.282   3.938 -0.0070  0.2507 -0.2755
15909W        W32757  12.346  10.671   3.747 -0.0838 -0.0497  0.1998
15910W        W32758  16.295   5.967  14.483 -0.0319 -0.0995  0.3812
15911W        W32759  17.181   8.360   2.085 -0.0721  0.0403  0.2889
15912W        W32760  10.361  11.150   5.231 -0.0984  0.3324 -0.1429
15913W        W32761  14.353   8.641   3.078  0.1621  0.3585  0.1909
15914W        W32762  14.981  17.868  11.937  0.1161  0.1027  0.3604
15915W        W32763   5.890  15.982  13.329  0.3674  0.0057  0.3145
15916W        W32764  13.197  13.098   5.260  0.1654 -0.2267  0.3882
15917W        W32765  16.034   6.119  15.357 -0.4101  0.2890  0.2240
15918W        W32766   3.002   3.999   0.537 -0.0433  0.1706 -0.1725
15919W        W32767   1.337   2.823   4.064 -0.1584  0.0655 -0.0182
15920W        W32768   5.239   1.916  14.970  0.0363  0.0769 -0.0533
15921W        W32769   4.367   2.171  14.435 -0.1393 -0.1858  0.1622
15922W        W32770  12.198   1.451   2.420 -0.0605  0.0529 -0.2060
15923W        W32771   3.756   9.776  11.040 -0.0897 -0.0198 -0.3036
15924W        W32772   3.382   2.203  12.957  0.1907  0.2159 -0.1307
15925W        W32773   0.110   9.664   1.416 -0.1098 -0.2793  0.0219
15926W        W32774  16.056  14.410  14.116 -0.1907 -0.0772 -0.0588
15927W        W32775   5.920   6.745   2.076 -0.2803  0.0831 -0.0929
15928W        W32776  14.613   3.986   4.990  0.3826  0.0533  0.0703
15929W        W32777  10.805   4.809  13.817  0.1649  0.0033 -0.1310
15930W        W32778  17.468   8.746  12.910  0.1469 -0.1523 -0.0491
15931W        W32779  15.649   9.768   5.258  0.3169 -0.2727  0.2213
15932W        W32780   3.844  16.548   1.310 -0.2675  0.3232 -0.1414
15933W        W32781  12.557  12.892   2.296 -0.0546  0.2108 -0.1539
15934W        W32782  17.421   9.182  16.317 -0.1357 -0.2222 -0.1374
15935W        W32783   7.796  15.441  12.819 -0.0805 -0.2920 -0.0389
15936W        W32784   0.769  14.478  12.603 -0.2471 -0.2009 -0.0201
15937W        W32785   6.714   4.747  13.324  0.0006 -0.0381  0.0381
15938W        W32786   7.289   5.670   0.157  0.1452  0.0260  0.0968
15939W        W32787   6.026   4.778  13.648 -0.2370 -0.1291 -0.0161
15940W        W32788  16.020  16.127   4.599  0.1248  0.0502  0.0273
15941W        W32789   2.430   9.068   5.010 -0.1419 -0.1575 -0.1707
15942W        W32790   6.820   8.728  13.981  0.0393  0.0391 -0.1898
15943W        W32791  10.966   0.144   0.636 -0.0165 -0.1901  0.1141
15944W        W32792  10.349   5.780   0.489  0.1839  0.0018  0.1288
15945W        W32793  15.788   2.159   4.938 -0.1568 -0.0036  0.1121
15946W        W32794  15.356   1.060  14.547 -0.4609  0.0110 -0.0297
15947W        W32795  17.747   8.759   3.576 -0.0518 -0.2991  0.0400
15948W        W32796   9.746  11.890   5.306  0.1051  0.0387  0.2998
15949W        W32797   8.078  13.283   4.975 -0.1910 -0.2611 -0.2155
15950W        W32798  12.294   5.685  15.863 -0.0778 -0.0895 -0.0088
15951W        W32799  12.730   2.841   2.713 -0.0121 -0.2884 -0.0654
15952W        W32800   2.672  15.589   1.122 -0.2787 -0.0106  0.3371
15953W        W32801  12.823   0.579  13.200  0.1321 -0.0620 -0.2471
15954W        W32802  10.183   6.206   1.715 -0.2320  0.1090  0.0447
15955W        W32803  17.734   2.412   4.145  0.2141 -0.2521 -0.2521
15956W        W32804  16.816  10.742   4.564 -0.2583  0.2175  0.0057
15957W        W32805   2.289   5.771  12.639  0.0358  0.3351 -0.1429
15958W        W32806  11.394   2.576  13.464 -0.4358  0.1339 -0.0601
15959W        W32807  15.842   0.399  11.481  0.0547 -0.3346  0.0790
15960W        W32808  14.171   3.287   0.314  0.0282  0.1905  0.1339
15961W        W32809  16.659  10.536   5.587  0.3776  0.6016  0.0021
15962W        W32810   0.721   3.888   1.766  0.1669 -0.0515 -0.5558
15963W        W32811   2.802  14.641  13.804 -0.1631 -0.1633 -0.0121
15964W        W32812  16.226  15.162  13.492  0.1978 -0.0036 -0.5305
15965W        W32813  12.921   3.008  14.628  0.0716 -0.0213 -0.1684
15966W        W32814  17.431   4.743   0.881  0.2180 -0.2668  0.1715
15967W        W32815   1.384  18.085  14.130  0.0165  0.1359 -0.1306
15968W        W32816   7.110   4.696  13.640  0.2914  0.0463 -0.0852
15969W        W32817   5.252  14.317  16.310  0.0278  0.0627  0.1715
15970W        W32818  15.608   4.045  13.018 -0.1871  0.0677  0.1781
15971W        W32819   2.648   1.416  13.794 -0.2679  0.1611  0.0868
15972W        W32820   8.860   8.728   3.661  0.3131  0.0796  0.1454
15973W        W32821   7.919   1.938  11.989 -0.0164  0.0109  0.0756
15974W        W32822   2.451  16.571   5.416  0.1606 -0.3010  0.0009
15975W        W32823   3.100  12.405  12.647 -0.0023  0.0316 -0.0492
15976W        W32824  15.525   4.954   4.846 -0.0365 -0.3703 -0.1504
15977W        W32825  10.921  13.817  12.988 -0.0772 -0.0147  0.2196
15978W        W32826  15.142   5.229  14.765  0.1851 -0.2213  0.0591
15979W        W32827   7.935  13.204  12.683 -0.0271 -0.0386 -0.1821
15980W        W32828   3.199   3.359   5.132  0.0056  0.1446  0.0470
15981W        W32829   9.727   0.093  15.039  0.1686 -0.1389 -0.0558
15982W        W32830  10.109  16.535  11.828  0.0116  0.0731 -0.3447
15983W        W32831   6.822   5.312   0.212 -0.4536  0.3009 -0.1569
15984W        W32832  13.837  10.053  13.933  0.0710  0.0920 -0.1808
15985W        W32833   7.997  12.964   4.609  0.1445  0.1115  0.3515
15986W        W32834   8.696   9.913  12.023  0.0649  0.0969  0.0699
15987W        W32835  16.045  17.654   4.842 -0.4367 -0.1904 -0.1961
15988W        W32836  16.781   9.999   3.983 -0.2294 -0.0847  0.0142
15989W        W32837   6.216   2.592   2.821  0.2416 -0.0704  0.0969
15990W        W32838   9.404  17.629   3.574  0.0097  0.0726 -0.0508
15991W        W32839  12.907  17.687  16.024  0.2457  0.0945 -0.2810
15992W        W32840   5.832  16.476  12.823 -0.1648  0.2412  0.1683
15993W        W32841   4.006   0.989   4.785  0.3760 -0.0843 -0.1969
15994W        W32842   6.716   7.021  12.413  0.1235 -0.0027 -0.0898
15995W        W32843   4.709  16.898   1.091  0.1876 -0.2905  0.2606
15996W        W32844   9.389  16.978   5.817 -0.1917  0.3747 -0.2925
15997W        W32845  13.705   8.591  11.868  0.1295  0.3519 -0.0829
15998W        W32846  16.152   2.982   2.060  0.1529 -0.3229 -0.2757
15999W        W32847   3.120  13.563   4.297  0.1426  0.0715  0.0376
16000W        W32848   9.477  15.137  14.518  0.0208 -0.1103  0.0106
16001W        W32849   2.055   1.568  14.982  0.3714 -0.2543  0.1482
16002W        W32850  17.824   5.739   1.551  0.1686 -0.0037  0.0229
16003W        W32851  15.887   7.912  16.103 -0.1735 -0.2059  0.1927
16004W        W32852  14.609   4.138   0.865 -0.0714 -0.1616 -0.0665
16005W        W32853   2.682   1.898   1.295  0.0985  0.1596 -0.0707
16006W        W32854   1.332  11.196  11.739  0.1163  0.0679  0.2293
16007W        W32855  12.740   9.020   4.132 -0.1992 -0.3282  0.3470
16008W        W32856  11.655  13.152  15.153  0.1770 -0.0301  0.3307
16009W        W32857   9.090   2.809  16.118  0.1700  0.0470  0.0126
16010W        W32858   1.074  10.261   5.969 -0.1145  0.1164  0.1464
16011W        W32859  16.458  15.781  13.874 -0.2356  0.1051 -0.0560
16012W        W32860   8.268  13.900   2.402 -0.2735 -0.1737 -0.3743
16013W        W32861   2.126   7.224  14.095  0.2592 -0.1655  0.3829
16014W        W32862  14.754   4.946  14.256 -0.0564 -0.1006 -0.0322
16015W        W32863   2.430  16.714   1.741 -0.0727 -0.0029  0.3015
16016W        W32864   9.199   4.368  14.779  0.0272  0.4274 -0.0169
16017W        W32865   1.495  13.135  12.830 -0.0672  0.2366 -0.1832
16018W        W32866   6.936   7.601   4.123  0.1076  0.0633 -0.3092
16019W        W32867   9.320   8.003   0.599 -0.0572 -0.0086  0.3625
16020W        W32868   0.609   8.848   3.320  0.3818  0.0688  0.2281
16021W        W32869   3.892  11.495   0.432 -0.1974  0.1523 -0.0864
16022W        W32870  13.534   3.100   3.907  0.0789 -0.2021  0.3080
16023W        W32871  15.519   0.689  14.905  0.0965 -0.0766 -0.0259
16024W        W32872  14.329  16.115   0.114  0.0837 -0.2044 -0.3015
16025W        W32873  16.130   6.197   5.754 -0.0846 -0.0425 -0.1827
16026W        W32874   9.710  13.845   1.922  0.0981  0.0923  0.1633
16027W        W32875   4.202   9.945  15.779 -0.0346 -0.1022 -0.0834
16028W        W32876  15.000   8.158   2.908 -0.0966  0.1025 -0.2252
16029W        W32877   9.741   6.640   2.995 -0.0455 -0.3222 -0.2431
16030W        W32878   0.931  16.789  11.565 -0.2512 -0.0359 -0.1651
16031W        W32879   9.641  12.839   3.210  0.0015  0.1452 -0.1144
16032W        W32880   8.640  10.190  15.078  0.1703 -0.3173 -0.1420
16033W        W32881   1.172   4.336  14.147 -0.1674  0.0988 -0.0391
16034W        W32882  16.058   4.811  13.239 -0.1249 -0.0338  0.0203
16035W        W32883   8.000  16.669  16.085 -0.0740 -0.1897 -0.3273
16036W        W32884   8.725  16.037   5.242 -0.0333 -0.1352  0.1047
16037W        W32885   6.025   5.050  11.499  0.2506  0.4321 -0.0553
16038W        W32886  16.176  12.823   4.491 -0.2148 -0.2325  0.2789
16039W        W32887   5.845  15.890   4.459 -0.5159  0.3589 -0.0045
16040W        W32888  14.489   6.899  14.856  0.0906 -0.3293  0.2405
16041W        W32889   2.719   0.799   1.036  0.2025  0.1926 -0.1471
16042W        W32890   9.067  12.246  13.531  0.1816 -0.0149 -0.4475
16043W        W32891  15.588   1.037   2.753 -0.1567 -0.2083 -0.1565
16044W        W32892  10.506  16.717   0.273  0.1064  0.3110 -0.0193
16045W        W32893  13.595   8.700  11.330 -0.1254  0.0797  0.1007
16046W        W32894   4.676  15.278   4.447  0.1745  0.2265 -0.3085
16047W        W32895  15.183   2.215  12.814  0.0890 -0.0446  0.0680
16048W        W32896  17.063   5.719  13.780 -0.4353  0.2027  0.1952
16049W        W32897  13.380   9.040  13.482 -0.4575 -0.0464  0.0709
16050W        W32898  15.941   6.610   5.466 -0.1693  0.0515 -0.0768
16051W        W32899  17.578  17.947   2.767  0.1024 -0.1280  0.0366
16052W        W32900  15.865  16.250  15.504 -0.1729 -0.2984  0.1212
16053W        W32901   9.397  15.027  15.551  0.2536 -0.0562 -0.1016
16054W        W32902   8.782  14.325   5.259 -0.0815  0.0438  0.0885
16055W        W32903   7.783  14.814  12.132  0.0511 -0.1269 -0.2009
16056W        W32904   9.296   4.818   2.138 -0.0465  0.1571  0.0716
16057W        W32905  15.191  12.644  11.826  0.0609  0.1250 -0.2302
16058W        W32906  17.168   1.080  10.838 -0.1041 -0.0330 -0.2291
16059W        W32907  15.075  12.351   1.262  0.3018 -0.0394  0.0795
16060W        W32908   8.125   7.770  10.791 -0.0073 -0.0510 -0.0144
16061W        W32909   3.162  13.716   0.643 -0.0808 -0.0884 -0.2026
16062W        W32910   9.278  16.643   3.790 -0.0447  0.0456 -0.1606
16063W        W32911   9.270   9.617  15.536 -0.1573 -0.1184  0.1966
16064W        W32912  13.558   3.826   4.953  0.2413 -0.1881  0.2035
16065W        W32913  17.346   1.584   0.519  0.1629 -0.0746 -0.2184
16066W        W32914   5.748   0.922   0.453 -0.5004  0.0317  0.3070
16067W        W32915  14.521   5.211   2.832  0.1178 -0.0833  0.0453
16068W        W32916   3.702  14.119   1.476 -0.0268  0.0381 -0.0138
16069W        W32917   2.828  15.691  15.016  0.1973  0.3341  0.1465
16070W        W32918   6.726   8.634   1.122 -0.0078 -0.1782  0.2861
16071W        W32919  10.708  15.299  13.619  0.1174  0.0376  0.0754
16072W        W32920   8.697   4.007   4.087 -0.3226 -0.0920 -0.2026
16073W        W32921   7.646   6.503   0.247  0.0344 -0.0502 -0.2192
16074W        W32922   8.572  11.106   0.617  0.1018  0.1951 -0.1768
16075W        W32923  12.896   0.102   2.237 -0.1499 -0.2620  0.1737
16076W        W32924  15.435   0.349   4.980  0.0580 -0.0505  0.0900
16077W        W32925   2.043   3.606   1.673  0.0402  0.1747  0.4201
16078W        W32926  13.671   3.220  15.013 -0.0486 -0.0125  0.0089
16079W        W32927  11.861  11.546  15.522  0.3388  0.0991 -0.6184
16080W        W32928   5.720   5.027   0.093 -0.3083 -0.1293 -0.0697
16081W        W32929   6.075  11.842   5.387  0.2219 -0.4033 -0.2166
16082W        W32930  11.291   4.760   3.648  0.0971  0.0921 -0.0296
16083W        W32931   5.833   2.901   4.948  0.0850 -0.0068  0.2585
16084W        W32932   7.208   1.314   4.274  0.4300  0.0669 -0.3593
16085W        W32933  10.296  10.235  12.040  0.1005  0.2823 -0.2156
16086W        W32934  10.070   1.277  15.347  0.0530 -0.0439  0.1244
16087W        W32935   4.683  16.989   1.564 -0.4246 -0.0460  0.3899
16088W        W32936  13.315   7.135   1.906  0.1974 -0.2014  0.1437
16089W        W32937  16.763  16.554  13.935  0.0774  0.0029  0.1416
16090W        W32938   8.607   6.504  13.227  0.0153  0.1593 -0.0894
16091W        W32939   4.190  13.198  12.420 -0.1214 -0.2007 -0.1075
16092W        W32940  14.113  11.537   4.790  0.1752  0.1576  0.0653
16093W        W32941   5.687   2.364   0.700 -0.3677  0.3955 -0.2108
16094W        W32942   9.302   6.759  12.036 -0.1637  0.1476 -0.0651
16095W        W32943  15.324   9.886  11.496 -0.1488 -0.3038 -0.1937
16096W        W32944   6.027   1.384  11.132  0.2680 -0.1768  0.0311
16097W        W32945   9.092  13.109  14.939  0.0811 -0.1248  0.3343
16098W        W32946   0.062   9.520  13.627 -0.0803 -0.2884 -0.0076
16099W        W32947   0.603  12.687   2.816 -0.0736 -0.0684 -0.0322
16100W        W32948  12.223   1.470   1.904 -0.1823 -0.2671  0.2111
16101W        W32949   7.002   5.475  12.544  0.0847  0.1045  0.1921
16102W        W32950  16.544  10.762   3.610  0.1904 -0.1255  0.0879
16103W        W32951   4.382   4.534   4.237 -0.2804  0.0981 -0.1988
16104W        W32952  14.015  14.412  13.951  0.1739  0.2849  0.0449
16105W        W32953  15.287   0.694   1.071 -0.1414 -0.2084 -0.1875
16106W        W32954  10.325   4.603  12.005  0.2120 -0.2825  0.2572
16107W        W32955   2.520  14.236  13.645 -0.2451  0.2115 -0.1320
16108W        W32956  14.572  11.379   2.223  0.3049  0.1693 -0.2914
16109W        W32957   1.361  12.041  11.835  0.0246  0.0372  0.2283
16110W        W32958   4.990   6.737   2.844 -0.5409  0.0855  0.1637
16111W        W32959   9.179   1.989  11.298 -0.2625  0.2556 -0.1873
16112W        W32960  11.955   8.632   4.505  0.2952  0.0041 -0.3627
16113W        W32961  12.760   3.366  14.245  0.2289 -0.2501 -0.3648
16114W        W32962  14.217   7.373   4.243 -0.0663  0.0587  0.2579
16115W        W32963   6.426  10.890  14.505 -0.0499  0.0410 -0.0047
16116W        W32964  11.783   8.142   3.055  0.1050  0.1072  0.1330
16117W        W32965  11.354  14.478   0.686 -0.1131  0.2559  0.0771
16118W        W32966   8.015  14.062  13.985  0.2577  0.2005  0.0100
16119W        W32967   5.954  13.499   3.822 -0.1005 -0.1159  0.0657
16120W        W32968   5.225  15.098   0.984 -0.0905 -0.1813 -0.1366
16121W        W32969  11.466   6.370  14.562 -0.2431 -0.4093  0.1781
16122W        W32970  10.522  15.101   4.885 -0.0036  0.1296  0.2969
16123W        W32971  13.335   2.184  16.084  0.0589 -0.1267 -0.2517
16124W        W32972   8.074   2.808  13.852  0.0148 -0.1242  0.0420
16125W        W32973   1.983  16.848  12.380 -0.0613  0.0130 -0.3249
16126W        W32974  14.443   5.041   1.835 -0.1894  0.2803 -0.0226
16127W        W32975   4.716   4.989  14.247  0.0300 -0.0572  0.0132
16128W        W32976  10.845  14.469   2.013  0.3269 -0.0591 -0.1099
16129W        W32977  14.105  16.774   1.367  0.1990  0.3342  0.1105
16130W        W32978  13.935   0.789  15.727 -0.0609 -0.0122  0.3333
16131W        W32979   2.071   3.993   2.413  0.1469 -0.0991  0.1829
16132W        W32980   8.116  12.539   4.919 -0.1820  0.2663 -0.0543
16133W        W32981  11.125   7.353  11.973  0.2020 -0.0092 -0.1766
16134W        W32982  17.285   5.904  12.335  0.1061 -0.5017 -0.1868
16135W        W32983   4.343   4.390  14.075 -0.2149  0.2196 -0.0374
16136W        W32984   9.710   1.073  14.126 -0.2005  0.0079 -0.2223
16137W        W32985  12.894  16.058   5.724 -0.1299  0.0809 -0.1744
16138W        W32986   3.039   9.672   3.533 -0.1372 -0.0457  0.0397
16139W        W32987   2.188  15.213  13.425 -0.1600 -0.2376  0.0439
16140W        W32988  13.661  13.002  14.997 -0.0485  0.2824 -0.0575
16141W        W32989  15.911  16.827   2.591  0.0919  0.2647  0.3191
16142W        W32990  17.835  14.769   4.700 -0.0408 -0.0400  0.0123
16143W        W32991   2.048   3.117  14.708  0.3883 -0.0168 -0.0381
16144W        W32992   9.975  14.129  13.504  0.1307  0.5400  0.0914
16145W        W32993  14.963  14.719   2.943 -0.0643 -0.3653 -0.1679
16146W        W32994  11.369   6.896   4.295 -0.1992 -0.0625  0.0413
16147W        W32995   6.379   1.220   4.212 -0.0115  0.0288  0.1130
16148W        W32996   3.501  12.638  11.903  0.1007  0.1510  0.1794
16149W        W32997  12.415   8.393  10.343  0.0448 -0.1031  0.2548
16150W        W32998   5.562  13.427   2.443  0.0521 -0.2173  0.1552
16151W        W32999  15.760  13.453  14.114 -0.1807 -0.1649  0.1173
16152W        W33000  12.005  16.648  11.085  0.2605  0.2369 -0.1105
16153W        W33001  14.080   3.951   5.064 -0.0830 -0.2262 -0.3923
16154W        W33002  11.599   1.970   4.671 -0.1097  0.2732  0.0129
16155W        W33003   3.116   8.732   6.062 -0.1061  0.1108 -0.0420
16156W        W33004   7.183  13.155  14.702 -0.1396  0.3258 -0.0035
16157W        W33005   2.945   3.855   4.921 -0.0090 -0.2310 -0.1427
16158W        W33006   3.377  15.474   2.333 -0.0453 -0.4756 -0.1586
16159W        W33007   2.728  12.147  12.960  0.0205 -0.2078 -0.0612
16160W        W33008   1.675   9.991   0.471  0.1266  0.2919  0.0487
16161W        W33009   2.466   5.444   3.044 -0.2271  0.1241  0.1071
16162W        W33010   6.995  16.330  15.212 -0.1857  0.0570 -0.4121
16163W        W33011  12.833  12.113   4.812  0.2259 -0.3607  0.0200
16164W        W33012  17.224   8.632  13.342 -0.0783  0.1690 -0.1060
16165W        W33013  10.012  16.548  16.032 -0.2584 -0.2047  0.0185
16166W        W33014  16.792   3.665   1.512  0.1300  0.0520  0.2466
16167W        W33015  16.676  15.270  13.074 -0.2226 -0.2019 -0.1740
16168W        W33016   0.283  17.003  12.567  0.0004 -0.0906  0.1306
16169W        W33017   8.251  10.325  15.809 -0.2200 -0.0846 -0.1706
16170W        W33018   0.685  12.324   0.651 -0.0563  0.4982  0.2584
16171W        W33019   7.311  11.826  13.167  0.1146  0.4343 -0.0835
16172W        W33020  10.313   5.939  12.251 -0.1852 -0.4012 -0.0996
16173W        W33021   1.425   2.290  11.740  0.0126 -0.0657 -0.0913
16174W        W33022  12.134   5.993  12.478  0.0298 -0.2949 -0.0079
16175W        W33023   9.057  15.341  10.471  0.1001 -0.0685 -0.0734
16176W        W33024   0.777  13.495   1.094  0.1095  0.4170  0.1992
16177W        W33025  14.429  14.679   2.240 -0.0434 -0.1553  0.0297
16178W        W33026   8.773  11.859  12.870  0.3230  0.2234  0.0512
16179W        W33027  12.302   3.881  11.734 -0.1588  0.0198  0.1273
16180W        W33028  15.938   2.997   0.186  0.1412  0.0388 -0.2656
16181W        W33029   7.864   4.485   1.986  0.2652  0.0272 -0.1079
16182W        W33030  17.646  13.060   0.544  0.1418  0.0963 -0.3515
16183W        W33031  12.233  17.975  14.775  0.0010  0.3069  0.3635
16184W        W33032   5.148  15.478  14.343  0.0227 -0.0774 -0.2697
16185W        W33033   4.987  13.959  11.103 -0.0793  0.2764 -0.0307
16186W        W33034   3.402   0.814   3.974  0.1512  0.2195 -0.0542
16187W        W33035   6.422  15.644  15.723 -0.1417 -0.2374 -0.0116
16188W        W33036   7.927  14.789   2.543  0.1591 -0.4832  0.4091
16189W        W33037   9.639   7.093  11.866  0.0896 -0.3536  0.2030
16190W        W33038  17.643  12.452  14.479 -0.1355  0.0187 -0.1390
16191W        W33039   6.715  17.951   4.973 -0.2035  0.0273 -0.1290
16192W        W33040  11.377  10.742  15.552 -0.0576 -0.0503  0.1110
16193W        W33041   5.980  14.539   0.596  0.1255 -0.1652  0.1299
16194W        W33042  17.452  13.657   1.847  0.4681  0.0344 -0.0236
16195W        W33043   0.888   6.664  11.301 -0.0730 -0.2322  0.3179
16196W        W33044   1.817   4.459   1.553 -0.0331  0.0597 -0.0207
16197W        W33045   7.937   9.859  14.818  0.0404  0.0064  0.5570
16198W        W33046   1.068  16.293  11.538  0.2412 -0.0890 -0.1002
16199W        W33047  12.020  16.619  14.578  0.0336  0.0827  0.2044
16200W        W33048   4.388   9.583   4.419  0.0738 -0.0439  0.4426
16201W        W33049   4.874  14.524   2.468 -0.1780  0.0392 -0.2419
16202W        W33050   8.734   3.660   0.158 -0.0586 -0.0908 -0.0203
16203W        W33051   1.556   4.183  12.867  0.1798 -0.0840 -0.0432
16204W        W33052   0.389   8.842   5.442 -0.0503 -0.1276 -0.3625
16205W        W33053  10.983   1.043  12.979  0.0841  0.2543 -0.0583
16206W        W33054   7.475  17.790   3.477 -0.3867  0.1205  0.0011
16207W        W33055  11.401   9.431  11.581 -0.1584 -0.2144 -0.0237
16208W        W33056  16.029   0.598   0.629 -0.1972 -0.2654 -0.0780
16209W        W33057   8.956   4.490  12.600 -0.1668  0.2020  0.0389
16210W        W33058   8.923  14.714  16.303  0.3920 -0.0169 -0.1210
16211W        W33059  12.864  13.370  15.571  0.1787  0.0739 -0.1111
16212W        W33060   4.381   2.570  12.021 -0.0746  0.2560 -0.0686
16213W        W33061  10.701   4.700   2.118 -0.0978 -0.2470  0.0060
16214W        W33062   6.207   5.820   0.972  0.0849 -0.0219 -0.2431
16215W        W33063   0.195   4.558  12.604 -0.1258 -0.1024 -0.0792
16216W        W33064   8.229  15.032  10.694 -0.0809  0.0952 -0.0357
16217W        W33065  12.521  13.438   0.130  0.0084 -0.0241 -0.1128
16218W        W33066  13.605   1.407  15.042  0.0341  0.2907 -0.1702
16219W        W33067  11.693   7.270  14.031 -0.2012 -0.3553  0.0770
16220W        W33068   5.462   8.771   3.929 -0.1709  0.1123 -0.2771
16221W        W33069  14.086   4.079  11.107 -0.0666  0.1572 -0.0701
16222W        W33070  13.120   0.601  14.520 -0.2909  0.0556  0.1587
16223W        W33071   7.648  17.599  10.166 -0.4469  0.0431  0.0138
16224W        W33072  10.262   0.335  11.998  0.0788 -0.2526  0.0454
16225W        W33073   5.450  11.059  12.813  0.2214  0.1951  0.0601
16226W        W33074   7.202   8.229   2.069 -0.0145  0.6934 -0.0801
16227W        W33075  14.125   3.192  15.298 -0.0859  0.2554  0.3109
16228W        W33076   7.441  11.095  15.248 -0.1508  0.1216  0.1215
16229W        W33077   2.652  16.044  15.907 -0.0806 -0.1211  0.1926
16230W        W33078   2.467   6.964   5.802 -0.1708  0.0313 -0.0605
16231W        W33079   8.565  10.909   3.066  0.0206  0.1607  0.0763
16232W        W33080  13.561   6.148  16.231  0.1511  0.1369  0.0336
16233W        W33081   5.031   0.273   3.270 -0.4986 -0.0885 -0.0881
16234W        W33082   6.226  17.731   5.074  0.2813  0.1381 -0.1840
16235W        W33083  14.844  11.069   4.366 -0.7989  0.2358  0.0028
16236W        W33084   5.980   5.266   5.089  0.0252 -0.2354  0.1347
16237W        W33085  11.202  17.593   3.386 -0.0808 -0.0724 -0.1892
16238W        W33086   7.975   1.250   3.649  0.1123  0.0186 -0.1422
16239W        W33087  15.424   7.029  12.151 -0.2794 -0.0887 -0.2889
16240W        W33088   1.362   8.705   0.579 -0.1472 -0.0432 -0.2233
16241W        W33089   0.110   8.545   3.520 -0.0893  0.2312 -0.0394
16242W        W33090   5.397   2.013  13.371 -0.0176  0.0399  0.2808
16243W        W33091   6.320  13.028  15.304  0.0203  0.2773 -0.0930
16244W        W33092   8.571  14.941   2.318  0.0470  0.1920 -0.0698
16245W        W33093  17.539  15.724   2.040 -0.1269 -0.0222  0.0128
16246W        W33094  15.641  16.329  16.003 -0.0561 -0.0870 -0.1071
16247W        W33095   2.988   9.302  13.832  0.1228  0.5696  0.3172
16248W        W33096   7.163   2.646   4.311 -0.1764  0.1075  0.0491
16249W        W33097   5.125   5.538   0.733  0.1293 -0.1661 -0.1045
16250W        W33098   2.045  11.836   4.792 -0.1379  0.1138  0.1330
16251W        W33099   6.134  16.877  13.688  0.0625 -0.1338  0.0735
16252W        W33100  11.319   7.733  11.123  0.0944  0.1134 -0.1951
16253W        W33101   3.389   2.039  14.838  0.0912  0.1424 -0.2278
16254W        W33102   2.044   0.704   3.290 -0.2996  0.3251 -0.0443
16255W        W33103   2.870   0.451  11.819 -0.0034 -0.2255  0.1462
16256W        W33104  11.482  18.043   0.527 -0.0339  0.0279  0.2957
16257W        W33105   3.419  15.593   2.833  0.0941  0.0072  0.0487
16258W        W33106  11.059  13.643  14.945 -0.1456  0.2414 -0.1775
16259W        W33107  12.051   2.255   0.046 -0.0275  0.0170 -0.1848
16260W        W33108   2.006  10.649   2.692 -0.1804 -0.0984  0.2280
16261W        W33109  14.538  14.010   1.818 -0.3681  0.3094 -0.0060
16262W        W33110   0.258   2.473  10.988 -0.0384  0.0305  0.2725
16263W        W33111  16.018   5.290  13.330  0.1950  0.1902  0.4435
16264W        W33112   2.977   7.063   0.295 -0.0210  0.1085  0.0894
16265W        W33113   6.018   0.950  15.674  0.1243 -0.0451  0.0954
16266W        W33114  12.814   8.570  15.563 -0.1844 -0.0146 -0.2553
16267W        W33115   4.322   5.658   5.411 -0.0826 -0.2084 -0.0356
16268W        W33116   6.490   8.052   1.253  0.0439 -0.2822  0.0663
16269W        W33117   1.584  15.570  12.771 -0.0673  0.0104  0.1947
16270W        W33118   4.540   9.429  13.533 -0.4363  0.2419 -0.0913
16271W        W33119  10.694   5.501   0.790  0.0065  0.1668  0.0684
16272W        W33120   0.021  15.632  13.703  0.1513  0.0068 -0.0605
16273W        W33121   2.894  16.125   3.428 -0.3071 -0.0359  0.2510
16274W        W33122   9.575   0.520   4.945  0.3541  0.1581  0.2089
16275W        W33123   2.299  16.278  14.301  0.0391 -0.1912  0.3339
16276W        W33124   2.043   8.990  13.447  0.0627  0.2582  0.0909
16277W        W33125  14.708  15.145   3.748 -0.1399 -0.1439  0.2430
16278W        W33126  13.204   8.147   1.968 -0.0824  0.3323 -0.3105
16279W        W33127   9.661   1.190  11.016  0.2964  0.3258  0.1990
16280W        W33128  10.883   8.913  15.748 -0.3371  0.2683 -0.1316
16281W        W33129   5.840   4.126   3.415  0.0060  0.1283  0.1841
16282W        W33130  10.901  12.352   0.885 -0.1709  0.0147 -0.0480
16283W        W33131   2.105   5.802  13.437 -0.0702  0.2322 -0.1204
16284W        W33132  12.059  13.361   4.763 -0.0290 -0.1117  0.4939
16285W        W33133   6.280  10.667  13.988  0.5571 -0.4161 -0.0177
16286W        W33134   8.231  17.677   4.432 -0.0580  0.0635 -0.1550
16287W        W33135  13.274  15.051   1.221 -0.1961 -0.0460  0.1484
16288W        W33136   2.050  12.667   0.279  0.1807  0.0884 -0.0093
16289W        W33137  17.687   9.427   2.764 -0.2763  0.1871  0.2477
16290W        W33138  14.285   9.598  15.267 -0.0337 -0.1336 -0.1982
16291W        W33139  17.156   9.168   3.879  0.2593 -0.0334 -0.2816
16292W        W33140   1.262   5.605  13.377 -0.0814 -0.2498 -0.0421
16293W        W33141  16.917   9.152   2.485  0.0982  0.3014  0.0301
16294W        W33142  10.352   2.720  12.264  0.5050  0.2434  0.3097
16295W        W33143   6.001  14.189  12.002 -0.2315  0.3120 -0.3344
16296W        W33144  16.303   1.279  14.027  0.1240 -0.1096 -0.0922
16297W        W33145  16.017   0.736  14.974 -0.0240 -0.0654  0.2691
16298W        W33146   9.318  11.651  16.029  0.3392 -0.0493  0.2480
16299W        W33147  14.796   8.781   4.393 -0.0759 -0.2341 -0.1607
16300W        W33148  16.171   4.209  11.517  0.0823 -0.0704  0.0035
16301W        W33149   0.297   0.740  13.928 -0.3410  0.0866 -0.0573
16302W        W33150  14.305   8.811   1.912  0.0577  0.0452 -0.0727
16303W        W33151   6.656   1.458   1.971 -0.2259 -0.4102 -0.5639
16304W        W33152  14.088   9.225   4.975  0.1373 -0.1663 -0.0552
16305W        W33153   4.569   5.208  11.716 -0.3323 -0.0877  0.0451
16306W        W33154   6.188  14.412   3.284  0.1104 -0.3346 -0.0842
16307W        W33155   7.639   7.788  13.740  0.0806 -0.1909 -0.0590
16308W        W33156   6.539  17.967   2.627  0.1672  0.1194 -0.0278
16309W        W33157   2.321   5.729   2.511  0.0267  0.0410 -0.4329
16310W        W33158   2.431   1.662   0.186  0.1398  0.0098 -0.0214
16311W        W33159   9.222  15.741   0.293 -0.1484 -0.2294 -0.0659
16312W        W33160   3.252   5.608   4.047  0.1387 -0.1866 -0.1391
16313W        W33161   4.520   3.819   2.071  0.0430  0.2692 -0.3984
16314W        W33162   4.605   5.634  13.368 -0.0363  0.1851 -0.1998
16315W        W33163  16.748   2.435   2.575  0.0553  0.1120 -0.1854
16316W        W33164   7.410  14.822   5.251  0.0331  0.0233 -0.1713
16317W        W33165  13.759  11.385  16.007  0.1789 -0.3008  0.0328
16318W        W33166  16.459   6.612   0.411 -0.1288 -0.0448 -0.4000
16319W        W33167  15.325  17.655  16.289 -0.0819  0.0225 -0.0990
16320W        W33168  17.915  17.583  12.074 -0.1441 -0.0479 -0.3598
16321W        W33169  17.011  12.659   2.546  0.0203  0.0191  0.1442
16322W        W33170   9.081   8.259   3.647  0.1285  0.2294 -0.0588
16323W        W33171   2.358   9.110  12.408  0.0103  0.1065  0.0594
16324W        W33172   4.113   4.781   1.209 -0.0645 -0.1261  0.0804
16325W        W33173   2.509  12.813  11.994  0.0056 -0.2119  0.2207
16326W        W33174  15.822   3.291   2.239 -0.2261  0.1773 -0.1687
16327W        W33175  17.142  10.137   1.144 -0.1883  0.1905 -0.0020
16328W        W33176  16.338   9.065   0.597  0.2752  0.2309 -0.3002
16329W        W33177   5.025  10.328   1.499  0.0519 -0.0800 -0.2026
16330W        W33178   8.520  16.083  14.748  0.0723 -0.1937 -0.2303
16331W        W33179  12.841  17.167   0.401 -0.2017  0.2633  0.0405
16332W        W33180  11.056  12.850  11.469  0.0333  0.0166 -0.2063
16333W        W33181  14.794  15.752  14.376 -0.2247  0.0111  0.1117
16334W        W33182   1.942   6.041   4.678 -0.1452  0.0395 -0.0124
16335W        W33183  17.029  15.124   3.837  0.1268  0.2594  0.0150
16336W        W33184  12.393  16.817   3.276 -0.1324 -0.3112 -0.0773
16337W        W33185   7.002   4.956  16.283 -0.2261  0.1488  0.2951
16338W        W33186   2.071  12.426  14.255 -0.0063  0.1498  0.3250
16339W        W33187   1.099   7.752   0.038  0.0313  0.4119 -0.2267
16340W        W33188  12.801   7.202   3.506  0.0744  0.0393 -0.2868
16341W        W33189   1.201   9.926   0.867 -0.0462  0.2240  0.1272
16342W        W33190  16.832   1.864   3.953  0.3623  0.0935  0.1054
16343W        W33191  12.623   8.938   2.946  0.0781  0.2696 -0.0294
16344W        W33192   1.046   9.621   2.649 -0.1163 -0.2221  0.0107
16345W        W33193   2.172  12.835  10.948 -0.2922 -0.0720 -0.0305
16346W        W33194   2.918  17.036  15.920  0.0392  0.0692  0.0318
16347W        W33195  11.711  14.023   3.012  0.2715  0.0163  0.0383
16348W        W33196  10.519   2.964   2.506 -0.1851 -0.0078  0.3417
16349W        W33197   4.460   6.922  11.596 -0.0180 -0.0844 -0.1490
16350W        W33198  12.298   1.391  15.700 -0.0611 -0.1056  0.2313
16351W        W33199   1.639   0.905   1.143  0.4318  0.0098 -0.3933
16352W        W33200   9.377   7.864   2.360 -0.0194 -0.0738 -0.1304
16353W        W33201   4.225  11.019  16.149  0.1645 -0.2203 -0.0978
16354W        W33202   8.193  14.577  11.536 -0.3899  0.3323 -0.0753
16355W        W33203  11.260  15.986   3.623 -0.2722 -0.1903 -0.2533
16356W        W33204  14.417   3.740   1.133 -0.0545  0.3829 -0.2055
16357W        W33205   2.112  12.251   0.595  0.1051  0.1356  0.0645
16358W        W33206   5.432  13.623   4.592  0.0533  0.1764 -0.0840
16359W        W33207  12.737  12.287  14.736 -0.2142  0.1767 -0.0018
16360W        W33208  11.233   7.679   1.595 -0.3329  0.2651  0.2596
16361W        W33209  10.459   3.544  11.224  0.0701 -0.0925 -0.2318
16362W        W33210  16.703  10.341   0.436  0.0296 -0.0785 -0.3084
16363W        W33211   7.285  16.213   4.367  0.3539 -0.1103 -0.0274
16364W        W33212  17.851  13.937   1.741 -0.0216 -0.1178  0.4914
16365W        W33213  11.333  11.866  13.286 -0.2267 -0.4129 -0.0132
16366W        W33214   6.455   6.422   2.846 -0.0250  0.1701 -0.0724
16367W        W33215  15.843   4.745  14.447  0.1924 -0.0049  0.0184
16368W        W33216   9.816  14.155   3.473  0.1206  0.2184 -0.1002
16369W        W33217   7.395  14.739   2.631 -0.0079  0.1192  0.0030
16370W        W33218  17.090   9.329   3.311 -0.2018  0.2268 -0.1644
16371W        W33219   6.308   4.343   0.648 -0.1321  0.0688 -0.0620
16372W        W33220   6.009   8.266   1.420 -0.3626  0.1284  0.1760
16373W        W33221  12.730  10.200  15.764  0.0637 -0.5027 -0.1096
16374W        W33222   9.998   1.996  12.375  0.0351  0.1529  0.2037
16375W        W33223   5.472   1.184   4.702  0.0952  0.0333  0.0324
16376W        W33224   3.382   0.390  12.794  0.0489 -0.0465  0.1576
16377W        W33225   9.855  15.856   1.151 -0.1967  0.0266  0.3961
16378W        W33226   3.565   9.783  14.767  0.1754 -0.2878  0.2885
16379W        W33227  18.005  16.308  10.944 -0.1454 -0.0770  0.0917
16380W        W33228  12.946   7.227   1.486  0.0727 -0.5567  0.0428
16381W        W33229   2.372  13.895   2.003 -0.0820 -0.1012 -0.1994
16382W        W33230  15.507   8.183  13.946  0.1407  0.3196 -0.0047
16383W        W33231   6.340  13.006  12.047  0.1125  0.4041  0.1266
16384W        W33232   0.425  17.919   4.799 -0.1399  0.4551 -0.1622
16385W        W33233   9.578   0.566  15.940 -0.0594  0.3730  0.2040
16386W        W33234   9.510   5.229   5.837 -0.0385 -0.2456  0.0041
16387W        W33235  11.794   8.123   1.854 -0.2069 -0.2587  0.0103
16388W        W33236  11.577  17.263   3.174  0.0274  0.0020  0.1119
16389W        W33237   0.977   0.145  12.632 -0.1692 -0.1696  0.0242
16390W        W33238   7.563  16.791  11.146 -0.0059 -0.1782 -0.1068
16391W        W33239   1.374   2.720  12.664 -0.1840 -0.2348 -0.3823
16392W        W33240  10.715   6.194   4.360 -0.0308  0.0910  0.2051
16393W        W33241   3.122   6.098   1.595 -0.2911 -0.1549  0.1022
16394W        W33242  12.541  15.082  11.867 -0.1661  0.2096 -0.1772
16395W        W33243  17.770   3.494   3.317 -0.1080  0.3684  0.0375
16396W        W33244  16.000   4.170  13.383 -0.3584 -0.2810  0.1796
16397W        W33245  12.240   8.999  14.150 -0.1155 -0.0496  0.1561
16398W        W33246  14.090   3.324  16.149  0.0285 -0.1175  0.0929
16399W        W33247  17.727  14.565  14.922  0.0965 -0.3486 -0.2770
16400W        W33248  17.806   5.952  12.153 -0.1576 -0.2416  0.0453
16401W        W33249   8.499  13.915   4.472  0.4930 -0.0486 -0.4213
16402W        W33250   8.072   8.596  13.551 -0.4086 -0.0060  0.0921
16403W        W33251  13.333   1.972   1.049 -0.1447 -0.3820 -0.0977
16404W        W33252   2.314  10.109   2.221 -0.1419 -0.1308  0.1626
16405W        W33253   2.245  15.684  12.059 -0.0663  0.2736 -0.2799
16406W        W33254   5.229  15.100  13.155 -0.1071  0.0932 -0.0721
16407W        W33255  15.165   2.662   5.817 -0.1248  0.1761  0.2636
16408W        W33256   8.025   4.639  13.902 -0.0146 -0.0255 -0.0040
16409W        W33257  10.048   7.177   4.598 -0.1178  0.1663  0.0048
16410W        W33258   7.037  10.280  11.564 -0.2373 -0.0727  0.0919
16411W        W33259  18.038   3.522   4.317 -0.0981 -0.1582  0.2915
16412W        W33260   5.778  13.437  15.183 -0.1010 -0.0306 -0.0718
16413W        W33261   4.776  10.602   1.808 -0.0884 -0.0807  0.0686
16414W        W33262   1.797   7.575   1.367  0.0627  0.2775  0.2991
16415W        W33263  14.031  16.311  11.928 -0.1168 -0.0321 -0.3274
16416W        W33264  17.787   9.665   3.373  0.0130  0.2778 -0.2833
16417W        W33265   8.167   1.508   5.323  0.0265 -0.5950  0.2972
16418W        W33266   0.785  10.638   4.493 -0.0753  0.2411 -0.0560
16419W        W33267  12.288   9.379   5.232  0.1018 -0.0698  0.1198
16420W        W33268   8.609  12.421   4.997  0.2318  0.1802  0.1700
16421W        W33269  10.714  15.942   2.027 -0.0976  0.2234  0.0352
16422W        W33270   5.866  12.584   2.170 -0.0010  0.1659  0.0241
16423W        W33271  17.081  14.948   0.911  0.0285  0.1587 -0.0243
16424W        W33272   6.347   4.587   5.623 -0.1608 -0.2544  0.0051
16425W        W33273   2.501   7.095  13.153 -0.0458  0.1205 -0.2356
16426W        W33274  14.427  10.438  11.414 -0.2042 -0.0345  0.2252
16427W        W33275   2.662  15.114   3.062 -0.1763 -0.0509 -0.1048
16428W        W33276  16.114   4.351   2.979 -0.3529 -0.0000 -0.0828
16429W        W33277   3.769   3.382  15.492  0.1387  0.5390 -0.2029
16430W        W33278  17.912   9.971  13.897  0.0659 -0.2838  0.0389
16431W        W33279   4.261   9.303  15.840 -0.0381 -0.0644 -0.2156
16432W        W33280   3.364  13.932  11.665 -0.0221 -0.0568  0.2564
16433W        W33281   8.287  15.241  13.529  0.2760 -0.3626  0.0793
16434W        W33282   6.616   0.980   0.063 -0.3566 -0.0806 -0.0530
16435W        W33283   2.046   5.233  13.279  0.1307  0.2966  0.3592
16436W        W33284   8.673  13.576   1.236 -0.0962  0.0441 -0.0679
16437W        W33285   7.945  13.964   1.472  0.2109  0.0003 -0.1635
16438W        W33286  17.701  16.853   2.594 -0.0580  0.4714 -0.1218
16439W        W33287  14.770   4.185   1.918  0.0414 -0.0877  0.1823
16440W        W33288   5.352   3.829   4.888  0.1587 -0.2414  0.1818
16441W        W33289   9.927   9.472  14.817 -0.4775 -0.1835 -0.2483
16442W        W33290   9.697   8.685   4.396 -0.1052  0.1173 -0.1610
16443W        W33291   4.963  16.750   0.563 -0.2860  0.0068 -0.1142
16444W        W33292   9.334   3.581   0.041 -0.0321 -0.1763 -0.2531
16445W        W33293   4.986  15.918  16.285  0.3492 -0.3725  0.0804
16446W        W33294  16.372  11.424   0.438 -0.2544  0.0436 -0.0790
16447W        W33295   9.563   3.588  11.408  0.2203  0.2134 -0.2759
16448W        W33296  10.179  15.355  11.303 -0.1111 -0.3252  0.2373
16449W        W33297  11.655  15.332   3.202  0.2488 -0.0692 -0.1672
16450W        W33298  15.251  14.448  13.905  0.0315 -0.1023 -0.0016
16451W        W33299  11.954  12.536   0.375 -0.2799  0.1128  0.0608
16452W        W33300   1.300   1.959   0.545  0.1839 -0.0775  0.1124
16453W        W33301   0.948   7.701  15.196 -0.4809 -0.1088  0.2222
16454W        W33302   6.588  13.787  15.771 -0.0360  0.1622  0.0755
16455W        W33303   6.604   4.748  13.820  0.1115  0.1210 -0.0301
16456W        W33304   1.780  11.173  16.085  0.3503  0.0471 -0.0357
16457W        W33305   7.984   0.137   5.124 -0.1403  0.1901  0.2423
16458W        W33306  13.241  10.671   5.952  0.3437 -0.6359  0.0013
16459W        W33307  14.915   4.220   2.448 -0.2465 -0.0045 -0.1080
16460W        W33308   9.427  10.043   4.013  0.1570 -0.2557 -0.1358
16461W        W33309  10.051  15.198   5.092  0.0457 -0.1755  0.4224
16462W        W33310   9.792   7.754  12.909  0.0482 -0.0367 -0.1116
16463W        W33311   2.051  16.601   2.832  0.0038  0.0651  0.3018
16464W        W33312  17.391   6.318   3.135  0.0360 -0.0770  0.0535
16465W        W33313   6.656  13.309   1.176 -0.1633  0.0681 -0.4885
16466W        W33314   7.027   8.920   4.228 -0.0388  0.4427 -0.2655
16467W        W33315   3.062   6.568   1.052 -0.0443 -0.0111  0.1812
16468W        W33316   0.639   7.553  15.601  0.0437  0.3635 -0.3950
16469W        W33317   0.526  17.248  12.154 -0.2581  0.1662  0.2647
16470W        W33318   5.555  12.070   5.193 -0.1808  0.6149  0.1366
16471W        W33319  15.322  10.037   1.660 -0.1059 -0.3373  0.1828
16472W        W33320   7.160   2.179  11.624 -0.0501 -0.2842  0.0813
16473W        W33321  13.914  17.007  11.137 -0.1529 -0.0198  0.0250
16474W        W33322  13.247  17.519   1.887  0.2527 -0.6187 -0.0050
16475W        W33323   4.164  17.295   5.003  0.0478  0.3556  0.1964
16476W        W33324   9.379   0.578   1.807 -0.0013 -0.1090  0.0675
16477W        W33325  16.581   3.687  12.005 -0.0035  0.1146 -0.0043
16478W        W33326  15.817   8.501   5.099  0.0548 -0.0109  0.0439
16479W        W33327   4.047  13.791   3.494  0.3074  0.3111  0.1865
16480W        W33328   4.079   9.930  16.319  0.3017  0.0025  0.1958
16481W        W33329  15.950   5.551   3.647  0.0501 -0.1655 -0.2635
16482W        W33330   9.926   3.798   2.893 -0.3904 -0.0808  0.0177
16483W        W33331  17.487   5.287   2.679  0.1366  0.0319  0.1524
16484W        W33332   6.231   3.291  13.449  0.2977  0.0010  0.4095
16485W        W33333   3.816   2.905   0.663 -0.2058  0.0080  0.1391
16486W        W33334  16.757  10.499   1.112 -0.0513  0.2207  0.1965
16487W        W33335   2.188   6.920  12.751 -0.1814 -0.1974 -0.3196
16488W        W33336   2.370  15.717  13.283  0.1178 -0.0263  0.1795
16489W        W33337  11.985   7.838   3.385 -0.0143  0.3780  0.1562
16490W        W33338   7.120  11.817   3.131  0.3710 -0.1508 -0.3361
16491W        W33339  13.692  17.938   0.420 -0.1267 -0.0892  0.2398
16492W        W33340   0.874   5.074  12.938 -0.1542 -0.0421  0.3526
16493W        W33341   3.406  16.143  13.581 -0.2465 -0.2710  0.1121
16494W        W33342   8.525   4.642   0.861  0.0481  0.0536  0.3392
16495W        W33343   2.212  10.961   3.848 -0.0415 -0.3220  0.0339
16496W        W33344   3.371   4.021  15.779 -0.1432  0.0146 -0.0158
16497W        W33345   7.800   0.742   3.025  0.0147 -0.1248  0.0498
16498W        W33346  14.017   5.077   2.740 -0.3561 -0.0830  0.4392
16499W        W33347  15.212   3.818   3.532 -0.1739 -0.1982  0.3068
16500W        W33348   2.389  17.176  13.755 -0.1641 -0.2961  0.0392
16501W        W33349  14.652   8.860  11.165  0.1406 -0.2229 -0.0347
16502W        W33350   1.569   0.041   1.748 -0.2846  0.0214  0.1479
16503W        W33351  10.168  17.620   0.365  0.0429 -0.1897  0.1195
16504W        W33352  11.224   0.032  12.348  0.2635 -0.1094 -0.3423
16505W        W33353   1.014   4.790  14.651  0.0100  0.0021 -0.2638
16506W        W33354  11.447   1.507  14.706 -0.0072 -0.0923  0.1407
16507W        W33355  11.257   0.785  12.073 -0.0841 -0.0813 -0.1972
16508W        W33356   0.752  15.420   1.362 -0.0614  0.1777 -0.0924
16509W        W33357   5.920  12.686  11.351 -0.1588  0.1477 -0.0431
16510W        W33358  13.347  10.752   2.109 -0.2452  0.0043 -0.3699
16511W        W33359  13.052  10.110   1.887 -0.2184  0.0172  0.1259
16512W        W33360   3.677   5.650  11.782  0.0719 -0.0873  0.2730
16513W        W33361  17.829  17.699   1.030  0.2807 -0.2119  0.3381
16514W        W33362  12.356   2.823   0.394  0.1739 -0.2574 -0.1995
16515W        W33363   5.231  11.728  11.647  0.1769 -0.2618 -0.1326
16516W        W33364   9.877   2.798  14.398 -0.3661 -0.0328  0.0971
16517W        W33365  12.942   7.594  12.313  0.0044 -0.2929 -0.1300
16518W        W33366   4.484   3.401  13.749 -0.3823  0.1603  0.1288
16519W        W33367  13.596   2.071  13.588  0.2969  0.0351  0.0536
16520W        W33368   7.065  12.272  15.893 -0.0294 -0.0514  0.0691
16521W        W33369  12.169   1.351   0.386 -0.1668 -0.1275  0.0486
16522W        W33370  17.401   1.803  13.196 -0.0689 -0.2128 -0.1160
16523W        W33371   3.951   2.737  12.274  0.1476  0.2391  0.3573
16524W        W33372   6.686   7.369   0.425 -0.0757 -0.0139  0.1375
16525W        W33373  16.296   5.387  14.681 -0.1577 -0.0152 -0.0051
16526W        W33374   3.328   1.004  14.385  0.1676  0.1211 -0.0785
16527W        W33375   0.657   0.848  12.264 -0.0549  0.1579 -0.2252
16528W        W33376  11.338   7.828   3.231 -0.0883  0.2208 -0.2801
16529W        W33377  17.561  10.354  13.787  0.0309  0.3750 -0.3536
16530W        W33378   3.805   7.816   0.206  0.2103  0.1413  0.0718
16531W        W33379  16.770   9.338   2.020  0.0332  0.0421 -0.2091
16532W        W33380   1.815  10.982  12.601  0.2838  0.2730  0.2736
16533W        W33381  11.265   2.106  11.532 -0.0426  0.2580 -0.1073
16534W        W33382  11.708   0.946  12.099 -0.1405  0.1200  0.0956
16535W        W33383   0.936   7.047  14.544 -0.1736 -0.1785 -0.1218
16536W        W33384  17.563  14.799  15.322 -0.1720 -0.1649 -0.2625
16537W        W33385  15.613   8.612   3.479 -0.3094 -0.0920  0.0524
16538W        W33386  17.277  16.244  13.665  0.0090 -0.2871 -0.1835
16539W        W33387   5.137   6.792  15.850  0.0071  0.1682 -0.0293
16540W        W33388   9.013   0.235   3.632 -0.3184  0.1560  0.0103
16541W        W33389  14.963   2.252  15.802  0.1021 -0.2573  0.2275
16542W        W33390   7.481   0.418  13.679 -0.2678  0.1327 -0.1028
16543W        W33391   9.315   0.833  13.697 -0.1861  0.1971  0.2595
16544W        W33392  10.527   6.806  12.707 -0.1461  0.1055 -0.2546
16545W        W33393   0.558   9.569  11.900 -0.1721 -0.0676  0.2581
16546W        W33394  14.169   9.106   4.152 -0.1568 -0.0365 -0.1101
16547W        W33395   5.714   2.256  12.102 -0.0849  0.3649 -0.1230
16548W        W33396   6.653  10.237   4.842  0.0095 -0.1132  0.1452
16549W        W33397   4.542  12.758  15.804 -0.0581  0.1801 -0.1663
16550W        W33398   2.802  17.353  12.417 -0.0297  0.0725  0.0219
16551W        W33399  16.587   6.041  12.908 -0.1211  0.0548 -0.2550
16552W        W33400   3.352   3.428  15.753  0.1933  0.0177 -0.0353
16553W        W33401   1.343   0.217  10.418  0.2079 -0.2178 -0.0496
16554W        W33402   3.293  12.485   2.856 -0.0818 -0.1186 -0.1305
16555W        W33403   1.939   2.329   1.251 -0.1891  0.0951  0.0414
16556W        W33404   4.945   8.909  12.760 -0.0795  0.0344 -0.0228
16557W        W33405  17.116  15.382   3.431  0.2054 -0.1178  0.2086
16558W        W33406   1.017  12.444  13.462 -0.1060  0.0523 -0.0704
16559W        W33407   3.975   8.472   5.112  0.1198 -0.3312 -0.4671
16560W        W33408  17.952  14.758   1.853 -0.2746  0.3406 -0.0401
16561W        W33409  13.290   8.594  15.172 -0.4554  0.2553  0.0837
16562W        W33410  11.835  10.014   4.752  0.1209 -0.1048 -0.1175
16563W        W33411  16.297   4.904  14.845 -0.3962  0.0531 -0.1026
16564W        W33412   5.991  13.867   2.522 -0.1140 -0.2554 -0.1087
16565W        W33413  14.526   6.901  12.656 -0.0686 -0.0774 -0.0503
16566W        W33414   6.781  14.422  13.195  0.0942 -0.0440 -0.2004
16567W        W33415   7.065   3.609   5.302  0.0617  0.1777 -0.0633
16568W        W33416  12.331  15.406  15.918  0.2018  0.1814 -0.1325
16569W        W33417   7.370  12.144   2.513  0.1392 -0.2007 -0.1301
16570W        W33418  16.423   0.632  11.387 -0.3140 -0.2077 -0.0717
16571W        W33419   0.812  13.368   3.419 -0.1326  0.1295 -0.1152
16572W        W33420   0.482   9.698  14.464  0.0433  0.1917 -0.2275
16573W        W33421  10.610  11.996   5.278 -0.0016  0.1666 -0.0159
16574W        W33422   8.444  12.633   4.417 -0.2643  0.0708 -0.4152
16575W        W33423  12.815  12.719  13.334 -0.1224 -0.1805 -0.2283
16576W        W33424   3.790   0.097  14.117 -0.1732 -0.0649  0.1727
16577W        W33425   7.881   3.545  11.131 -0.0176 -0.0276 -0.4408
16578W        W33426   4.885   7.266  15.924 -0.0171 -0.0274 -0.0552
16579W        W33427  14.357  15.246  11.490  0.2987  0.4617  0.1820
16580W        W33428  13.176   8.115   2.899  0.0788  0.2752 -0.1586
16581W        W33429  12.868   1.664  15.334  0.0177  0.0562  0.1592
16582W        W33430   9.312   8.329   2.577  0.2228  0.3148  0.1390
16583W        W33431   0.156   9.270   5.024  0.0840 -0.1308 -0.0286
16584W        W33432   0.447  17.743   1.968 -0.1394 -0.1099  0.3852
16585W        W33433   7.019   2.373   0.235  0.1154 -0.4134 -0.1065
16586W        W33434   8.094   5.449  11.698  0.0365  0.0932 -0.4831
16587W        W33435  17.411  11.869  15.296  0.1889  0.3382 -0.0030
16588W        W33436  10.115   7.406   3.892 -0.0613  0.3068  0.1387
16589W        W33437  16.902   1.814   2.602 -0.1102  0.0085 -0.3121
16590W        W33438  16.633   6.972   4.704  0.0687 -0.2419 -0.1476
16591W        W33439   0.803   5.268   1.471 -0.1172  0.0111 -0.2396
16592W        W33440  17.332  12.384   2.286  0.0711 -0.1991  0.0724
16593W        W33441   7.176   5.780   3.137 -0.0977  0.3746  0.0596
16594W        W33442   1.902   8.596   4.191  0.1875  0.4094  0.1134
16595W        W33443   5.856   4.094  15.429 -0.2173  0.1809  0.4757
16596W        W33444   7.405   9.500  16.223  0.1208 -0.0241 -0.0625
16597W        W33445   9.511  17.118   3.805  0.1705 -0.1606 -0.2641
16598W        W33446   9.355   5.630  15.897  0.0514 -0.1449 -0.0136
16599W        W33447  17.921   9.100   4.032  0.0654 -0.3457  0.0773
16600W        W33448  14.945  17.527  14.783  0.0713 -0.0343 -0.2793
16601W        W33449  15.958  15.961   1.008  0.1124  0.0772 -0.0681
16602W        W33450   8.883   7.909  11.128 -0.0896  0.0716  0.3398
16603W        W33451  16.772   9.589  14.183 -0.0401 -0.1294  0.0857
16604W        W33452  11.075  16.657   4.688 -0.2388 -0.2073 -0.0447
16605W        W33453   3.306   6.998  14.376 -0.0283 -0.0802 -0.1942
16606W        W33454  10.613  10.013   4.488  0.0224 -0.3223 -0.0108
16607W        W33455   8.279  12.368   0.380 -0.2755  0.0195  0.0540
16608W        W33456   8.453  10.363  13.711  0.0056  0.0891 -0.0993
16609W        W33457  10.421  12.541  13.252 -0.3454 -0.2557  0.0642
16610W        W33458  10.297   5.161  15.058  0.0257  0.0505 -0.1876
16611W        W33459  17.930   3.365   0.874  0.0485  0.2397 -0.0798
16612W        W33460  11.379   1.247   3.383  0.1752 -0.1412  0.0606
16613W        W33461   7.939   7.737   0.420 -0.2463 -0.1050 -0.1885
16614W        W33462   7.061  16.361   0.801  0.1174 -0.3075 -0.0563
16615W        W33463  11.559  12.941   3.922  0.1016 -0.0996 -0.2953
16616W        W33464  10.092   9.001   0.599  0.0727 -0.0545 -0.1194
16617W        W33465  11.593  10.885  16.116  0.1289 -0.0637  0.0456
16618W        W33466   5.316   7.701   4.697 -0.3292  0.2179  0.0618
16619W        W33467   9.445   9.574  14.525 -0.1878 -0.0640  0.1306
16620W        W33468  12.089  10.854  16.236  0.0720  0.2823 -0.0560
16621W        W33469   9.338   6.773   4.841  0.4255  0.1074  0.1437
16622W        W33470  13.365   6.419  12.035  0.1668 -0.2364  0.0081
16623W        W33471  16.384  11.923   3.304 -0.0742 -0.0587  0.0591
16624W        W33472  13.424   2.751   2.419  0.0280  0.1110 -0.4857
16625W        W33473  12.390   6.233  15.717  0.1774 -0.2041 -0.0608
16626W        W33474   6.424  11.967  13.466  0.0972  0.0978 -0.2355
16627W        W33475  16.108   1.416  15.184 -0.0909 -0.2403 -0.1909
16628W        W33476   6.971   4.204  14.590 -0.0488  0.0522 -0.1499
16629W        W33477   0.908   8.586  14.028  0.0773 -0.0249 -0.0990
16630W        W33478  15.470  17.657  12.534  0.2322  0.0644 -0.0392
16631W        W33479  13.667  13.650   3.482  0.1520 -0.1829 -0.1434
16632W        W33480   8.671   6.619  11.630  0.0429 -0.1353  0.1235
16633W        W33481   3.995   8.314  15.262 -0.1451 -0.1857  0.2865
16634W        W33482  12.634  11.714  15.352 -0.1013 -0.1863 -0.1686
16635W        W33483  10.709   0.573  12.196 -0.1044 -0.1452  0.0199
16636W        W33484  13.918   0.326  11.179  0.0830  0.0808  0.1451
16637W        W33485  10.141  12.859  12.411  0.1912 -0.2443 -0.1996
16638W        W33486   4.773  14.350  12.055 -0.2918  0.0702 -0.3044
16639W        W33487  11.574   0.004  13.680 -0.0999  0.3987  0.0088
16640W        W33488  15.556  10.796   3.192 -0.0538  0.2231  0.1608
16641W        W33489  12.534  14.722   1.702  0.0357  0.1397 -0.0367
16642W        W33490  11.359   5.212   2.296  0.1907  0.1089 -0.1148
16643W        W33491   6.549   6.347  16.250 -0.0975 -0.1848  0.1663
16644W        W33492   4.897  11.576   2.676 -0.1175  0.1000 -0.2048
16645W        W33493   3.701  17.393  12.498  0.0244  0.1072  0.0061
16646W        W33494  12.245   4.867  11.456  0.1429  0.2830 -0.1872
16647W        W33495   3.026   5.722   0.247 -0.0024 -0.0679  0.2382
16648W        W33496   7.947   8.066   4.112 -0.0373 -0.5945  0.1006
16649W        W33497   4.256  10.475   5.835 -0.1409  0.2637  0.1225
16650W        W33498  12.260   4.072  16.061 -0.0315  0.0996  0.1562
16651W        W33499   2.906   6.158  14.326  0.1890  0.0725  0.3313
16652W        W33500   0.204   6.213   4.808  0.2051  0.1582  0.4048
16653W        W33501  17.943  16.740  12.428  0.0334 -0.0473  0.2171
16654W        W33502   6.860  14.756  14.016 -0.2484 -0.2917 -0.1733
16655W        W33503  11.049   9.166   3.630  0.1730 -0.2948 -0.0230
16656W        W33504  16.701  17.380   1.561 -0.2733  0.0891  0.3490
16657W        W33505   3.862  13.935  11.907  0.0182  0.1067 -0.2458
16658W        W33506  11.567  14.902   0.370 -0.0158 -0.0882 -0.1056
16659W        W33507  12.349  16.401   6.110 -0.0016 -0.0948 -0.0430
16660W        W33508   0.268   3.695  15.744  0.1469 -0.0663 -0.3044
16661W        W33509   4.180   2.021   2.449 -0.1944 -0.2194 -0.1632
16662W        W33510   8.859   2.656  14.955 -0.0866  0.2173 -0.0849
16663W        W33511  13.411  13.452  13.770 -0.0678  0.0005  0.1323
16664W        W33512  13.982   2.396   0.436 -0.1961  0.0783 -0.1802
16665W        W33513   0.237  13.965   2.892  0.3717 -0.2130 -0.1877
16666W        W33514   6.773   7.200  15.440  0.2005 -0.4357 -0.3380
16667W        W33515   8.022   6.375   2.058 -0.2394  0.0143 -0.0208
16668W        W33516   9.001   5.503  14.666  0.1580 -0.1662 -0.0446
16669W        W33517  13.647   5.148  13.338  0.2077 -0.1929 -0.0641
16670W        W33518   1.656  17.093   5.080  0.0135  0.1803  0.0717
16671W        W33519  13.652   4.447  15.796  0.3666  0.0654  0.0753
16672W        W33520  11.119   7.933  15.223 -0.2416  0.2712  0.0022
16673W        W33521  13.682   2.535  13.786  0.3787 -0.0705 -0.0431
16674W        W33522  13.660  16.170  13.670 -0.3166  0.1441  0.0777
16675W        W33523   3.240   0.780  13.821  0.2921 -0.0951  0.4544
16676W        W33524   7.638  17.448   1.623  0.1909 -0.1001 -0.0576
16677W        W33525  11.065   0.618  16.226 -0.3986  0.0853  0.0712
16678W        W33526  16.498  17.645   5.633 -0.2254  0.3444 -0.2226
16679W        W33527  17.099  16.622   1.998 -0.0344  0.0268 -0.4035
16680W        W33528  15.480  14.420   2.838 -0.0356  0.1664  0.2790
16681W        W33529   4.166  13.903   3.955  0.1541  0.1155  0.0445
16682W        W33530   5.916  13.046   2.643  0.0825  0.3025 -0.1893
16683W        W33531  10.680   5.292   3.757 -0.0993 -0.1634  0.1897
16684W        W33532   6.301  15.808   3.986  0.1878 -0.0735 -0.1016
16685W        W33533  15.976  11.313  15.399  0.0679  0.2963  0.0821
16686W        W33534  15.366  12.331   4.073  0.1628  0.0814 -0.2731
16687W        W33535  14.744  14.585  15.336 -0.1085 -0.0870  0.0224
16688W        W33536  15.364  15.075  14.767 -0.1919  0.1851  0.2412
16689W        W33537   8.729  12.355  16.190 -0.1884 -0.1828 -0.4213
16690W        W33538   4.902  10.868  13.227 -0.0857 -0.1052 -0.1951
16691W        W33539  17.489   7.943   1.796  0.2869  0.0972  0.1702
16692W        W33540   7.503  11.235   3.683 -0.2003 -0.1351  0.1724
16693W        W33541   7.560   5.053   2.453 -0.1868 -0.0484  0.0562
16694W        W33542   1.352  14.978   4.155 -0.3040  0.2508  0.0107
16695W        W33543  10.595  14.332   4.280  0.3233  0.0303  0.0542
16696W        W33544   5.910  10.572   4.398 -0.0279 -0.0800  0.1810
16697W        W33545  16.356  15.559   1.910  0.0155  0.3599  0.0886
16698W        W33546   4.049  15.372   1.725 -0.0117 -0.2987  0.0376
16699W        W33547  14.972  17.504  13.367  0.0265  0.2474  0.1724
16700W        W33548   6.581  15.264   2.735 -0.1308 -0.1220 -0.0180
16701W        W33549   0.402  15.137  12.014  0.1880  0.0979  0.0637
16702W        W33550  12.846  15.915   1.541  0.1536 -0.1131  0.0660
16703W        W33551   3.424   0.744  14.793 -0.2929  0.0706 -0.0306
16704W        W33552   1.102  11.607   1.200  0.1403 -0.2618 -0.1803
16705W        W33553  11.938   0.162   4.135  0.1542 -0.0954  0.0848
16706W        W33554   2.730  17.134   5.248 -0.3438  0.1061  0.2322
16707W        W33555   6.807  16.082   4.124  0.0959  0.1767 -0.0991
16708W        W33556   6.078   3.068  11.878 -0.1393 -0.1263  0.0365
16709W        W33557   6.084   5.681   2.281 -0.0224 -0.2637 -0.0235
16710W        W33558   0.123   3.784   3.931  0.1451  0.2125 -0.1001
16711W        W33559  14.542   1.251  11.415 -0.1230 -0.0610 -0.0072
16712W        W33560  13.083   9.560  14.131  0.1251  0.0448 -0.0198
16713W        W33561  12.927   2.007   2.370 -0.0902 -0.1470  0.0970
16714W        W33562   5.897  16.651  14.378  0.0446  0.0546  0.0412
16715W        W33563   3.757   4.950  12.323  0.0679 -0.0369  0.0258
16716W        W33564  15.967   2.070   1.441 -0.1051  0.0479  0.0790
16717W        W33565   2.276  13.775   4.871  0.0634 -0.1674  0.0118
16718W        W33566   0.869  14.841  15.470 -0.0060  0.0699 -0.4284
16719W        W33567   6.057   7.725  13.485  0.2553 -0.2034  0.1831
16720W        W33568  10.844  17.195   4.977  0.1268 -0.2761 -0.2076
16721W        W33569   1.625   7.211  11.529 -0.2559 -0.0337  0.2179
16722W        W33570  16.325   9.020  16.267 -0.1488 -0.0493 -0.4503
16723W        W33571   3.655   3.410  12.598  0.4078 -0.2392 -0.0083
16724W        W33572   4.002   5.906   6.031 -0.1593 -0.1221 -0.0903
16725W        W33573   6.799   8.087   4.772  0.1941  0.2410 -0.1454
16726W        W33574  14.203  14.984   0.116 -0.2412  0.0933  0.2057
16727W        W33575   9.565  17.657  13.196 -0.0863  0.1526 -0.0701
16728W        W33576  10.785   2.550   1.835 -0.3886  0.1866 -0.0051
16729W        W33577   7.475   7.890   0.191 -0.5125 -0.2375 -0.1538
16730W        W33578   1.143   2.068   3.945  0.4708  0.2057  0.2192
16731W        W33579   7.691   4.805  13.529 -0.0972  0.1941 -0.2067
16732W        W33580   9.973   7.833  11.635  0.2606 -0.1220 -0.0179
16733W        W33581  11.735   6.267   0.367 -0.4449  0.0511  0.0800
16734W        W33582   2.508   3.977  16.278  0.2734 -0.4147 -0.1879
16735W        W33583  17.841  13.207  15.125  0.3167  0.1098  0.3874
16736W        W33584   6.344   6.373   0.859 -0.1039 -0.0641  0.0841
16737W        W33585  13.672  16.091  14.206  0.2288 -0.0637  0.1605
16738W        W33586  12.612   8.356  15.170 -0.0043  0.2976  0.1568
16739W        W33587  13.186   4.373   1.965  0.1296  0.0170 -0.3019
16740W        W33588   4.213  11.478  12.387 -0.1907  0.1493 -0.0068
16741W        W33589  15.441   7.500   4.294  0.0361  0.0841  0.0436
16742W        W33590   5.525   1.758  12.892  0.0813  0.2100 -0.0175
16743W        W33591   3.143   0.861   0.333  0.0927  0.4978  0.0713
16744W        W33592   3.324   6.564   1.546  0.0856  0.1356 -0.0831
16745W        W33593  12.563   2.148  15.197 -0.0059  0.1462 -0.1886
16746W        W33594   8.187   3.364  12.670  0.0301  0.0222 -0.0429
16747W        W33595   3.841  17.303  13.899  0.0398 -0.0281  0.0255
16748W        W33596   4.209  16.443   4.722  0.0275  0.0942  0.1610
16749W        W33597   9.232   3.195  11.136  0.1333 -0.2291  0.2029
16750W        W33598   8.674   9.109  11.699 -0.0050  0.0420  0.1066
16751W        W33599  14.340   8.686  11.527  0.1127 -0.1899 -0.1024
16752W        W33600  13.317  17.756   3.034  0.3830 -0.0263 -0.1287
16753W        W33601   6.795  12.475   0.001 -0.2664  0.4752 -0.0064
16754W        W33602  11.101  11.516   4.731  0.2384  0.1277  0.0094
16755W        W33603   0.456   6.908   4.862 -0.2567  0.1380 -0.0950
16756W        W33604  11.660  16.121  15.258 -0.1231  0.0145 -0.0211
16757W        W33605  13.674   2.888   1.654 -0.2231 -0.4798 -0.0978
16758W        W33606   0.635  15.707  14.917 -0.1270  0.0291  0.0083
16759W        W33607   2.351  17.149  11.548  0.1856  0.2160 -0.1460
16760W        W33608  15.443   4.544  15.941  0.2090  0.1561 -0.2206
16761W        W33609  10.981  13.837  13.515  0.2352 -0.0223  0.1614
16762W        W33610   1.452   6.119  10.202 -0.0418  0.2418  0.2981
16763W        W33611  15.637   0.544  12.596 -0.2480  0.0774 -0.1298
16764W        W33612   2.453  13.192  15.975  0.1517 -0.0233  0.1218
16765W        W33613   5.586  12.357  11.193  0.2533 -0.0946  0.3494
16766W        W33614   6.502  16.420  12.242  0.0961 -0.0679  0.0707
16767W        W33615  17.473  12.981   2.443  0.2313  0.0085 -0.0780
16768W        W33616  10.119  18.040   0.597 -0.1380  0.3437  0.2740
16769W        W33617   5.199   1.294  12.889  0.2397 -0.1409 -0.0075
16770W        W33618   9.096   0.618  15.745  0.0012  0.1805 -0.1490
16771W        W33619   4.819  12.577  12.084  0.1438 -0.0246 -0.2463
16772W        W33620   8.888   2.732   5.232 -0.1993  0.3162 -0.1516
16773W        W33621  12.786   3.030  13.608 -0.0576 -0.1630  0.1473
16774W        W33622  11.420  13.900  11.861 -0.1104  0.0874 -0.0163
16775W        W33623   4.756  15.127   1.800 -0.1004 -0.2628 -0.2793
16776W        W33624   7.200   0.959  11.912 -0.1838 -0.3153  0.2087
16777W        W33625  15.143   0.722  11.939  0.0829  0.1136  0.0839
16778W        W33626   3.359   6.154   0.144  0.2301 -0.1492 -0.3128
16779W        W33627  12.794   6.970   4.500 -0.0881 -0.1393 -0.0145
16780W        W33628  13.242   7.195  15.372  0.0007  0.1032 -0.0020
16781W        W33629   7.186  13.533   5.397 -0.0584  0.0522 -0.0637
16782W        W33630   5.730   1.092   2.354 -0.2767 -0.2176 -0.0793
16783W        W33631  16.469   2.786   4.855  0.1405 -0.1853 -0.1382
16784W        W33632   0.706  17.500  14.268  0.1135 -0.1537 -0.1518
16785W        W33633   8.765   4.338  16.235  0.2707  0.3125 -0.1808
16786W        W33634   2.844   5.327   4.906  0.1235 -0.0866  0.0104
16787W        W33635  10.935  10.949  12.489 -0.3311  0.2086 -0.0195
16788W        W33636   3.940   6.954  13.897  0.1146  0.2239 -0.1592
16789W        W33637   6.032  17.503  14.380  0.0931  0.5336  0.1673
16790W        W33638  17.288  14.355  13.612  0.0831  0.0667  0.1375
16791W        W33639  10.900   1.666  13.500 -0.2351 -0.4084  0.1251
16792W        W33640   6.055   0.936  10.469  0.0451 -0.0887 -0.1071
16793W        W33641  16.293  10.158   4.062  0.2609  0.2471 -0.1479
16794W        W33642  12.889   2.173   3.318  0.3209 -0.2121  0.0221
16795W        W33643  12.032   1.529   4.827  0.4491 -0.0010 -0.1617
16796W        W33644  15.695   9.842   0.798 -0.0210  0.1256  0.2154
16797W        W33645   3.810  16.293  11.912  0.0612  0.2763  0.3952
16798W        W33646   9.115  11.762   2.577 -0.0631 -0.2102  0.0427
16799W        W33647  15.722  12.045  13.086 -0.1860  0.0770 -0.1580
16800W        W33648  13.076  15.345  15.151  0.2868  0.2626  0.1491
16801W        W33649   1.398   7.807   3.989  0.3096 -0.0808  0.2134
16802W        W33650   4.193   4.212  13.319  0.0479 -0.2382  0.0290
16803W        W33651  11.431  10.094  12.413  0.2385  0.1381  0.3673
16804W        W33652  17.073   7.129   4.994 -0.0845 -0.0730 -0.1390
16805W        W33653   0.346   4.110   5.541 -0.1301 -0.0820  0.0639
16806W        W33654  16.557  16.948   0.742  0.1062 -0.1632  0.0490
16807W        W33655   3.076   8.123  12.598  0.1750 -0.2749  0.0904
16808W        W33656  10.875  15.246   3.037  0.0747 -0.0129  0.2617
16809W        W33657  14.670  15.626   4.517 -0.1159 -0.1442  0.0313
16810W        W33658   9.347   0.870   0.301  0.0425 -0.0746 -0.3134
16811W        W33659  10.421   1.574   2.301 -0.1481  0.0823 -0.1025
16812W        W33660   6.326  13.590  11.200  0.0394 -0.1991  0.0910
16813W        W33661   3.785   0.454  12.226 -0.1174  0.3034 -0.0368
16814W        W33662   0.405   8.383  15.351 -0.3632  0.1512  0.0454
16815W        W33663   3.650   3.719   4.303  0.0068 -0.1180  0.0198
16816W        W33664  14.084  13.601  12.443 -0.0147 -0.2964 -0.0370
16817W        W33665   3.870   1.813  13.217  0.2163  0.1012 -0.1243
16818W        W33666  10.714  15.955   3.593 -0.0743  0.1600 -0.0236
16819W        W33667  16.840  16.202   2.312  0.1272 -0.1098  0.1509
16820W        W33668  10.187   8.409  15.417 -0.1346  0.1851 -0.3413
16821W        W33669   9.235   6.054  16.130  0.1059  0.0773  0.0865
16822W        W33670   7.314   9.552   1.525  0.3239  0.3103 -0.0199
16823W        W33671  16.503  12.257  11.554 -0.1418 -0.1171 -0.1656
16824W        W33672   8.112  10.299  15.143  0.1234  0.0762 -0.6972
16825W        W33673  16.633  14.736  11.576  0.0076 -0.0043 -0.1119
16826W        W33674  11.226   6.018   4.901 -0.0408  0.0301  0.0738
16827W        W33675   2.991   0.971   2.830  0.0398 -0.0242 -0.2138
16828W        W33676   9.004   0.075   4.868 -0.2349  0.3243  0.0844
16829W        W33677  13.768   6.310  14.209  0.0108  0.1775  0.1040
16830W        W33678   2.947   8.170  15.331  0.1664 -0.0476  0.1338
16831W        W33679   0.776  16.543   1.144  0.1234  0.0484 -0.0487
16832W        W33680   1.576  11.904   3.323 -0.2007 -0.1231 -0.2112
16833W        W33681   5.149   5.859   1.142 -0.0859  0.3652 -0.0892
16834W        W33682  16.458  16.645  13.430 -0.0841  0.2709 -0.1455
16835W        W33683  15.880   1.113  12.260 -0.0974 -0.1330 -0.3232
16836W        W33684  14.101   8.672  13.824  0.1398 -0.0291 -0.3395
16837W        W33685  15.384  10.276  13.015 -0.0558  0.0623 -0.1661
16838W        W33686   0.679  12.165  12.496  0.0852 -0.1359 -0.1366
16839W        W33687   4.961  10.445  15.988  0.3225  0.2998 -0.2324
16840W        W33688  16.405   0.407   1.645 -0.0308 -0.1728 -0.2806
16841W        W33689   8.121   5.648  15.994  0.2953 -0.1873  0.1348
16842W        W33690   4.799  10.851  11.934  0.1209  0.2054 -0.1977
16843W        W33691   2.506   2.467   0.518 -0.1270 -0.1204  0.0707
16844W        W33692  16.081   7.859   0.605 -0.0756 -0.0135  0.1210
16845W        W33693  17.247  11.446  16.048 -0.1762  0.2946 -0.1933
16846W        W33694  13.719   5.856   3.070 -0.0008  0.1123 -0.1762
16847W        W33695  14.692  13.797  13.496 -0.0911  0.2029 -0.2421
16848W        W33696   1.530  17.465  15.226  0.1468  0.0625  0.1348
16849W        W33697   3.734  16.177   4.021 -0.0268  0.2842 -0.0003
16850W        W33698  14.551  10.000   3.848  0.0423 -0.0995  0.0356
16851W        W33699  15.109   8.319   4.293  0.0478  0.0231  0.0491
16852W        W33700  15.549   3.046   3.103 -0.0942 -0.0968 -0.0717
16853W        W33701  11.341   3.239   3.082  0.2661 -0.0340 -0.1535
16854W        W33702  11.989   8.099  12.078 -0.3222  0.1026  0.1758
16855W        W33703  18.090  13.583   1.984 -0.2769 -0.0035  0.2511
16856W        W33704   2.115   5.541   3.357 -0.2510  0.2419 -0.2477
16857W        W33705  12.926  10.744   2.511  0.0757 -0.0433  0.3822
16858W        W33706   2.360   0.741   4.162  0.2692 -0.0949 -0.0231
16859W        W33707  12.678  12.501  12.836  0.4435  0.0253  0.1720
16860W        W33708   7.742  12.323   3.776 -0.0240  0.0522 -0.2171
16861W        W33709   7.317  14.648   4.537  0.0770 -0.1774 -0.2195
16862W        W33710   0.239   0.604   3.633 -0.4149 -0.3119 -0.4069
16863W        W33711   6.917   5.216  12.047 -0.1529  0.2841  0.1578
16864W        W33712   5.933  13.509  11.478 -0.1899  0.1171  0.3487
16865W        W33713   4.481  12.547  11.574 -0.2860 -0.1060  0.1184
16866W        W33714  11.179  14.986   4.897 -0.2219  0.1806 -0.1227
16867W        W33715  10.564  17.682   2.723  0.0878  0.2385 -0.1287
16868W        W33716   1.020   9.711  15.233 -0.0356  0.2809 -0.1905
16869W        W33717   6.666   3.371   4.915 -0.1410  0.0288  0.1816
16870W        W33718  11.941   8.149  13.502 -0.1825  0.2875  0.1113
16871W        W33719   6.345   0.906   5.099  0.1653 -0.0088  0.0883
16872W        W33720  16.681   1.435  11.946 -0.0742 -0.2490  0.3107
16873W        W33721  15.864  17.653   0.831 -0.3987 -0.0461  0.0121
16874W        W33722  17.125  10.554  12.537  0.2217  0.1323 -0.2184
16875W        W33723   2.350  13.237   3.661  0.2270  0.1095  0.3316
16876W        W33724   0.056  15.733   2.694  0.2008 -0.1165  0.1329
16877W        W33725   5.312  10.147   3.947 -0.0462  0.1379 -0.1173
16878W        W33726  12.692   7.435  13.434  0.0546 -0.1164 -0.1077
16879W        W33727   5.246  17.437   2.200 -0.1973 -0.0712  0.1216
16880W        W33728  11.887   7.662  14.741 -0.1770 -0.2078  0.0800
16881W        W33729   1.129   8.339  13.624 -0.0526 -0.0209 -0.1100
16882W        W33730   9.591  16.343   0.019 -0.2312  0.2040 -0.5145
16883W        W33731  15.767  13.447   2.540  0.0236 -0.3270  0.0701
16884W        W33732  12.186   3.735   2.909 -0.0251 -0.1278 -0.0056
16885W        W33733   4.379   2.710  16.122  0.4045  0.0065 -0.0724
16886W        W33734   8.472   2.335  13.353  0.0885  0.0864  0.0854
16887W        W33735  15.701  15.291   2.870  0.0219 -0.0780  0.4893
16888W        W33736   0.366  14.512  14.602 -0.1679 -0.0233 -0.1878
16889W        W33737   4.766   9.348   2.742 -0.1791  0.0106  0.0588
16890W        W33738  15.127   0.573  11.453 -0.1061  0.1291  0.0625
16891W        W33739  14.832  12.615   4.002  0.1669  0.0453 -0.0810
16892W        W33740   3.866   0.976   3.315  0.0313  0.1635 -0.0160
16893W        W33741   5.410  10.144  12.770 -0.0640 -0.1239  0.0100
16894W        W33742   3.302   9.452  12.104 -0.1991  0.4098  0.3181
16895W        W33743  16.469   4.652  11.859 -0.0142  0.0307 -0.2510
16896W        W33744  16.312   4.512  11.064 -0.3090  0.2430 -0.3062
16897W        W33745   6.671  17.964  15.656  0.1892 -0.0815  0.2434
16898W        W33746  16.741  12.229   0.177  0.0651  0.1743  0.2197
16899W        W33747  10.279   1.570  12.405  0.0083  0.0673 -0.0596
16900W        W33748  12.605  11.175  15.329  0.2400  0.5383 -0.0601
16901W        W33749  16.386   4.984  16.215 -0.0606  0.0737  0.1852
16902W        W33750   6.829   2.047  12.999 -0.1836 -0.2863 -0.1565
16903W        W33751   8.606  14.962  11.620 -0.4487  0.1476 -0.2774
16904W        W33752   5.859  10.065   5.069 -0.2690  0.0576  0.1692
16905W        W33753  12.588   7.288   1.156 -0.1083 -0.4395  0.2988
16906W        W33754   2.056   2.475   1.884  0.0573  0.0169  0.0903
16907W        W33755   7.053  16.916  12.914 -0.0579 -0.0051  0.1341
16908W        W33756   3.930   0.133   0.294  0.1041  0.0871 -0.0127
16909W        W33757   2.698  14.244   0.133  0.0124 -0.0550  0.1459
16910W        W33758  10.749  12.606   4.483  0.0233  0.0670  0.0876
16911W        W33759   3.852   0.165   2.715  0.0546 -0.2058  0.4023
16912W        W33760   1.773  10.483  15.707 -0.2573 -0.3146  0.0835
16913W        W33761   0.508  14.337  11.671 -0.2170  0.0029 -0.4479
16914W        W33762  12.973   3.856   4.156 -0.1074  0.0172  0.3667
16915W        W33763   8.668  15.613   4.536 -0.3405 -0.2446  0.1634
16916W        W33764   9.417   6.057  15.574 -0.1792 -0.1139  0.4095
16917W        W33765   7.758   8.282   5.608  0.0337 -0.1783  0.0927
16918W        W33766   1.596  12.430   3.439  0.2830  0.0093 -0.0485
16919W        W33767   5.467  13.805  12.685 -0.0283  0.1257 -0.2771
16920W        W33768   9.796  13.258  13.216 -0.6125 -0.0028 -0.2136
16921W        W33769  14.722  14.943   0.953  0.0525 -0.0662 -0.2538
16922W        W33770  11.887   5.599   2.146  0.0470  0.0110 -0.0577
16923W        W33771   4.913   4.155   0.627  0.1473 -0.0345 -0.1572
16924W        W33772  11.267  15.454  14.658 -0.0326  0.1816 -0.0336
16925W        W33773   3.617   0.194   0.938 -0.5122 -0.2096  0.0721
16926W        W33774   5.784  14.439  11.241  0.1659  0.0158  0.1231
16927W        W33775  14.046  17.967  13.412 -0.1674 -0.2461 -0.1051
16928W        W33776  15.815   7.922   2.718  0.0295 -0.0233  0.1784
16929W        W33777   1.630  14.181  14.090  0.0979  0.0814  0.2914
16930W        W33778   8.766  12.015  14.597  0.1683 -0.0766 -0.2006
16931W        W33779   7.400   3.827  13.283  0.1040  0.2697 -0.2410
16932W        W33780  10.259   7.836   0.946 -0.2008  0.1966  0.2640
16933W        W33781   5.671   2.468   0.030 -0.0655 -0.0709 -0.0340
16934W        W33782  16.610   0.451  12.359  0.1481  0.0349  0.4337
16935W        W33783   9.959   9.093   2.412  0.1655 -0.0030 -0.2477
16936W        W33784  10.373  10.874  13.272 -0.1055 -0.0622 -0.2329
16937W        W33785   8.412   3.957  16.181 -0.2761  0.0473 -0.0899
16938W        W33786  14.476  11.525   4.120  0.3064  0.0131 -0.2371
16939W        W33787  17.986   2.609   4.555  0.0519 -0.1017 -0.0293
16940W        W33788   4.222   4.469   3.779  0.5726 -0.0970  0.2417
16941W        W33789  15.751  12.982  11.637  0.2401 -0.0786 -0.2403
16942W        W33790  14.268   6.580   1.542 -0.0834 -0.1945 -0.0287
16943W        W33791   8.004   2.038   3.600 -0.1479 -0.1347 -0.2395
16944W        W33792  14.004  11.956  13.301  0.2059 -0.2189 -0.0291
16945W        W33793   3.275   8.928  11.898  0.1215 -0.0597  0.1877
16946W        W33794   8.900  16.929  14.172  0.0196  0.0219 -0.2269
16947W        W33795   2.819   9.621  14.784 -0.2722 -0.2049 -0.0581
16948W        W33796  17.386  15.566   6.484  0.0668  0.1137 -0.7425
16949W        W33797  14.629  15.349  14.605  0.0677 -0.0849  0.1086
16950W        W33798  11.279   0.201  14.287  0.0310 -0.1535 -0.0551
16951W        W33799   5.167  10.778   0.561  0.1941 -0.0368  0.2399
16952W        W33800  16.236   2.456   2.093 -0.2176  0.0032  0.3316
16953W        W33801   3.350  16.029  12.441 -0.0107 -0.3039  0.1059
16954W        W33802  12.216   6.857  14.460  0.1009 -0.1426 -0.0374
16955W        W33803  15.072  14.937   3.376 -0.2759  0.3127  0.0599
16956W        W33804   7.270  11.141   0.068 -0.0986  0.1974 -0.3247
16957W        W33805  15.271   6.277  12.055  0.0319  0.2617  0.0647
16958W        W33806   2.485   1.822   5.368  0.0792 -0.1341  0.0341
16959W        W33807  15.865   0.146   5.908 -0.1612 -0.0214 -0.1536
16960W        W33808   0.776   2.406  15.780  0.0176 -0.1047  0.0828
16961W        W33809  16.419   9.212   1.118 -0.2021  0.0891  0.0157
16962W        W33810   6.169   2.915  12.509  0.1087 -0.0143  0.3081
16963W        W33811   1.055  15.616   3.702 -0.1031  0.0102 -0.3267
16964W        W33812   3.913   1.482   1.436  0.1248 -0.2194  0.1005
16965W        W33813   1.037   4.206  15.401 -0.1115  0.0053  0.0504
16966W        W33814   2.846   3.877  14.904  0.2866 -0.0140 -0.0793
16967W        W33815   7.952  13.827   3.268  0.0938  0.0926  0.1310
16968W        W33816  15.472  11.165  12.893  0.4526 -0.0902  0.1922
16969W        W33817  16.324   8.778   5.819 -0.1128 -0.1038 -0.0728
16970W        W33818  15.220  15.571  11.678  0.0057  0.0766  0.1054
16971W        W33819  13.814   1.392   1.972 -0.4598 -0.0799 -0.1684
16972W        W33820   3.263  13.056  11.378  0.0872  0.0626 -0.1495
16973W        W33821   1.267   0.263  14.669  0.0637  0.1353  0.1888
16974W        W33822   8.030   7.626   9.735  0.1025  0.1238  0.0544
16975W        W33823  12.187  10.175  15.187 -0.2244  0.1039 -0.1128
16976W        W33824  14.548  11.313  14.998 -0.1121  0.2261 -0.2867
16977W        W33825  12.915  11.571   0.043 -0.0131  0.1748  0.1221
16978W        W33826  10.781   4.449  11.769  0.1128 -0.0079  0.1600
16979W        W33827  13.097   6.748  14.011 -0.0552 -0.1083 -0.1459
16980W        W33828   4.927  15.621   2.613 -0.0323 -0.1686 -0.0698
16981W        W33829  17.266  16.014   2.483 -0.4297  0.0625  0.1591
16982W        W33830  16.089  16.620   1.585  0.2157 -0.1026  0.0637
16983W        W33831   2.577   7.663   2.097  0.3008 -0.0172  0.2280
16984W        W33832   1.305  13.018   0.157  0.0020 -0.0138  0.2702
16985W        W33833  16.889   3.794  13.591  0.0327 -0.1065 -0.0470
16986W        W33834   7.836  12.738  12.494  0.2807 -0.0180 -0.1961
16987W        W33835   0.827   3.464  13.225  0.2652 -0.0387  0.0670
16988W        W33836   1.212  10.159   2.260  0.0164  0.0325 -0.1538
16989W        W33837  13.566  12.510   2.562  0.0654 -0.1794 -0.2373
16990W        W33838  12.021  11.676  16.260  0.1987  0.1473 -0.0317
16991W        W33839   9.688   8.697   2.500  0.1207  0.1773 -0.1333
16992W        W33840  14.362  16.509  16.035  0.0374 -0.0342  0.1329
16993W        W33841   1.970   1.561  11.368  0.1880 -0.3175  0.4247
16994W        W33842   7.196   9.777  12.628 -0.3385 -0.0125  0.1302
16995W        W33843  13.275   0.786  13.367 -0.0317 -0.4951 -0.0511
16996W        W33844   0.603   4.901  14.910  0.0005 -0.1007  0.1520
16997W        W33845  11.357  16.528  16.091 -0.1006 -0.0103  0.1522
16998W        W33846   6.977  15.112   5.196  0.1027 -0.1895 -0.2627
16999W        W33847  17.443   7.671   5.704  0.0144 -0.3735  0.2079
17000W        W33848   8.818   2.243  14.349 -0.0313 -0.3112  0.0136
17001W        W33849   3.189  15.889  16.010  0.1521 -0.1032 -0.2378
17002W        W33850  15.794   5.123   2.063  0.4089  0.2838 -0.0873
17003W        W33851  10.996   5.618   3.463 -0.0174  0.1966  0.2144
17004W        W33852  15.778  15.119   3.329  0.0084  0.2952 -0.2468
17005W        W33853   8.908   3.988   1.141  0.1542  0.0346  0.3088
17006W        W33854  15.406   1.022  12.151 -0.0073 -0.3420 -0.1940
17007W        W33855   4.624   9.025   4.220 -0.0461 -0.3191  0.1088
17008W        W33856  17.058   1.399   4.426 -0.0322  0.1830  0.0502
17009W        W33857   8.054   2.397   0.082 -0.0575  0.0533  0.0521
17010W        W33858   0.553  12.812   6.161 -0.0798  0.0296 -0.0370
17011W        W33859  12.517   9.285   3.625 -0.0266  0.2255 -0.2837
17012W        W33860   8.533   4.922  16.194 -0.1774 -0.2100 -0.0516
17013W        W33861  14.757  11.224   5.643  0.1939 -0.2013  0.2417
17014W        W33862   1.533   4.906   4.643 -0.0357 -0.1256 -0.0177
17015W        W33863  17.279  18.030   1.811  0.0882  0.0337 -0.0845
17016W        W33864  12.868   3.536   0.058  0.0942  0.0251  0.0239
17017W        W33865   3.277   8.766  14.777  0.3461 -0.3332  0.2959
17018W        W33866  14.077   7.208   3.139 -0.0188  0.0575  0.1351
17019W        W33867  11.946   1.778  15.578  0.1858  0.0324 -0.0819
17020W        W33868   7.573  13.643   1.315 -0.2348 -0.0692  0.3381
17021W        W33869  15.401  16.980   4.464 -0.2967 -0.1305 -0.1674
17022W        W33870   8.258  17.131   0.972 -0.2011 -0.0105  0.0711
17023W        W33871   0.099  15.194  15.917  0.1173 -0.0722  0.1284
17024W        W33872  15.600  14.041  13.851 -0.0015  0.1748  0.2134
17025W        W33873   1.499   4.595   3.723 -0.3478  0.1622 -0.1924
17026W        W33874   7.293  15.284   0.867  0.0454 -0.3444 -0.3395
17027W        W33875   8.977  17.560   2.742 -0.1280 -0.0397  0.2031
17028W        W33876   9.442   7.664  14.981  0.1059  0.0566 -0.1711
17029W        W33877  10.380   1.465  16.158 -0.3893  0.3431 -0.3113
17030W        W33878  12.119  12.303   4.289  0.2579  0.1548  0.1729
17031W        W33879   1.265  14.647   5.513  0.2650 -0.1918 -0.2140
17032W        W33880   8.018   5.526   4.405  0.1603 -0.0339  0.0771
17033W        W33881   8.157  10.567   4.480 -0.2530  0.1215  0.0649
17034W        W33882   6.958  12.667  12.936 -0.1483  0.1837  0.2025
17035W        W33883   3.990   1.264  16.282 -0.0172  0.2407 -0.1525
17036W        W33884   7.031   3.637   1.010  0.0335  0.0393  0.2569
17037W        W33885  16.145  15.526  14.238 -0.4552 -0.1816 -0.0481
17038W        W33886   2.410   4.353  12.296  0.2590 -0.1736  0.1501
17039W        W33887   3.665  12.082   1.162  0.4805 -0.1740  0.1057
17040W        W33888  13.468   1.530   1.274  0.2922  0.0697  0.0126
17041W        W33889  16.512  14.094   0.216 -0.1934  0.1419 -0.1663
17042W        W33890  15.410  14.863   2.189  0.4649 -0.0920  0.0039
17043W        W33891   9.888  14.571  13.281 -0.0894 -0.0229 -0.0815
17044W        W33892   6.946  12.448  12.079 -0.1927 -0.3729  0.3455
17045W        W33893   6.898   1.140  12.433 -0.0792  0.0542  0.0191
17046W        W33894  13.170   6.830   4.773 -0.0475 -0.3911  0.0517
17047W        W33895   2.677   7.299  14.812  0.1582  0.2623 -0.0690
17048W        W33896  13.011  16.036   5.264  0.3364  0.0776  0.2222
17049W        W33897  11.137   7.651   3.715 -0.3837 -0.1058 -0.1251
17050W        W33898   6.447   7.885  10.534  0.0508  0.0847 -0.0314
17051W        W33899   3.023  16.621   4.386  0.3586 -0.0761  0.2840
17052W        W33900   7.043   2.486  12.892  0.1655  0.0923 -0.0119
17053W        W33901   2.353  16.438   0.304 -0.4920 -0.2218  0.0807
17054W        W33902  16.879  13.149   2.386 -0.0377 -0.1708  0.0683
17055W        W33903   1.667   3.009   2.665 -0.0532  0.1823  0.1154
17056W        W33904   9.397   9.664   4.897 -0.0617 -0.6566 -0.0278
17057W        W33905   6.253   8.014   4.631  0.0457  0.2121 -0.2246
17058W        W33906  14.558   4.511   2.225  0.5760 -0.1453 -0.0994
17059W        W33907  16.215   0.062  11.022 -0.1208 -0.1567  0.0656
17060W        W33908  10.674  17.146  12.451  0.1307 -0.0920  0.2888
17061W        W33909   7.740   2.650   2.521  0.1535 -0.1157  0.1258
17062W        W33910  10.906  17.956   3.130 -0.1146 -0.0408 -0.1613
17063W        W33911   5.944  16.201   2.843 -0.0422  0.1501 -0.1543
17064W        W33912  12.879   7.751   2.246 -0.0421  0.0195 -0.0215
17065W        W33913   0.133  12.436  11.747  0.1474 -0.2307  0.4151
17066W        W33914   1.243  10.276   0.479 -0.0421  0.2195  0.2192
17067W        W33915  17.116  18.065   2.620  0.0796  0.0080 -0.0516
17068W        W33916  12.690  17.909   4.348  0.0830  0.1749  0.3027
17069W        W33917  10.039  11.284   1.976  0.1363  0.2823  0.0573
17070W        W33918  13.063   0.513   4.553 -0.2072 -0.0878  0.2854
17071W        W33919  11.048   0.667   1.961 -0.1227  0.1034 -0.4135
17072W        W33920   4.229   9.738  12.433  0.2521  0.0457 -0.0525
17073W        W33921   5.267   2.027  15.639 -0.2024  0.0441  0.2250
17074W        W33922  10.796  13.011   5.457 -0.2103  0.0152  0.1647
17075W        W33923   5.492  10.725  14.626 -0.0059  0.1412  0.0699
17076W        W33924  14.350   6.328  12.486  0.0348  0.3523 -0.3203
17077W        W33925  11.341   7.530   2.452 -0.0974  0.0775  0.1945
17078W        W33926  16.252  17.048   3.271  0.5463  0.1203 -0.0719
17079W        W33927   8.686  15.497  13.263  0.0372 -0.1001  0.1170
17080W        W33928   2.568   1.472   3.622  0.0744 -0.0276 -0.0132
17081W        W33929   6.984   9.534  11.551 -0.3593  0.0569  0.0336
17082W        W33930  11.714   9.316   2.863  0.1203  0.1410  0.0877
17083W        W33931  11.761   0.015   0.121  0.2957  0.2852  0.2319
17084W        W33932   3.067  16.349  15.009  0.0451  0.2153 -0.3132
17085W        W33933   7.383  12.591   5.342  0.0998 -0.1427  0.1276
17086W        W33934  17.033  15.897  11.813 -0.2518  0.1296 -0.1077
17087W        W33935   2.852  13.522  13.269 -0.0806  0.1547  0.3089
17088W        W33936   4.241   6.292   0.103  0.3150  0.1433 -0.1863
17089W        W33937  10.648   1.901  12.193 -0.0640  0.0758  0.1518
17090W        W33938  10.874  11.515  11.604  0.2712  0.1504  0.2447
17091W        W33939  16.128  12.369  14.492 -0.0866  0.3805  0.1179
17092W        W33940   2.395  17.719  13.124 -0.1864 -0.1987  0.2187
17093W        W33941  11.617   8.757  14.846  0.2441  0.1984  0.0049
17094W        W33942   5.084   2.773  11.420  0.0446  0.3282 -0.0600
17095W        W33943   1.363   1.788   2.882  0.1599  0.2736  0.2793
17096W        W33944   6.445  11.815   0.574 -0.1611 -0.3051 -0.1122
17097W        W33945   4.637   5.371  14.829 -0.2116 -0.1045  0.3952
17098W        W33946   6.951  11.868  11.646  0.0762  0.0088  0.0820
17099W        W33947  13.217   4.727  15.748 -0.0814  0.0153  0.0358
17100W        W33948  15.542  11.749  14.466  0.0293 -0.0754  0.1382
17101W        W33949   7.906   9.343   1.333  0.0961  0.0139 -0.0104
17102W        W33950   4.387   3.906  12.517 -0.2870 -0.2064  0.0223
17103W        W33951   0.819   1.199  14.058  0.1764 -0.1833  0.0194
17104W        W33952   1.567   7.585  11.197 -0.1250  0.4282 -0.2188
17105W        W33953   3.978  11.038   0.363  0.1019 -0.2556  0.1041
17106W        W33954   9.894  15.347   4.645  0.0374  0.2020  0.3547
17107W        W33955   9.912  11.819  13.267 -0.0615  0.1058 -0.0253
17108W        W33956  14.657   0.715   3.546 -0.0561  0.1447  0.1374
17109W        W33957   7.108  17.731  13.266 -0.1155 -0.0788 -0.3119
17110W        W33958  12.973  10.597  16.015 -0.0074 -0.0506 -0.0429
17111W        W33959   2.253   1.225   4.115 -0.0943  0.1742 -0.1891
17112W        W33960   9.599   1.563  16.296 -0.1969  0.0403  0.0682
17113W        W33961   7.251   2.804   4.803 -0.5368 -0.1488  0.0008
17114W        W33962   7.430   5.336   2.879  0.0736  0.0299 -0.2116
17115W        W33963  14.216   9.260   1.715  0.0293  0.1694  0.1257
17116W        W33964  15.451  14.859   3.070  0.0188 -0.1560  0.0881
17117W        W33965  11.423  10.054   5.336  0.3844 -0.2088  0.1818
17118W        W33966  13.820   7.134   1.034  0.0354 -0.0536 -0.1199
17119W        W33967   5.426  17.161  15.906  0.0381  0.0510  0.0164
17120W        W33968  16.339  11.558   4.185 -0.2780  0.1893  0.1521
17121W        W33969   7.199  14.464  14.507  0.2676 -0.1542  0.1346
17122W        W33970  13.398  11.627  12.175  0.0539 -0.1241 -0.1681
17123W        W33971   8.602   3.945   4.681 -0.3369 -0.0332 -0.2134
17124W        W33972   7.832  13.763   4.243  0.3388  0.1763  0.1232
17125W        W33973   7.508   6.204  11.191  0.0671  0.1485 -0.4259
17126W        W33974   6.266   5.119   0.179  0.0611 -0.0412  0.0549
17127W        W33975   6.959   1.487  15.643  0.1444 -0.1824 -0.1201
17128W        W33976  15.616  12.951   5.015  0.1656  0.0220  0.0486
17129W        W33977   1.905   3.990   6.132 -0.0939  0.1873  0.2162
17130W        W33978  13.091   2.275   2.764  0.1974  0.0605  0.0635
17131W        W33979   8.481  16.223  12.164 -0.0831 -0.2173  0.0822
17132W        W33980   3.661   8.472  15.692  0.4346  0.0211  0.0935
17133W        W33981  12.879  10.954   1.419 -0.2906  0.2430 -0.3522
17134W        W33982   1.341   2.915  15.231  0.3015 -0.1533  0.2122
17135W        W33983  12.675  17.867  14.957  0.0448  0.1222 -0.3944
17136W        W33984   5.393  12.780  16.326 -0.2417 -0.1255 -0.0301
17137W        W33985   3.488   5.732  16.148  0.1283 -0.0432 -0.0307
17138W        W33986   4.992  18.046   4.498 -0.1017  0.1550  0.1371
17139W        W33987   6.500  12.903  12.888 -0.0748  0.0384  0.1230
17140W        W33988  12.928  14.326  14.546  0.2871 -0.1421 -0.4254
17141W        W33989   5.519  16.835   4.850 -0.1427 -0.2133 -0.1466
17142W        W33990   4.537   0.758  16.177 -0.0084  0.3926  0.1302
17143W        W33991  14.549  11.142   1.719  0.2644 -0.0925 -0.0997
17144W        W33992  16.931   3.507   2.165  0.2945  0.2155  0.2773
17145W        W33993  16.614   6.969  14.110  0.3215  0.0824  0.2760
17146W        W33994  12.577  12.889  15.689  0.0080 -0.1611 -0.0098
17147W        W33995  12.832  17.162  13.262  0.2485  0.1373  0.0584
17148W        W33996   6.240  12.548   3.442 -0.1113  0.1699  0.0299
17149W        W33997   8.744  17.039  15.161  0.2460 -0.0424  0.0563
17150W        W33998   2.742   9.524   2.244 -0.1557  0.1336  0.1487
17151W        W33999   7.547  11.913   4.744  0.1173  0.1085 -0.1575
17152W        W34000   7.518   3.781   0.810 -0.2616  0.0330  0.0079
17153W        W34001   3.023  11.203   3.093  0.0641 -0.1089 -0.1518
17154W        W34002   4.553   8.113  11.871 -0.1028 -0.0223  0.3063
17155W        W34003   3.028   4.971   0.173 -0.2673  0.0677 -0.0323
17156W        W34004  15.480  17.813  12.054 -0.1497 -0.1677 -0.2066
17157W        W34005   3.295   4.625   2.617  0.2483  0.1498  0.0564
17158W        W34006  16.731   7.039   0.308  0.0482 -0.1894  0.0994
17159W        W34007   3.012   0.917  14.973  0.2682  0.0276 -0.2788
17160W        W34008   6.502  10.310  10.665  0.0788  0.3281  0.1786
17161W        W34009   2.514  10.656  15.669  0.0900 -0.1543  0.0039
17162W        W34010   4.313  16.804   2.609  0.3048  0.0136  0.0091
17163W        W34011  12.691   0.918   2.889  0.1370 -0.0572 -0.0686
17164W        W34012   8.530  16.598   4.489 -0.1666  0.0196 -0.3762
17165W        W34013   9.553   9.226   0.790 -0.0496 -0.0617  0.0195
17166W        W34014   0.990   3.568   5.102  0.0567  0.0809  0.2191
17167W        W34015  11.065  10.075   3.649  0.2019 -0.1298 -0.1978
17168W        W34016  15.336   4.142  13.421 -0.2318  0.1137  0.1910
17169W        W34017   5.950  11.818  13.155 -0.1470 -0.3031  0.0471
17170W        W34018  15.068   6.744  11.911 -0.3674 -0.3397 -0.0773
17171W        W34019  10.720   6.794  15.906  0.0320  0.1011  0.1092
17172W        W34020  12.426  15.236  13.906  0.2576  0.0283 -0.2273
17173W        W34021   7.572  14.838  13.335 -0.0405 -0.0153 -0.2418
17174W        W34022  11.217   3.658   2.748 -0.0069 -0.2679 -0.1497
17175W        W34023   2.053   6.191   1.054  0.2286 -0.1538 -0.1557
17176W        W34024  10.283   1.752   1.775 -0.0643 -0.3978  0.3440
17177W        W34025   4.908   4.024  13.443  0.1575 -0.4629  0.0845
17178W        W34026   9.191  12.253   2.504  0.1246 -0.0038 -0.0608
17179W        W34027   2.561  13.112   4.249  0.1119 -0.0127 -0.0451
17180W        W34028  16.084  10.828   2.019 -0.3530 -0.1229 -0.1014
17181W        W34029   7.932   1.295  15.682  0.0837 -0.1995 -0.0642
17182W        W34030   1.207  11.279  12.479 -0.1689  0.0480  0.2183
17183W        W34031   3.211   7.482  11.699 -0.0634  0.0803  0.1104
17184W        W34032  16.158   7.955  15.562 -0.5171  0.1210 -0.0357
17185W        W34033   0.734  17.259  11.641 -0.0372 -0.2079  0.0316
17186W        W34034  10.348   4.447   1.645 -0.0534  0.2758 -0.2556
17187W        W34035   1.971   7.252   2.805 -0.3004  0.0289 -0.1226
17188W        W34036   5.124   7.050  12.306 -0.0155  0.1498  0.0275
17189W        W34037  10.066   0.495  15.746 -0.0490 -0.2391  0.0791
17190W        W34038  13.120   3.313   3.118  0.0240  0.2639 -0.3867
17191W        W34039   7.634  13.009  16.003  0.0572 -0.0821 -0.0335
17192W        W34040   6.064  14.572  12.825  0.0447 -0.1672  0.0216
17193W        W34041  16.549  13.323   0.090 -0.0854 -0.2942  0.1810
17194W        W34042  12.496  11.067   4.417  0.0334  0.1365  0.0013
17195W        W34043   4.788   0.311  16.086 -0.1166 -0.0220 -0.3287
17196W        W34044   5.526   0.832   4.071 -0.1754 -0.2050 -0.0054
17197W        W34045   1.983  15.551   0.147 -0.0860 -0.1668  0.0460
17198W        W34046   4.850   6.806  13.854  0.1868 -0.0343  0.1071
17199W        W34047   9.760   1.840   0.885 -0.2451  0.0680  0.1633
17200W        W34048   1.216  10.222  14.056 -0.1696 -0.0121 -0.2257
17201W        W34049  11.749  10.321  15.442  0.1962 -0.0764 -0.1673
17202W        W34050   9.061  10.333  14.813 -0.0287 -0.1198  0.1968
17203W        W34051  12.214  16.387   2.230 -0.0640 -0.0806  0.2275
17204W        W34052  16.706  15.595   3.780 -0.0552  0.1022 -0.1546
17205W        W34053   7.708   7.858   4.573  0.2563 -0.1883  0.2636
17206W        W34054  15.368   3.828  12.042  0.0912 -0.1875 -0.0996
17207W        W34055   7.807   1.405  12.588 -0.3237  0.1499  0.2738
17208W        W34056   8.068   0.146  14.179 -0.3705 -0.2350 -0.2727
17209W        W34057   1.212   3.334  14.210  0.2382  0.1160  0.1931
17210W        W34058  11.401  17.526   1.370  0.0422 -0.0210 -0.0353
17211W        W34059  13.416   8.746  14.680  0.1920 -0.3694  0.0644
17212W        W34060   9.437   4.879   4.600 -0.1871 -0.1041 -0.0104
17213W        W34061   1.996   9.884   4.081  0.2905 -0.0941  0.4649
17214W        W34062  18.023   0.796  10.250 -0.1646  0.0492 -0.0167
17215W        W34063  15.977  11.293   1.447 -0.2355 -0.2633 -0.1413
17216W        W34064  10.355  10.793  10.472  0.0077  0.2219  0.0121
17217W        W34065  11.720  12.273   4.781  0.0553 -0.3489  0.2141
17218W        W34066   8.098  16.782   4.799  0.0312 -0.1956  0.1502
17219W        W34067  12.238  13.787  11.162  0.3761  0.0399 -0.0314
17220W        W34068   7.984  10.094  16.142  0.0354 -0.0198  0.0386
17221W        W34069  15.400   7.220  13.142 -0.3252 -0.2118 -0.2387
17222W        W34070   3.609  14.197   6.154  0.1014  0.1927 -0.0496
17223W        W34071   8.456  10.368  11.201  0.1648 -0.4746 -0.0751
17224W        W34072   2.209   6.113   5.831 -0.2508  0.3310 -0.0048
17225W        W34073   0.958   4.719  11.366 -0.1203 -0.1897  0.3933
17226W        W34074  13.119   2.618   0.649 -0.0626  0.2326 -0.0060
17227W        W34075   7.054   8.572   4.566 -0.2298  0.2261 -0.1454
17228W        W34076  14.979   0.369   0.115  0.1510 -0.2324 -0.0465
17229W        W34077  14.903   0.216  13.336 -0.1675 -0.2450  0.3242
17230W        W34078   3.579   9.255  11.592 -0.1063  0.1692 -0.1118
17231W        W34079   4.194  11.163  10.934 -0.1250  0.0855 -0.0666
17232W        W34080   1.141   8.765  13.308 -0.2797 -0.2495  0.0723
17233W        W34081  13.540   9.709  12.998  0.1894 -0.1010  0.3009
17234W        W34082  17.027   0.962  15.021 -0.0003 -0.2234 -0.3965
17235W        W34083   2.985   2.887   4.981  0.0251 -0.0974  0.0744
17236W        W34084  10.670  10.692  16.101  0.1146 -0.4219  0.1301
17237W        W34085   2.605  12.552  10.991  0.0098 -0.1346 -0.1680
17238W        W34086   4.429  16.139   1.304  0.2570  0.1675  0.1358
17239W        W34087   5.031   3.945  11.872 -0.0348 -0.0251  0.4486
17240W        W34088   9.741  13.699   2.879  0.4480 -0.0069  0.0411
17241W        W34089   5.423   9.145   4.763 -0.1687 -0.0453  0.2538
17242W        W34090   1.022  16.100  15.705  0.0783 -0.1280 -0.3346
17243W        W34091  13.792   0.164  14.822  0.3053  0.3407  0.0767
17244W        W34092  11.642  15.884  12.947 -0.3619 -0.2403 -0.0386
17245W        W34093   1.408  13.817   1.884  0.0260  0.0043 -0.3037
17246W        W34094  11.385   6.261   0.712  0.0436  0.1834  0.0585
17247W        W34095   7.352   3.932  13.820  0.1175  0.0026 -0.0487
17248W        W34096   5.289  11.164  13.265  0.0196 -0.1894  0.1251
17249W        W34097   8.280   9.019   2.068  0.1636 -0.1982  0.4622
17250W        W34098   5.263   0.740  13.661 -0.0776  0.0860 -0.1340
17251W        W34099   1.840   3.671   2.105 -0.1257  0.1116  0.0149
17252W        W34100   3.614  14.946   0.275  0.0560 -0.1972 -0.1636
17253W        W34101  14.544  17.265  10.959 -0.2749  0.1306  0.2020
17254W        W34102  12.381  11.663  11.123  0.0256 -0.1668 -0.0054
17255W        W34103   8.659   0.589  15.988  0.1852  0.4938 -0.3313
17256W        W34104   7.980   4.221  14.173  0.2110 -0.1485 -0.1358
17257W        W34105  10.492  15.669  12.176 -0.1968  0.0058  0.0269
17258W        W34106   7.398  17.308  13.109  0.1508 -0.1308  0.0263
17259W        W34107   1.433  15.128  11.870 -0.0759 -0.0213 -0.2633
17260W        W34108   7.821  10.278  14.450  0.1599 -0.0557 -0.2300
17261W        W34109  13.201  13.594   1.209 -0.2301  0.2726 -0.0383
17262W        W34110   4.573   6.263  14.853 -0.1490  0.0312 -0.4507
17263W        W34111  12.983  11.505  12.530  0.0800  0.0804  0.0294
17264W        W34112   0.205  13.611  11.793  0.0030 -0.1593 -0.2410
17265W        W34113  18.069   5.167  16.041  0.3875  0.0247 -0.3764
17266W        W34114   3.182   0.266   3.838  0.3101 -0.1271 -0.1302
17267W        W34115  10.518   9.255   3.251  0.1115 -0.0660  0.0785
17268W        W34116   4.899  15.758  11.562 -0.1194 -0.0251 -0.0229
17269W        W34117   2.770  14.434   2.298  0.0040  0.3573 -0.1912
17270W        W34118  15.332  15.991  16.299 -0.1357 -0.0008  0.1823
17271W        W34119   8.288  10.613   2.692 -0.0588  0.0872  0.2329
17272W        W34120   1.771  12.053  15.388 -0.0419 -0.2195 -0.1143
17273W        W34121  16.420  16.960  11.392  0.1750  0.2235 -0.0252
17274W        W34122  16.861   0.445   0.332  0.0794  0.2471 -0.4376
17275W        W34123  10.452  10.218   0.772  0.0397  0.0589 -0.2361
17276W        W34124  11.570  15.571  12.482  0.0425 -0.1269  0.1707
17277W        W34125   2.442   9.286  15.935 -0.1559 -0.0107 -0.1096
17278W        W34126   9.105   6.989  13.804 -0.1876  0.0207 -0.1218
17279W        W34127   3.650   7.725   4.121 -0.0112 -0.3141  0.4500
17280W        W34128   3.834  15.432  14.233  0.0196 -0.2369  0.1004
17281W        W34129  14.268   0.908   4.510 -0.2838 -0.1739 -0.1319
17282W        W34130  13.727   6.570  10.725  0.0298 -0.3032  0.0331
17283W        W34131   4.670  14.561   4.762 -0.0132  0.0371  0.1632
17284W        W34132  15.035   5.054   0.382  0.0581 -0.0791 -0.1768
17285W        W34133  15.131   2.015  15.149 -0.3081 -0.2219 -0.1374
17286W        W34134   9.849   4.391   2.641  0.1457  0.0371 -0.3866
17287W        W34135   5.518  12.483   6.012  0.0164  0.0648 -0.1970
17288W        W34136   7.918   1.309   1.633 -0.2677 -0.0569  0.0861
17289W        W34137  15.217   2.601  13.088  0.0969  0.1819  0.0039
17290W        W34138   3.750   3.149   0.155 -0.2233  0.2095  0.1516
17291W        W34139  13.240   2.884   4.557  0.1019  0.2330 -0.2549
17292W        W34140  17.170   3.827   1.047  0.3135 -0.1126 -0.1168
17293W        W34141   3.825  17.788   2.187 -0.1303  0.1302 -0.1838
17294W        W34142   4.795  10.711  15.514 -0.2037  0.4445  0.1439
17295W        W34143   3.979  17.771  12.369 -0.0508 -0.2103  0.3258
17296W        W34144  13.975  16.621  11.530  0.1161 -0.2189 -0.0986
17297W        W34145  12.763   7.480   4.505  0.0026 -0.0101  0.1054
17298W        W34146   8.244   1.905   4.280  0.4339 -0.1939  0.0671
17299W        W34147  16.133   0.113   0.764  0.0294 -0.0364  0.1085
17300W        W34148   0.945   9.509  14.726  0.2643 -0.2808  0.3264
17301W        W34149  17.922  11.796   5.394 -0.0587  0.1818  0.0219
17302W        W34150   1.964  17.422   0.326  0.0458  0.2565 -0.1725
17303W        W34151  10.186  18.090   1.743 -0.0778  0.0974  0.3410
17304W        W34152   2.069   6.886   5.311 -0.1305  0.0093  0.0006
17305W        W34153   3.432   9.429  15.547  0.0498  0.1438 -0.1721
17306W        W34154   8.573   9.303   0.437 -0.0171 -0.1012  0.0231
17307W        W34155  13.045  13.487   4.599  0.0811  0.2672 -0.4050
17308W        W34156   0.130   3.637  13.107  0.0168 -0.1861  0.1189
17309W        W34157   2.737   8.331   1.626 -0.2124  0.1622 -0.1137
17310W        W34158   7.357  12.383  13.723 -0.1450 -0.1049 -0.2197
17311W        W34159   3.275  10.881  13.221 -0.1346 -0.1230  0.3290
17312W        W34160   3.163  11.609   3.903  0.1837  0.1552 -0.0982
17313W        W34161   7.279  10.060  12.277  0.0929  0.1497  0.2592
17314W        W34162  12.171   5.469   1.643 -0.0168  0.0424  0.0080
17315W        W34163  10.108   2.979  13.393 -0.0329 -0.0009 -0.1866
17316W        W34164   5.716  15.423   5.350  0.1181  0.0641  0.0343
17317W        W34165   6.458   6.901  12.918 -0.2428 -0.2987  0.1103
17318W        W34166  15.335   1.641   6.129 -0.0148  0.2761  0.0325
17319W        W34167   6.578   2.235   5.547 -0.1086 -0.1292  0.0319
17320W        W34168  17.747   0.596  12.027  0.0877  0.3122  0.3707
17321W        W34169   2.750   1.314   2.076  0.0186  0.1162  0.1819
17322W        W34170   4.515   3.439  16.163  0.0412  0.3205 -0.1152
17323W        W34171  11.663  13.839  13.721  0.1115  0.1348  0.2620
17324W        W34172   7.624   4.057   2.311  0.1066  0.0250 -0.1803
17325W        W34173  11.612   3.462  15.727  0.0035 -0.0457 -0.1839
17326W        W34174  17.499  17.331  13.912 -0.1635 -0.0792  0.0342
17327W        W34175   8.931  11.103   4.752 -0.0088 -0.1072 -0.2428
17328W        W34176   4.253   8.252   5.973 -0.0203 -0.0984 -0.2136
17329W        W34177   8.237   4.892  12.347  0.1969  0.0007  0.0771
17330W        W34178   1.610  15.429   0.696  0.0123  0.1620  0.2249
17331W        W34179   6.084   5.414   2.678 -0.4375  0.2150  0.3338
17332W        W34180   3.242   3.319   2.295  0.4036 -0.0327 -0.0980
17333W        W34181  13.338  14.978  12.786 -0.1435  0.0374  0.2074
17334W        W34182   5.319  15.498   1.309  0.0238  0.2920  0.1432
17335W        W34183  16.492  15.135   3.784 -0.1637 -0.0487  0.0070
17336W        W34184   0.227  12.419   5.328 -0.0298  0.1530  0.1061
17337W        W34185  10.740   8.311  15.357 -0.1062  0.0052  0.0381
17338W        W34186   2.924   3.237  12.599 -0.0732  0.1410 -0.0904
17339W        W34187  18.085  10.334   2.738  0.1393  0.1533  0.2868
17340W        W34188  15.644   6.288  13.254  0.0439 -0.2089  0.0065
17341W        W34189   1.621  16.557   2.529 -0.1585 -0.1821  0.1507
17342W        W34190   2.670   9.278   4.209 -0.1293 -0.0547 -0.0529
17343W        W34191   7.329   0.095  12.366 -0.0268 -0.1209 -0.0441
17344W        W34192   7.511   9.330  11.545  0.1845  0.2235  0.1000
17345W        W34193  15.708  10.369  14.501  0.0484  0.0289  0.0477
17346W        W34194  16.989   1.861   2.095 -0.0319 -0.1023 -0.0141
17347W        W34195   9.719  15.440  14.767 -0.1640 -0.0584 -0.2254
17348W        W34196   8.597  13.963  15.655 -0.2344  0.1863  0.1410
17349W        W34197  15.749   0.957  12.894 -0.1938 -0.0025  0.1825
17350W        W34198  10.163   8.588  13.093 -0.0690 -0.2277 -0.2576
17351W        W34199  12.461  16.163  13.369  0.1522 -0.0189  0.2785
17352W        W34200   8.675   9.648  13.448 -0.0214 -0.1700  0.0757
17353W        W34201  13.981  12.602  14.804  0.3241 -0.0960  0.1551
17354W        W34202   9.444  15.968  13.943  0.1958 -0.1781 -0.0687
17355W        W34203   9.936  10.121   3.183  0.2561  0.0502  0.0790
17356W        W34204   6.600   7.692   4.474  0.4295 -0.1198 -0.0248
17357W        W34205   0.165  13.835  14.600  0.3060 -0.4219  0.1157
17358W        W34206   2.270   5.280  12.751  0.0150 -0.1819 -0.1075
17359W        W34207   7.662  13.218  14.867 -0.1979 -0.0821  0.1033
17360W        W34208   7.545   7.809  12.829  0.0478  0.2032 -0.1416
17361W        W34209  10.872   2.557   0.545  0.2090  0.0958 -0.1132
17362W        W34210  16.206   8.856  14.936  0.1512 -0.0298 -0.1468
17363W        W34211   5.582   3.997  14.105  0.3358  0.0493 -0.0251
17364W        W34212  10.843  17.150   1.901 -0.3141 -0.3106  0.1990
17365W        W34213   6.559   7.107   1.206 -0.1800  0.2393  0.0685
17366W        W34214  13.685   4.410   1.976  0.0644  0.0707 -0.3789
17367W        W34215   3.378   0.721  12.346 -0.1955  0.5126  0.0162
17368W        W34216  11.872   6.603   1.074  0.0129  0.0407 -0.2712
17369W        W34217  17.203   2.285   2.397  0.0525 -0.0504 -0.1121
17370W        W34218  12.366   7.962   0.236 -0.0430  0.3343  0.3932
17371W        W34219  12.524  17.878   5.108  0.1853  0.0618  0.0301
17372W        W34220   7.646  16.061  11.668 -0.0004  0.1538 -0.3183
17373W        W34221   8.176  14.580  12.376  0.0509 -0.2392 -0.0430
17374W        W34222   0.276   0.898  15.219 -0.0082 -0.1295 -0.3439
17375W        W34223   8.330  16.775  12.994 -0.2283  0.1128  0.4891
17376W        W34224   6.522  16.675   5.413 -0.1033  0.2270  0.0448
17377W        W34225  16.787  15.322   1.965  0.0873  0.2462  0.0179
17378W        W34226  11.794   3.107   2.821 -0.1003  0.0990  0.3076
17379W        W34227   4.531  15.379  16.179  0.1568 -0.0357  0.0587
17380W        W34228   6.519   2.987  11.542  0.0031  0.1109 -0.0997
17381W        W34229   1.726   6.170   3.821 -0.3622 -0.0504  0.1755
17382W        W34230  12.918   5.678   3.686 -0.1227 -0.1783 -0.0966
17383W        W34231  14.576   2.133  16.334  0.2250 -0.0769  0.0961
17384W        W34232   9.232   6.009   4.462  0.1002 -0.4362  0.0654
17385W        W34233  16.914   7.406  14.008 -0.0499  0.1198 -0.0621
17386W        W34234  13.768   3.697  12.902  0.0212 -0.1273 -0.2112
17387W        W34235   4.216   3.089   2.874 -0.2768 -0.0755 -0.0274
17388W        W34236  14.297   6.584  16.126 -0.1941  0.2198 -0.1847
17389W        W34237  10.722   6.240  12.488 -0.1171  0.1779  0.2028
17390W        W34238   3.252   9.136  10.797 -0.0014 -0.0659  0.1682
17391W        W34239   6.556  15.919   1.405  0.1935  0.3169  0.1043
17392W        W34240   4.333  10.962   2.670  0.5576  0.2316 -0.2037
17393W        W34241   3.777  11.867   3.570  0.1135  0.4098 -0.0199
17394W        W34242  15.716  16.075  14.363 -0.1139 -0.2076  0.0385
17395W        W34243  11.622  14.572  15.901  0.0091  0.0442  0.0746
17396W        W34244  16.263   7.135   2.172 -0.0159  0.2333 -0.1814
17397W        W34245  15.741   8.195   0.774  0.0473  0.0406  0.2827
17398W        W34246  10.637   3.484   0.386  0.2313  0.4182  0.1500
17399W        W34247  11.878  14.795  15.095  0.1992  0.3530 -0.0041
17400W        W34248   1.256   3.642  15.375  0.5860  0.0604 -0.1796
17401W        W34249   5.431   5.471  10.355 -0.2660 -0.0198  0.3041
17402W        W34250   5.463   9.928   1.689  0.0802  0.1240 -0.1070
17403W        W34251   6.501  10.044   3.111  0.0161  0.6150  0.0898
17404W        W34252   5.897   1.043  13.579 -0.0294 -0.2322  0.0101
17405W        W34253  12.371   8.898   4.438 -0.1080 -0.0860 -0.2021
17406W        W34254   8.578  12.437  13.671  0.1750  0.2797  0.0715
17407W        W34255   9.971  15.664   1.886 -0.2294  0.2991 -0.0146
17408W        W34256   6.279   0.098   4.875 -0.0574  0.2304 -0.1049
17409W        W34257  12.116   3.823   1.165 -0.2287  0.1065  0.4072
17410W        W34258  12.856   6.423   4.645  0.1414 -0.2094 -0.1513
17411W        W34259   0.301  15.397  14.020  0.0551 -0.0007 -0.0089
17412W        W34260   8.663  17.461   1.100  0.2815  0.1295  0.1137
17413W        W34261   6.160  13.131  13.264 -0.0520 -0.0276 -0.1559
17414W        W34262  14.927   5.017   0.863  0.2252  0.3351 -0.1025
17415W        W34263   0.961  11.662  12.693 -0.0336  0.0700  0.1518
17416W        W34264  11.251   9.619   3.479 -0.1071  0.0858  0.0311
17417W        W34265   1.594  13.636   1.386  0.1954  0.0101  0.0365
17418W        W34266   5.941   2.250  14.335  0.0265  0.0556  0.2620
17419W        W34267  13.046   8.059  15.868  0.1318 -0.2426 -0.3374
17420W        W34268   9.797   3.343  15.186  0.0433 -0.3429 -0.0217
17421W        W34269  15.642  11.396  14.897  0.2362 -0.0726 -0.2302
17422W        W34270  16.954  12.373   4.645  0.3154 -0.0515  0.2819
17423W        W34271   8.131   4.069  12.182 -0.2510 -0.1550  0.3448
17424W        W34272  10.698  10.814   5.028  0.1502  0.0021 -0.1251
17425W        W34273  17.397   6.964   2.373  0.0922  0.1664  0.0175
17426W        W34274  17.869  17.308   0.762  0.0509  0.0559  0.1387
17427W        W34275   8.225   7.121   4.506 -0.2137  0.0746  0.0377
17428W        W34276  10.124   3.101   0.822  0.5071 -0.1802  0.0943
17429W        W34277  12.007   4.518   2.325  0.1417  0.1595  0.0451
17430W        W34278   3.400  12.285   5.105  0.1383 -0.2074 -0.0430
17431W        W34279   4.169  12.421  13.523 -0.3447 -0.2981 -0.0730
17432W        W34280  12.167  10.839  14.505  0.1253  0.0745 -0.0379
17433W        W34281  14.725  17.403  16.087 -0.2029 -0.0856 -0.0892
17434W        W34282  16.070   2.376  12.826 -0.2287 -0.3080  0.0149
17435W        W34283   9.357  16.719  14.087  0.4488 -0.1728 -0.2073
17436W        W34284   5.322  14.642   2.831  0.0437 -0.0891  0.0543
17437W        W34285   0.721   2.587   3.279 -0.0658  0.0428  0.3076
17438W        W34286   3.196  13.593   4.871 -0.3880 -0.0133  0.2810
17439W        W34287  10.210  10.698   5.158  0.1864 -0.1943  0.0164
17440W        W34288   0.585   9.491  13.932 -0.0352 -0.0822 -0.0355
17441W        W34289  13.420   2.242   4.255 -0.0724  0.0005 -0.0273
17442W        W34290  11.190  12.229  15.130  0.1313 -0.2988 -0.0169
17443W        W34291   9.919  11.418  13.660  0.1217  0.1743 -0.1402
17444W        W34292   8.000   1.897  14.780 -0.0952  0.0818  0.1268
17445W        W34293  12.973   9.263  11.773 -0.0853 -0.0572 -0.0742
17446W        W34294   9.911   6.219  14.633 -0.1181  0.0880 -0.0415
17447W        W34295   4.730  17.303  14.477 -0.2331  0.3661  0.0261
17448W        W34296  16.392   2.735   0.167  0.0690 -0.2131  0.1339
17449W        W34297   1.451   9.055  15.856 -0.0074  0.0399  0.1545
17450W        W34298  14.466  13.954   3.717  0.3993 -0.2221  0.0516
17451W        W34299   4.262  14.670  12.843 -0.0212  0.4077  0.0035
17452W        W34300  15.104  10.663  13.151 -0.1242 -0.0163  0.1121
17453W        W34301  11.478  14.819  11.598 -0.1845 -0.3709  0.0848
17454W        W34302  14.749  10.880   3.907  0.2445 -0.0516  0.1547
17455W        W34303   0.749   5.410   0.007 -0.0474 -0.1196  0.0338
17456W        W34304   7.765  17.367   5.435  0.0265  0.1338 -0.3078
17457W        W34305  17.816   6.137   0.618 -0.4169  0.3260  0.0165
17458W        W34306   1.819  13.036  11.308 -0.0613 -0.1953  0.0221
17459W        W34307  11.469  12.653   1.385  0.1628  0.0113  0.1733
17460W        W34308  17.135   3.033   2.012  0.0077  0.0906  0.2929
17461W        W34309  16.882  10.646   3.239  0.3101 -0.1438  0.2309
17462W        W34310   8.081   4.756  15.880 -0.0812 -0.0478 -0.0713
17463W        W34311   1.120  15.833   2.820  0.1488  0.2266 -0.0998
17464W        W34312  13.694  14.700   1.035  0.1530 -0.0751  0.2103
17465W        W34313  11.708   5.999   3.263 -0.1099 -0.2332 -0.0551
17466W        W34314  10.270   7.273  14.730 -0.1450 -0.0524  0.4633
17467W        W34315   5.449  17.436   0.908  0.0249  0.0581 -0.1540
17468W        W34316   2.914   0.424   1.335 -0.0486 -0.0652 -0.2246
17469W        W34317  15.533  12.254   2.084  0.2489 -0.0704 -0.2066
17470W        W34318   3.825   5.852   4.398  0.1203  0.0012  0.2110
17471W        W34319  14.721   0.218   3.679 -0.2863  0.1456 -0.0419
17472W        W34320   9.464   9.108   4.135  0.3052 -0.1607 -0.2988
17473W        W34321  16.076   7.805  10.999  0.1524 -0.1643 -0.0901
17474W        W34322   1.830   0.951   0.362 -0.0063 -0.0252  0.2181
17475W        W34323   0.719  15.303   3.485  0.1249  0.0300 -0.0339
17476W        W34324  12.944  14.658  10.996 -0.3606 -0.1210  0.0482
17477W        W34325  14.612   6.807  13.129 -0.1042 -0.0411 -0.0462
17478W        W34326   2.710   2.393  14.614 -0.1614  0.2199  0.1254
17479W        W34327   2.800   1.120   0.033  0.0017  0.0841 -0.0624
17480W        W34328   2.511   1.027  11.183 -0.0936 -0.3595 -0.2928
17481W        W34329   8.843  11.052  12.254 -0.0247 -0.4794  0.0895
17482W        W34330  15.776  17.925  13.544 -0.1424 -0.0398 -0.0438
17483W        W34331   9.205  17.419   4.034  0.1461  0.0215 -0.0902
17484W        W34332   5.606  11.856  13.606 -0.4142  0.5180  0.1079
17485W        W34333  14.567  14.831   3.217  0.2161 -0.0226 -0.1658
17486W        W34334   9.184   0.004   1.042  0.1272 -0.0030  0.0366
17487W        W34335  14.497   3.498  12.556  0.0386 -0.1189 -0.1894
17488W        W34336   7.823   9.288  13.334  0.1585  0.0141 -0.3386
17489W        W34337   5.164   7.876   1.739 -0.0267 -0.1628  0.0927
17490W        W34338  11.655  12.100  16.274 -0.0366  0.0127  0.0818
17491W        W34339  11.973   0.974   4.738 -0.1980 -0.0974 -0.3983
17492W        W34340   7.510  14.585  11.778  0.1638 -0.1260  0.1585
17493W        W34341   1.657   7.750  11.653  0.1559  0.0102  0.1770
17494W        W34342   6.589  12.418   1.861  0.1146 -0.2180 -0.1845
17495W        W34343  12.845   9.985  13.875  0.1967  0.1530  0.1163
17496W        W34344   4.027   9.462   0.040  0.0521  0.1420  0.0363
17497W        W34345   6.352  12.046   2.646 -0.4183 -0.2036  0.2834
17498W        W34346  15.484  14.092  15.731  0.0034  0.2639 -0.0177
17499W        W34347   4.567   3.213   1.550 -0.1092 -0.1826  0.1527
17500W        W34348   2.146  17.576   3.862 -0.1976 -0.1960 -0.1160
17501W        W34349   9.274  10.334  14.265  0.3583  0.3469  0.0699
17502W        W34350  10.633  12.814  13.655  0.0650 -0.0993 -0.0674
17503W        W34351   9.751   1.803  15.483  0.1080 -0.3525 -0.1663
17504W        W34352   5.597  17.179  15.108 -0.1140 -0.1679  0.1502
17505W        W34353  12.165  13.008   2.608  0.0145  0.0260  0.1202
17506W        W34354   2.624  14.192   4.914  0.0624  0.3319 -0.1961
17507W        W34355   4.563   5.040  11.250  0.3347 -0.3490 -0.0329
17508W        W34356  14.228   5.021   4.930 -0.0553  0.1079  0.0596
17509W        W34357   1.707   6.884  13.991 -0.1652  0.1274 -0.5170
17510W        W34358  14.015  10.781  14.585 -0.0917  0.0927  0.1696
17511W        W34359   0.360   4.244   2.104 -0.2883  0.2631 -0.0652
17512W        W34360   7.738  11.318   0.026 -0.0041  0.1039  0.1350
17513W        W34361  16.630   3.556   2.981  0.0645  0.0663 -0.4047
17514W        W34362   9.619   5.366  13.893 -0.0363 -0.0974  0.0092
17515W        W34363   6.923   8.207   1.666  0.3040  0.0777  0.0363
17516W        W34364   2.544   1.004   0.610 -0.2006 -0.2184 -0.0015
17517W        W34365  12.470   3.434   0.453  0.3595  0.1192  0.2278
17518W        W34366  15.599  14.011  12.116  0.0247 -0.1750 -0.0697
17519W        W34367   3.370  10.117   0.302 -0.2361 -0.0749 -0.0364
17520W        W34368  17.399   0.583   0.462 -0.0684  0.2154 -0.2388
17521W        W34369   5.103   9.471  15.571 -0.3502 -0.3580  0.0767
17522W        W34370   1.078  15.081   2.996  0.3290 -0.5873  0.0944
17523W        W34371   9.783   2.091  14.370  0.0511 -0.0858 -0.1233
17524W        W34372   5.215  10.326  15.462  0.1716  0.0843 -0.3064
17525W        W34373   0.492  16.930  11.352 -0.2798  0.0614 -0.0063
17526W        W34374   3.427   6.931   2.871  0.0247  0.2055 -0.1351
17527W        W34375  15.998   7.451   2.612  0.1412 -0.1044  0.0977
17528W        W34376  17.076  13.499  12.254  0.1762  0.1426 -0.0736
17529W        W34377   1.116   2.550  14.942  0.0530 -0.1288  0.2064
17530W        W34378   4.098  12.207  12.854 -0.0068  0.1612 -0.1070
17531W        W34379   4.780  10.503   0.802  0.0151 -0.3553  0.0380
17532W        W34380   9.468  12.550   1.134 -0.0349  0.1569  0.0201
17533W        W34381  13.872   8.101   1.960  0.0907  0.0330  0.1333
17534W        W34382   7.813   7.384  13.982 -0.0827  0.0096 -0.2252
17535W        W34383   6.048  17.858   2.413  0.1235  0.0135  0.2188
17536W        W34384  10.744   1.050  14.135 -0.3467 -0.0668  0.0604
17537W        W34385   7.128   8.482  12.213 -0.0228 -0.1215  0.0575
17538W        W34386  17.193  13.066   0.214 -0.2374  0.0671  0.0480
17539W        W34387   1.040  10.368  14.591 -0.0135  0.2245  0.2730
17540W        W34388  14.455  16.684   0.918  0.0127  0.0891 -0.3159
17541W        W34389   9.250  15.490   3.987  0.0845  0.1998  0.1674
17542W        W34390  10.788   3.185  15.460  0.0100 -0.0078 -0.0277
17543W        W34391   1.130  17.082  12.971  0.0130 -0.1550 -0.1301
17544W        W34392  13.964  15.807  12.149  0.0841 -0.3809 -0.1011
17545W        W34393  11.419   9.513   2.515 -0.1351  0.0919 -0.0010
17546W        W34394  14.613  16.514   4.203  0.1193  0.0023  0.0550
17547W        W34395  11.851   1.587   1.574 -0.1016  0.2401 -0.3404
17548W        W34396  12.286   4.914  13.701 -0.2825 -0.1406 -0.2951
17549W        W34397   4.216   0.304   3.618  0.2177 -0.3649 -0.0646
17550W        W34398   6.165  12.170  14.446 -0.0306 -0.0930  0.0228
17551W        W34399   9.364  16.485  11.063 -0.0746  0.5613 -0.2221
17552W        W34400  15.052   4.192   0.273 -0.1154 -0.4431  0.1440
17553W        W34401   6.943  11.653  13.444  0.1312 -0.0970  0.0691
17554W        W34402   4.521  10.819  12.416  0.1316  0.1599  0.3230
17555W        W34403  16.552   3.714   1.928  0.1112 -0.1526  0.1686
17556W        W34404   6.246  10.624   1.417  0.1147  0.1024 -0.0245
17557W        W34405   1.617   6.990   0.099 -0.1174  0.0757  0.0009
17558W        W34406  15.914  10.343  13.142  0.2296  0.0853 -0.1720
17559W        W34407  12.125   0.285   2.962 -0.0102 -0.1219 -0.4455
17560W        W34408   0.597   6.348   1.551 -0.0806 -0.3192  0.0765
17561W        W34409  14.060  16.125  13.909  0.1830 -0.0719  0.0333
17562W        W34410  17.160   5.076  15.841 -0.1899 -0.1965  0.2742
17563W        W34411   4.308  17.866   1.683  0.3286  0.1790 -0.2044
17564W        W34412   2.663  15.548  13.760  0.1152  0.1795 -0.1161
17565W        W34413  12.990  15.452   1.279  0.0714 -0.0738  0.0521
17566W        W34414  13.388  15.838  13.197  0.0232 -0.2181  0.2305
17567W        W34415  14.595   4.326  15.374 -0.2029  0.0877 -0.2459
17568W        W34416   3.448   1.324   4.255  0.0190 -0.1829  0.0183
17569W        W34417   4.244  13.155   1.030 -0.1207 -0.0209 -0.2048
17570W        W34418   7.131   9.577   5.384  0.0919 -0.0345 -0.0207
17571W        W34419  13.586   5.267  14.489  0.1208  0.0611 -0.1220
17572W        W34420   2.956   0.067   3.395  0.0193 -0.2585  0.1159
17573W        W34421   1.227   7.751   4.802 -0.0762 -0.0060 -0.1315
17574W        W34422   7.916   8.641  12.635  0.2931 -0.6404  0.2319
17575W        W34423  15.074   4.459   2.934 -0.1569 -0.1853  0.4046
17576W        W34424   9.498   3.832   0.425 -0.0988  0.2771  0.0048
17577W        W34425  14.362  16.528  13.968 -0.0906 -0.0335  0.0811
17578W        W34426   6.257  16.504   0.332  0.1317 -0.2058  0.1874
17579W        W34427  12.959   0.821  14.986  0.1423  0.0528  0.0378
17580W        W34428  11.804  17.650   2.732 -0.0055 -0.2779  0.2056
17581W        W34429  16.992   2.220  12.725  0.1000 -0.3015  0.0684
17582W        W34430   3.550   7.710  13.278 -0.0892 -0.0433  0.1072
17583W        W34431  10.939   1.262  11.421  0.3263 -0.1496  0.3823
17584W        W34432   5.419   4.030   0.798  0.0835  0.0206  0.1453
17585W        W34433   7.782  17.117  13.500 -0.1393  0.1899  0.0145
17586W        W34434  10.441   0.257  12.974  0.0183 -0.1315  0.1003
17587W        W34435   6.824  11.651   4.618 -0.1285  0.4476  0.0116
17588W        W34436   4.576  10.245  15.716  0.1665 -0.0264  0.2997
17589W        W34437   2.853  16.192  15.516  0.1959  0.0761  0.3910
17590W        W34438   6.198   7.271  11.164  0.1675  0.0278  0.0497
17591W        W34439   9.964  12.693   1.147 -0.0276  0.3171 -0.0616
17592W        W34440  16.969  16.891   6.256 -0.0654  0.1367  0.0968
17593W        W34441   2.964  12.755   2.426  0.2014 -0.1245  0.1314
17594W        W34442   5.326  14.669   1.208 -0.2053 -0.0162  0.3619
17595W        W34443   6.395   9.526   3.154  0.0699  0.0094 -0.1817
17596W        W34444   8.122   5.473   0.576  0.0980  0.0663 -0.2071
17597W        W34445   5.917  16.139   4.848 -0.1743  0.2842 -0.1030
17598W        W34446   2.958  17.257   2.200 -0.1432  0.2635 -0.2554
17599W        W34447  16.554   2.776  15.947  0.0664 -0.2448 -0.1252
17600W        W34448  14.971   4.503  13.843 -0.0480  0.0181  0.1841
17601W        W34449   9.863   9.266  11.916 -0.0448 -0.0225 -0.2160
17602W        W34450   3.757  14.873   3.432 -0.1307 -0.1088 -0.0256
17603W        W34451  17.258   5.638  15.140 -0.3150  0.0245 -0.0041
17604W        W34452  10.285  12.249  10.728 -0.1051  0.0673  0.1311
17605W        W34453  13.822   8.861   2.630  0.0559  0.2878 -0.0593
17606W        W34454   9.402   1.228  13.247  0.1608  0.0253  0.1064
17607W        W34455   5.596  17.629   3.313 -0.1575  0.2516 -0.0035
17608W        W34456  10.613  16.485   1.975  0.1779  0.3554 -0.0332
17609W        W34457   4.464  11.726  12.943 -0.1835 -0.0309  0.0638
17610W        W34458   2.973   8.688   5.557 -0.0942  0.1129  0.2056
17611W        W34459   9.448   1.840   4.265  0.0901  0.3847  0.2874
17612W        W34460   9.459  13.056   4.152 -0.0320 -0.1351 -0.1060
17613W        W34461   5.496  16.680  15.116 -0.3767 -0.4610  0.1995
17614W        W34462   7.968  16.066  14.921 -0.2484 -0.1429  0.2217
17615W        W34463   1.603  13.160   1.261 -0.0845 -0.0222 -0.0653
17616W        W34464  10.269   2.835   3.539  0.0967  0.2729  0.1752
17617W        W34465  10.785  17.202  15.967 -0.0098  0.2031 -0.0722
17618W        W34466   0.667   0.876  11.385 -0.2559  0.1500  0.0437
17619W        W34467   2.935   5.653   1.835 -0.1960 -0.1758  0.2005
17620W        W34468   3.071  13.458   3.743  0.2216 -0.0506  0.0205
17621W        W34469  15.905   0.208   1.552  0.3192  0.1696 -0.0271
17622W        W34470  15.902   6.990  11.491  0.0250 -0.1519  0.0408
17623W        W34471   7.593  15.258  11.870 -0.0143  0.0087  0.4724
17624W        W34472   7.962  16.286   4.272  0.4413 -0.0396  0.1654
17625W        W34473   2.071   3.257  13.520  0.3474 -0.0359 -0.0062
17626W        W34474  17.786  12.321  16.179 -0.0483  0.5993 -0.3150
17627W        W34475   1.000  10.745  15.964 -0.1814  0.0639  0.0667
17628W        W34476  12.296  16.801   3.917  0.1909 -0.1499  0.0816
17629W        W34477  13.364  12.965  14.639 -0.4959 -0.4546  0.1404
17630W        W34478   8.314  13.623   3.574  0.0197  0.0095  0.0477
17631W        W34479  12.111   4.095   2.608  0.0116 -0.1964  0.1183
17632W        W34480   2.590   2.098  14.144 -0.0818 -0.0299  0.2817
17633W        W34481   4.250  13.531   4.288  0.1854 -0.3412 -0.1869
17634W        W34482   7.293  10.868   0.844 -0.0550  0.0481  0.3958
17635W        W34483   0.046   5.946  12.626 -0.0307 -0.4829  0.1930
17636W        W34484   2.978   2.849  14.427  0.3198 -0.0034  0.0172
17637W        W34485  14.856   2.826  15.571  0.0118  0.2287  0.2877
17638W        W34486  14.542   6.911   0.084  0.1031  0.1123 -0.4334
17639W        W34487   8.424  11.084  13.119  0.0003  0.1822  0.2850
17640W        W34488  11.159  15.557  14.170  0.1814 -0.1128 -0.2994
17641W        W34489  15.957   1.048  15.887 -0.0535 -0.3392 -0.0919
17642W        W34490   2.533  12.788   3.309 -0.1764 -0.3256  0.0068
17643W        W34491   9.643   1.044  16.217  0.3127 -0.2067  0.1888
17644W        W34492  12.118  16.513   0.703  0.0384  0.3984 -0.3325
17645W        W34493  12.065   3.941  13.318  0.0529 -0.0237  0.1826
17646W        W34494   9.928  14.367   0.654  0.1566 -0.1686 -0.1165
17647W        W34495  14.067  10.913   1.673  0.3248 -0.1362  0.0622
17648W        W34496   5.130   0.920   5.715 -0.0363 -0.2306 -0.1060
17649W        W34497  15.101  16.279   5.602  0.1108  0.0946 -0.1089
17650W        W34498  17.191  17.393  12.282 -0.0776 -0.1928 -0.1638
17651W        W34499   2.200  16.527   2.175 -0.1195 -0.3163 -0.2769
17652W        W34500  13.128   2.769  12.038  0.0136 -0.0398 -0.4648
17653W        W34501   8.143  12.598   4.015  0.1743  0.1286  0.2861
17654W        W34502   1.146   4.214  14.638  0.2422 -0.1481  0.0684
17655W        W34503  13.464   0.151   2.304  0.1583 -0.0419 -0.2047
17656W        W34504   2.668  11.959  14.840  0.1894  0.0960 -0.0826
17657W        W34505  16.849  12.086  12.531 -0.2043  0.5594 -0.1239
17658W        W34506  17.162  17.606  15.141  0.0521 -0.2660  0.0903
17659W        W34507   6.266  11.238  14.076  0.3684  0.0137  0.0628
17660W        W34508   4.516  10.822  15.001  0.0262 -0.0581 -0.0158
17661W        W34509   2.683   0.256   3.799  0.2287 -0.0597  0.3106
17662W        W34510  15.427   2.314  16.009 -0.1075  0.1411 -0.2040
17663W        W34511   1.315  12.876  15.090  0.0814  0.1166 -0.0042
17664W        W34512   9.062  16.641   1.548  0.0616 -0.2039 -0.0235
17665W        W34513   7.029   0.744  13.813 -0.0567  0.2527 -0.0993
17666W        W34514   5.054   1.471   0.292  0.1199 -0.3307 -0.0586
17667W        W34515  11.792   7.301   4.908  0.1185  0.4726  0.4230
17668W        W34516  13.252   7.104  12.668  0.0042 -0.0985 -0.0705
17669W        W34517  11.819  12.167   0.681 -0.1197  0.1486 -0.4994
17670W        W34518  12.678  12.313   3.960  0.1436 -0.1627  0.0452
17671W        W34519   2.653  14.054  14.898  0.1326  0.1048  0.0717
17672W        W34520  11.371   3.923  14.677 -0.1712 -0.1782  0.1006
17673W        W34521  14.277   1.710   4.521  0.1623  0.1765 -0.2269
17674W        W34522   6.246   6.799   4.089  0.1664 -0.1164 -0.3457
17675W        W34523   1.579  17.971  15.277  0.0084 -0.3110 -0.2044
17676W        W34524  14.438   9.969   0.039 -0.0639  0.2471  0.0825
17677W        W34525   0.935  10.091  12.641 -0.2753  0.0216  0.3601
17678W        W34526  17.483   0.553   1.574  0.1335 -0.3409 -0.1993
17679W        W34527  14.030  12.391   2.864 -0.0022  0.0310  0.1628
17680W        W34528   5.602  14.116  14.055  0.2873 -0.2224  0.0019
17681W        W34529   8.404  16.188   3.593  0.1024 -0.2380 -0.0594
17682W        W34530   6.133   6.380   3.897  0.4760 -0.0142 -0.0254
17683W        W34531   4.455   9.631   3.589  0.1327 -0.0435  0.0386
17684W        W34532  15.845   7.667   3.540  0.4247  0.0896 -0.0210
17685W        W34533  14.719  15.533  11.874  0.1457 -0.3172 -0.2753
17686W        W34534   5.482  17.762   2.578  0.3426 -0.3344  0.1022
17687W        W34535   9.003   6.107   3.475 -0.1868 -0.0343 -0.1310
17688W        W34536   3.497  12.589   3.497  0.0503  0.0172  0.0398
17689W        W34537  17.733   6.955   3.768  0.0023  0.2757  0.0453
17690W        W34538   6.340   2.059  14.962 -0.0003 -0.0438 -0.1140
17691W        W34539  13.192   0.735  15.875  0.1180  0.1172  0.0023
17692W        W34540   1.068  14.116   0.789  0.1272  0.0552  0.0311
17693W        W34541  10.643  11.165   1.008 -0.1491  0.0721  0.0553
17694W        W34542  15.279   5.409   1.156 -0.1804  0.0019 -0.1355
17695W        W34543   0.191  17.386  11.233  0.0220 -0.0116 -0.0065
17696W        W34544   5.689   3.907  13.170 -0.4809  0.2279  0.1586
17697W        W34545  18.094  12.402   3.604 -0.2772 -0.3676 -0.0159
17698W        W34546  16.938  16.515   2.842 -0.0240  0.2399 -0.1152
17699W        W34547   8.584  16.170  15.538 -0.3671 -0.2721  0.0973
17700W        W34548   8.477   4.169   0.877 -0.2184  0.1769  0.4109
17701W        W34549  15.836   5.725   1.983  0.1195  0.0557 -0.0329
17702W        W34550   5.088   6.383   2.474  0.0730 -0.0092 -0.0285
17703W        W34551   0.954   2.581   1.828  0.1311  0.1483  0.2676
17704W        W34552   0.880   5.004  15.961  0.0453  0.1028  0.1081
17705W        W34553   0.177   3.554   3.494 -0.1863 -0.5196 -0.1664
17706W        W34554  16.930   9.114   1.160  0.0449  0.1225  0.2770
17707W        W34555   0.100   8.699   0.084 -0.1307 -0.0685  0.1723
17708W        W34556  12.114   3.202  15.485 -0.0503 -0.0894  0.1232
17709W        W34557  16.396   0.737   2.016  0.1534 -0.2029 -0.2035
17710W        W34558  12.858   7.452   0.779 -0.0430  0.1248 -0.0924
17711W        W34559  10.279   0.038  14.461 -0.2180  0.1075 -0.1438
17712W        W34560   0.182  13.448  13.624  0.0011  0.0597 -0.2466
17713W        W34561  14.618  17.281  15.221 -0.0706  0.0093 -0.2118
17714W        W34562  15.506   0.026  12.761  0.2974  0.0662 -0.1098
17715W        W34563   9.181   2.424  14.690 -0.2250  0.0879  0.3107
17716W        W34564   1.490   0.902   3.955  0.1437  0.1649  0.0981
17717W        W34565   1.528   3.910   2.426 -0.1656  0.0026 -0.1309
17718W        W34566   5.268  11.213  12.328 -0.3005 -0.2902 -0.1120
17719W        W34567  11.203   7.212  11.067  0.0799  0.2375  0.0339
17720W        W34568  17.163  15.241  14.963  0.2481  0.0622  0.2420
17721W        W34569   4.064   2.173  13.643  0.0016 -0.3281 -0.0830
17722W        W34570   1.183   6.249   0.087  0.1989 -0.0882 -0.0424
17723W        W34571  13.966   6.158  14.713  0.0827 -0.1428  0.0520
17724W        W34572  13.856   2.073   5.407  0.1676 -0.1838  0.0665
17725W        W34573  17.302  11.004  12.567  0.1029  0.0587 -0.5746
17726W        W34574  15.762  14.404  13.081 -0.0723  0.1079  0.2200
17727W        W34575   7.904  16.334   1.458  0.0396  0.0681 -0.3448
17728W        W34576  10.415   5.648   2.279  0.1628 -0.2509  0.0048
17729W        W34577   3.668   7.300  12.876  0.3116  0.0505  0.1155
17730W        W34578   9.722  14.514   3.122  0.0446 -0.2129  0.3319
17731W        W34579  10.760  10.169  15.511  0.2273  0.1646  0.0188
17732W        W34580   4.635  12.336  16.050 -0.0080  0.3736 -0.3978
17733W        W34581   7.975  14.362   2.426 -0.0388 -0.0196  0.1015
17734W        W34582  14.827  13.590   0.225  0.2708 -0.0266 -0.0937
17735W        W34583   3.007   6.391   4.696  0.0324 -0.3538 -0.0914
17736W        W34584   5.281   9.224   0.599  0.0656 -0.0773 -0.1214
17737W        W34585   5.073  14.448  12.458 -0.1502 -0.0481  0.0120
17738W        W34586  10.346  13.736  14.417 -0.2454 -0.0035  0.0269
17739W        W34587  13.410  18.079  14.063 -0.0707  0.1826  0.1142
17740W        W34588   3.979   6.789  14.403 -0.0317 -0.0704  0.2197
17741W        W34589   4.273   4.783   2.191  0.1594 -0.0827 -0.1411
17742W        W34590  15.076  17.702  11.261  0.0885  0.1818 -0.0169
17743W        W34591  13.471  14.768   1.810  0.4460 -0.1020  0.1375
17744W        W34592  15.823   6.715   2.813 -0.1773  0.1336 -0.0818
17745W        W34593  15.027  13.927  13.093 -0.0430  0.0684 -0.2010
17746W        W34594  17.615   7.455   1.590  0.0671 -0.1018 -0.1110
17747W        W34595   0.349  15.078  13.111  0.1209 -0.1144  0.1270
17748W        W34596   6.301  16.950   3.489 -0.1555  0.3378 -0.0942
17749W        W34597  17.290  15.234   1.949 -0.0264  0.2176  0.0523
17750W        W34598  14.123   2.319  16.055 -0.1543 -0.0589 -0.5080
17751W        W34599   8.872  10.612   1.269 -0.2204  0.1941 -0.3884
17752W        W34600  11.032   1.189   4.602 -0.1711  0.1723 -0.0743
17753W        W34601   9.106  17.556  15.699  0.0719  0.0207 -0.2958
17754W        W34602   2.399   5.604   2.014 -0.0293 -0.2545 -0.2323
17755W        W34603  12.564  17.266   3.175 -0.1632  0.4158  0.1476
17756W        W34604   1.091  10.389  13.346  0.0681 -0.0726 -0.0827
17757W        W34605  14.748   8.252  13.387 -0.0071 -0.1245  0.0073
17758W        W34606   3.537   4.497  14.568  0.0029 -0.3871  0.1039
17759W        W34607  14.732   3.006   3.305  0.0613 -0.1264  0.1758
17760W        W34608  17.017  15.257   5.565  0.1401  0.1302  0.2287
17761W        W34609   4.911  16.980   3.687 -0.0021 -0.2206  0.2750
17762W        W34610   3.748  13.054   1.054 -0.2951 -0.0927 -0.0356
17763W        W34611  11.770   0.187  13.281 -0.2611 -0.0924  0.0545
17764W        W34612  11.324  15.879   4.233  0.1917 -0.4210  0.1536
17765W        W34613  13.727   4.738   4.880 -0.3762 -0.2513  0.1260
17766W        W34614  17.369  12.886  15.183 -0.1435  0.2409 -0.1447
17767W        W34615  11.240  17.230  14.252 -0.0925 -0.1462 -0.3182
17768W        W34616  10.406  11.587   3.089 -0.0073 -0.2829 -0.2409
17769W        W34617   1.090   8.867  12.039 -0.1065 -0.2330 -0.2337
17770W        W34618  13.296  11.222   4.164 -0.0054  0.0227 -0.1049
17771W        W34619   6.430  15.846   0.314 -0.0517 -0.0618 -0.2753
17772W        W34620   4.799   9.971   0.679  0.1442 -0.2127  0.3049
17773W        W34621   4.500   5.022   4.134  0.0418 -0.0787  0.0042
17774W        W34622  10.845   4.839  15.625 -0.0770 -0.0115  0.0067
17775W        W34623   2.783   5.600  12.287 -0.0678  0.1634  0.2687
17776W        W34624   8.389  11.527   4.092  0.3162 -0.2631 -0.3482
17777W        W34625   9.538   5.763  12.582 -0.2254 -0.0319  0.0958
17778W        W34626   7.042  15.626   5.286 -0.4276 -0.1973 -0.2500
17779W        W34627   6.502   4.223   2.201  0.2293 -0.0904 -0.1431
17780W        W34628  12.032  15.503   4.829  0.1618 -0.2872  0.0397
17781W        W34629  10.411   1.536   1.275  0.1613  0.0660  0.1224
17782W        W34630   2.130   4.927  11.483 -0.0749  0.3338  0.3819
17783W        W34631   9.981  13.679  15.773  0.2295  0.0235  0.1876
17784W        W34632   9.265  10.707   1.628 -0.0139  0.3670 -0.0114
17785W        W34633   2.222  11.868  15.522 -0.0466 -0.0492  0.3130
17786W        W34634  14.462   3.710  11.088 -0.0197 -0.2641 -0.0088
17787W        W34635   8.500   3.940  14.163 -0.2333  0.4812  0.3493
17788W        W34636  14.951  14.210   1.642  0.0748 -0.2103  0.2658
17789W        W34637  12.104  15.205   4.407 -0.1932 -0.2434  0.2167
17790W        W34638   5.765   4.133  13.631 -0.1060 -0.1008  0.1339
17791W        W34639   7.160  14.488   3.019 -0.0773  0.1943  0.0825
17792W        W34640   1.994   8.189  13.907  0.3371 -0.0496 -0.0603
17793W        W34641   5.066  14.660   0.673 -0.1138  0.0935 -0.1552
17794W        W34642  10.922   7.979  15.754 -0.1475 -0.0833  0.1139
17795W        W34643  16.405   3.193   0.000 -0.0463  0.1368  0.1130
17796W        W34644   6.167  11.489   4.835 -0.4083  0.0833 -0.2478
17797W        W34645  12.530   3.266  11.336  0.1308  0.0702 -0.3093
17798W        W34646   8.519   3.698  12.927  0.0037  0.2611 -0.1019
17799W        W34647   3.692  11.434   3.785  0.0499  0.0318  0.0356
17800W        W34648  12.550  15.130   0.883 -0.0396 -0.0295  0.2852
17801W        W34649   4.671  14.370  12.813 -0.0950  0.0613  0.1469
17802W        W34650   1.336  15.308   4.570  0.1940 -0.0677 -0.1043
17803W        W34651   6.901   1.881   0.089 -0.2259  0.1339 -0.1174
17804W        W34652   4.789  11.694  12.549  0.1237 -0.1408 -0.0709
17805W        W34653   0.808   0.172   5.594  0.0991  0.1199 -0.2154
17806W        W34654  14.000   3.398   2.872 -0.2082  0.2165  0.3986
17807W        W34655  13.947   1.836   0.672  0.4722  0.1245  0.2538
17808W        W34656  15.929  11.921  14.147 -0.0156 -0.0280  0.1796
17809W        W34657   8.530  10.133  12.673 -0.2598  0.0058 -0.2307
17810W        W34658  17.225  13.836   3.326  0.3834  0.0834 -0.2410
17811W        W34659  16.363   5.197  13.615  0.2490  0.0494 -0.0053
17812W        W34660   3.817   0.720  14.450 -0.1706  0.1614  0.0788
17813W        W34661   0.616   6.671   4.024 -0.0413 -0.0187  0.1243
17814W        W34662  14.352  16.936  13.591 -0.1204  0.0782  0.4417
17815W        W34663  14.324  12.154  12.881 -0.0761  0.0422 -0.0479
17816W        W34664   0.071   8.065  16.251  0.1831 -0.1598  0.1842
17817W        W34665   2.494  14.881  12.440 -0.2502 -0.0233 -0.2004
17818W        W34666   4.212   1.018  11.863  0.4335  0.0353 -0.0735
17819W        W34667  11.560  14.540  12.936 -0.0405  0.2210  0.0413
17820W        W34668  12.597   6.061  11.566  0.3983  0.0896  0.2223
17821W        W34669  16.406   8.240   4.705  0.2257  0.0675  0.2409
17822W        W34670  10.267  12.406  13.736 -0.1892 -0.2593 -0.0293
17823W        W34671   7.926  12.687  15.732 -0.0615 -0.0851  0.1564
17824W        W34672  14.278   6.030  12.064  0.0210  0.2013 -0.2788
17825W        W34673  11.029   0.796  13.416 -0.2762  0.0671 -0.0868
17826W        W34674   1.885   4.173  14.896 -0.2159 -0.0115 -0.0378
17827W        W34675   2.638   4.878   1.148  0.0628  0.1474 -0.2037
17828W        W34676   1.833   4.864  16.210  0.2385  0.1342  0.1309
17829W        W34677  13.470   8.595   0.259  0.0873  0.1230 -0.1603
17830W        W34678   7.456   4.811   4.172 -0.2206 -0.1339  0.0313
17831W        W34679   4.889   4.520   3.442 -0.2171  0.0691  0.2830
17832W        W34680  17.379  10.281  11.287 -0.0707 -0.0807  0.0610
17833W        W34681   7.683   4.567  14.280  0.0823  0.0472  0.1835
17834W        W34682  11.006   2.680  13.883 -0.2136 -0.0728  0.0708
17835W        W34683   7.688   6.335   4.666 -0.0207  0.0443 -0.0132
17836W        W34684   0.495  17.914   2.914 -0.0583  0.0865 -0.1534
17837W        W34685   0.915   2.191   0.344  0.2954  0.1850 -0.0013
17838W        W34686  15.139   1.971  16.182  0.0311  0.1395 -0.1952
17839W        W34687   5.842  17.742   0.065  0.3508  0.0172  0.0271
17840W        W34688   2.016   8.133   5.043  0.1637  0.1340 -0.0388
17841W        W34689  14.771   8.326   3.752 -0.1866 -0.2284  0.1654
17842W        W34690  17.734   3.793   2.644  0.0042 -0.0191 -0.0201
17843W        W34691  14.457  12.860   2.433 -0.0061 -0.1353  0.0354
17844W        W34692   3.025  12.967   0.121  0.1645 -0.0348  0.0422
17845W        W34693   6.115   6.788  13.296  0.2390 -0.1750 -0.2598
17846W        W34694   5.563   0.678   5.510 -0.2780  0.0350  0.2252
17847W        W34695   8.880  10.729  16.225  0.0331  0.3947  0.3557
17848W        W34696  10.826   8.308   3.239 -0.0931 -0.0948  0.5724
17849W        W34697   6.754   6.579   5.098  0.1422  0.3680 -0.0288
17850W        W34698  14.562  13.061   4.024  0.2823  0.0256  0.0751
17851W        W34699   8.111  14.847  14.425  0.0152  0.1205 -0.4035
17852W        W34700   5.812  15.662   4.925  0.1597 -0.1218  0.0887
17853W        W34701   5.781  14.494   4.118  0.1520  0.4038 -0.2150
17854W        W34702  11.104  12.087   5.187 -0.3348  0.2395 -0.0759
17855W        W34703  17.696   5.928   3.295  0.0558  0.3816 -0.0679
17856W        W34704   5.329   0.360   3.699 -0.1823  0.2923 -0.1153
17857W        W34705   6.673   4.989   3.346  0.2240  0.0568 -0.1880
17858W        W34706   1.848  13.021  13.164  0.2462  0.0369 -0.2361
17859W        W34707   7.100   7.598  14.559 -0.0484 -0.2484  0.1267
17860W        W34708   0.603  13.953  15.747  0.1443 -0.1438  0.1485
17861W        W34709  11.072   8.982   0.398 -0.1424  0.1789  0.0461
17862W        W34710  10.791  12.178  15.538 -0.1187 -0.0434 -0.1146
17863W        W34711   8.389  13.839   1.693  0.3042  0.1979  0.2939
17864W        W34712   7.985  12.983  10.664  0.0205 -0.0334  0.1411
17865W        W34713  12.639  11.287   3.333  0.0235 -0.0730 -0.0455
17866W        W34714   7.976   2.569   3.739  0.2219 -0.0015  0.1487
17867W        W34715  16.671   7.520   0.114  0.1224  0.3954 -0.0253
17868W        W34716   8.087  10.938  15.108  0.0450 -0.0183  0.1336
17869W        W34717  15.076  12.688   4.435 -0.0002 -0.2599  0.3676
17870W        W34718   8.464   5.427  13.808  0.1508 -0.2303  0.1942
17871W        W34719  13.733   6.372  12.506  0.1224  0.1706 -0.1836
17872W        W34720  10.301   9.976   2.261 -0.1159  0.3291  0.0015
17873W        W34721   5.326   7.604   2.231  0.0114 -0.2018  0.2637
17874W        W34722   6.248   7.146   1.615 -0.0526  0.1057 -0.0541
17875W        W34723   2.319  12.276   1.091  0.4044 -0.0843 -0.0394
17876W        W34724  10.362   4.796  15.894  0.1603  0.3221 -0.1466
17877W        W34725  10.358   1.436   3.637 -0.2295 -0.1555  0.1606
17878W        W34726   2.068  12.156   3.284 -0.1233  0.1570 -0.2019
17879W        W34727   4.515  11.032  11.600  0.1941  0.2076 -0.1299
17880W        W34728  16.352  15.437  14.667 -0.1137  0.2106  0.3402
17881W        W34729  15.596   8.907   5.393 -0.1328 -0.1531  0.2409
17882W        W34730  17.618   3.071  12.374  0.0952 -0.3497  0.2482
17883W        W34731  14.039  10.853   0.386  0.0616 -0.0748 -0.1067
17884W        W34732  16.670   1.022  11.674  0.0955 -0.0288  0.3170
17885W        W34733   8.748  14.086   1.434 -0.0537 -0.2087 -0.2788
17886W        W34734  14.566   1.318  13.354  0.3269 -0.5904  0.2159
17887W        W34735   7.571   0.241  15.212 -0.0458 -0.0624 -0.2381
17888W        W34736  14.076  13.365   4.882 -0.0527  0.1475  0.2957
17889W        W34737  10.053  10.649  12.260  0.0967  0.0480  0.3690
17890W        W34738  16.526   9.134   1.615 -0.3307 -0.1163  0.0396
17891W        W34739   7.544   8.904   4.430 -0.0943 -0.0909 -0.3387
17892W        W34740   9.621   1.819  11.136  0.0784 -0.1246 -0.0848
17893W        W34741  14.888   3.101   2.850 -0.0660  0.3755 -0.0192
17894W        W34742  10.135  12.527   5.300 -0.0858  0.2322  0.2805
17895W        W34743   0.960  14.343   6.277  0.3354 -0.3072 -0.1646
17896W        W34744  15.950  16.388  13.110  0.1157  0.2021 -0.0578
17897W        W34745   1.374   2.554   0.499  0.1409 -0.0816  0.0404
17898W        W34746   3.965  18.067  15.748  0.3340  0.0748 -0.0953
17899W        W34747  11.505   4.593  15.646  0.3077 -0.2069 -0.1249
17900W        W34748   5.280  13.156   0.603 -0.2224  0.0366  0.0095
17901W        W34749   9.615   3.282   3.654 -0.1081 -0.0736 -0.0847
17902W        W34750  10.626  10.581  12.311 -0.1996 -0.1010 -0.1449
17903W        W34751  10.187  10.610  12.842  0.0381 -0.0726 -0.0229
17904W        W34752  17.063  11.331  11.999  0.0380  0.0586 -0.1577
17905W        W34753   3.459  10.634   2.995 -0.2543 -0.2081 -0.3511
17906W        W34754   5.875   8.135   3.250 -0.3011 -0.2805 -0.2291
17907W        W34755   2.267  12.366  12.003  0.1802 -0.0502  0.0571
17908W        W34756   5.011  15.413   0.193  0.0994 -0.0670 -0.0654
17909W        W34757   5.922   1.348   4.081 -0.2593  0.3310  0.0852
17910W        W34758   8.333   2.990   4.791  0.2214  0.1826  0.0407
17911W        W34759   4.765   2.534   0.402 -0.1356 -0.1401  0.0265
17912W        W34760   4.572  16.349   5.009  0.0678 -0.2271 -0.0150
17913W        W34761   3.432   0.302   3.004 -0.0962 -0.1626  0.1751
17914W        W34762  11.379   0.661  14.196 -0.2228 -0.1477  0.2769
17915W        W34763   5.506   8.107   2.115 -0.1461  0.0910  0.2810
17916W        W34764  14.444   1.854   1.417  0.1299  0.1427  0.0445
17917W        W34765   0.843   0.131   4.980 -0.1121 -0.0742  0.1275
17918W        W34766  15.597   6.760  13.351  0.0134 -0.1228 -0.1628
17919W        W34767   3.604   2.034  12.455  0.0516  0.0505 -0.0282
17920W        W34768   5.400  12.150   2.932  0.1814  0.5118  0.1156
17921W        W34769  10.148  17.094  12.603  0.0241 -0.0648  0.1248
17922W        W34770  16.129  14.744  14.852  0.1353  0.2760  0.0225
17923W        W34771  10.871  13.447   1.329 -0.2370 -0.0761  0.1240
17924W        W34772  15.310   8.096   2.474  0.2472 -0.0687  0.0218
17925W        W34773  12.246   8.177  13.030  0.2173  0.3145  0.1486
17926W        W34774  11.668   4.808  14.953  0.0103 -0.3635  0.0844
17927W        W34775  17.804  17.416  14.392 -0.2774  0.0390  0.0555
17928W        W34776   9.301   3.479   4.594 -0.1700  0.2827 -0.1275
17929W        W34777  17.526  13.069  14.724  0.4201  0.1458 -0.0271
17930W        W34778   7.397   0.766   4.329 -0.0929 -0.0285 -0.1424
17931W        W34779  13.883   9.920  11.265 -0.3042  0.4951  0.0967
17932W        W34780  10.847  14.414  11.681 -0.0245 -0.2864 -0.3795
17933W        W34781   2.854   2.046   3.948  0.0781 -0.1745  0.1199
17934W        W34782   5.634  14.939   0.750  0.0208  0.0585 -0.0951
17935W        W34783   7.967   0.553  10.903  0.2876 -0.5624 -0.0756
17936W        W34784  17.724  14.174  14.616  0.0384 -0.0256  0.2964
17937W        W34785  14.435   3.957   4.078  0.1906 -0.2771 -0.0046
17938W        W34786  10.272   3.382  15.392  0.0622  0.0310  0.0017
17939W        W34787  12.336   9.480  14.433  0.0555 -0.1558 -0.0630
17940W        W34788   2.908   1.414  15.900 -0.0859  0.2533 -0.1510
17941W        W34789  14.244   7.454  11.734  0.0987  0.0411  0.0350
17942W        W34790   9.049  12.604   2.149 -0.1592 -0.0983 -0.1956
17943W        W34791   0.023  17.081   3.691 -0.2875 -0.2697 -0.1638
17944W        W34792  13.257   9.971  13.507  0.1393 -0.1153  0.0912
17945W        W34793  10.853  11.224  14.405 -0.0379 -0.1004  0.0709
17946W        W34794  14.218   4.464   2.723  0.3454 -0.2157  0.1241
17947W        W34795   8.993  17.241  16.124 -0.0730 -0.2501  0.0463
17948W        W34796   1.472   0.622   1.895 -0.0837  0.0363 -0.1261
17949W        W34797   2.613   6.182  10.910 -0.1217 -0.1631  0.0127
17950W        W34798  12.281  17.422  13.391 -0.3141  0.2898 -0.2345
17951W        W34799   3.609   5.099  14.950  0.0056 -0.1239 -0.0659
17952W        W34800   8.719   5.262  14.317 -0.0518  0.1888  0.0354
17953W        W34801  10.289  16.120  15.982  0.3287  0.1197 -0.1715
17954W        W34802  10.321   0.420  12.481  0.0913 -0.3027 -0.0670
17955W        W34803  12.072  15.675   3.077 -0.0116  0.2710 -0.0217
17956W        W34804  15.168  16.330   3.397  0.0334 -0.0708 -0.0485
17957W        W34805   8.289   3.402  14.759 -0.2550  0.3757  0.1059
17958W        W34806  12.339   4.749   1.962  0.1286 -0.0782  0.1225
17959W        W34807   2.045   0.500  14.690  0.0139  0.2732 -0.3082
17960W        W34808  10.602   4.189   2.297 -0.1790 -0.0068 -0.4592
17961W        W34809  11.339  12.170   3.699  0.0715  0.0286  0.0282
17962W        W34810   2.241  15.077  15.188  0.0456  0.1680  0.1233
17963W        W34811  14.476  14.826   4.068  0.2525  0.0399  0.2054
17964W        W34812   9.290   4.484   3.403  0.0557  0.4894 -0.2176
17965W        W34813  17.309  17.514   2.551  0.3559  0.0298 -0.2884
17966W        W34814   8.373   8.175  13.384  0.1607 -0.1185 -0.2906
17967W        W34815  14.804   1.539  14.988 -0.3708 -0.2852  0.1418
17968W        W34816   8.051  14.802  15.402  0.2874 -0.0159 -0.0430
17969W        W34817   7.652   0.301   0.950  0.2535  0.0949 -0.0321
17970W        W34818  13.246  12.227   4.056  0.0507 -0.1962  0.3293
17971W        W34819   8.829  13.467  13.053  0.2909  0.0699 -0.0455
17972W        W34820   4.256  14.152   5.567 -0.0389  0.0575 -0.0069
17973W        W34821   9.780   0.077  15.606 -0.1009  0.2052 -0.0527
17974W        W34822  13.470   7.441  14.987  0.1409 -0.2097  0.1650
17975W        W34823   3.700   4.343   3.793 -0.2140 -0.0474  0.2116
17976W        W34824   8.667   0.694   1.510  0.3639 -0.1923 -0.3644
17977W        W34825   9.643  10.375  12.846  0.2939 -0.0877  0.2167
17978W        W34826   9.028  13.556  13.608 -0.0450 -0.1901  0.1639
17979W        W34827   4.256   5.733   1.290  0.1127  0.0484  0.3845
17980W        W34828  11.146   0.477  13.823  0.1787  0.2311  0.4009
17981W        W34829  17.010  14.288  11.657 -0.0403 -0.0214  0.2164
17982W        W34830   2.243  16.213  12.891 -0.0363  0.2674  0.0106
17983W        W34831   7.420  16.209  16.278 -0.3226  0.2195 -0.1993
17984W        W34832  15.660  11.937  16.295 -0.3072 -0.0396 -0.0496
17985W        W34833   6.398  12.530  15.225 -0.0500 -0.2104 -0.1099
17986W        W34834  15.025   7.404  13.438 -0.0667  0.0247  0.4032
17987W        W34835   7.370   9.811  13.689 -0.0756 -0.2281  0.2495
17988W        W34836  15.042   0.841   2.606 -0.0568 -0.1068 -0.0145
17989W        W34837  12.539  16.085  12.738 -0.0102  0.2096  0.2039
17990W        W34838   8.244   0.533   4.629  0.1048 -0.0575 -0.0588
17991W        W34839   8.456   5.056   3.324 -0.1303  0.1225 -0.2308
17992W        W34840  13.978  16.244  16.111  0.1470 -0.2785 -0.0281
17993W        W34841  13.588   7.402  13.625  0.0098 -0.0859  0.1095
17994W        W34842  17.880  15.214   1.825  0.0074  0.0533 -0.1662
17995W        W34843  16.569   3.512   4.631  0.2700 -0.1456 -0.0349
17996W        W34844   2.474   1.720   0.816 -0.0239  0.0222 -0.0307
17997W        W34845   7.625   6.815  14.308 -0.0991 -0.2846  0.0104
17998W        W34846   0.509  12.435   4.869  0.1711  0.2409  0.0782
17999W        W34847   7.305  10.125   1.495  0.1643  0.0202  0.0110
18000W        W34848   5.567   9.545   1.975 -0.4455  0.0059 -0.0724
18001W        W34849   5.167   8.327   3.277 -0.3567  0.0428 -0.0752
18002W        W34850  13.543  11.522  12.660  0.0667 -0.1181  0.0137
18003W        W34851  13.376  10.750   2.722  0.1639  0.0468  0.0444
18004W        W34852   7.333   0.676   1.977 -0.1280 -0.2169 -0.0281
18005W        W34853   6.817   3.701  14.679  0.1023 -0.0666 -0.0669
18006W        W34854  15.701  12.989   1.369  0.5111 -0.3465  0.1978
18007W        W34855   5.718   7.856   3.676 -0.1358  0.1826  0.2687
18008W        W34856  12.665   3.409  11.797 -0.0388 -0.1270 -0.0820
18009W        W34857   6.470  12.829   5.587  0.2082  0.1622 -0.0443
18010W        W34858  17.290   0.544   4.333  0.2819  0.0253  0.3100
18011W        W34859  11.575   0.210  15.012  0.1760 -0.1294  0.1872
18012W        W34860   8.691   3.930   2.192 -0.0728 -0.0636  0.0305
18013W        W34861  11.941   3.818  12.249  0.3479  0.2182  0.0615
18014W        W34862  16.997   3.680  11.650 -0.1606  0.0869  0.2026
18015W        W34863  10.500   7.332  15.888 -0.0013 -0.0722  0.1092
18016W        W34864   3.124  17.516   2.685 -0.0438  0.5497  0.1128
18017W        W34865   9.937   2.109   2.883  0.1094  0.1359 -0.1091
18018W        W34866   7.257   9.824   0.236  0.1442 -0.2153  0.4292
18019W        W34867   4.565   1.741   2.705  0.0437  0.0205 -0.0244
18020W        W34868  16.668   7.689   1.492  0.1107  0.2229  0.3495
18021W        W34869   5.358   6.623  12.423 -0.1734 -0.2346 -0.0476
18022W        W34870   8.902   0.466  11.541 -0.3674 -0.3600 -0.0956
18023W        W34871  14.923  12.914  15.506  0.0675  0.1228  0.3827
18024W        W34872   5.880   7.404  12.845  0.0837  0.6536  0.1067
18025W        W34873   5.148  13.465  14.743 -0.1233 -0.0317  0.1288
18026W        W34874  16.768  17.203  12.517  0.0980 -0.2413  0.1509
18027W        W34875  12.587  16.676   1.965  0.0327 -0.1233 -0.1936
18028W        W34876   7.183   1.473   4.920  0.1240 -0.0625  0.1893
18029W        W34877  10.718   1.384  12.178  0.1641 -0.0463  0.0515
18030W        W34878   2.569  10.126   0.736 -0.2422 -0.1666 -0.2084
18031W        W34879  13.532   9.301   3.469 -0.2324  0.2289 -0.2001
18032W        W34880  17.604  12.733  10.291  0.1938  0.1936  0.2063
18033W        W34881   6.168   0.359   1.442  0.1496 -0.0118 -0.1866
18034W        W34882   3.370   9.403  11.196 -0.1109  0.1063 -0.0854
18035W        W34883   7.275  10.866  10.722 -0.1047  0.2845 -0.0047
18036W        W34884  15.983   2.486   0.352  0.3486 -0.0233  0.1001
18037W        W34885  11.291   1.125   2.869  0.0994 -0.0504 -0.1080
18038W        W34886  10.195  14.491  11.656 -0.2570  0.2480  0.0064
18039W        W34887   4.348  11.487   1.898  0.1671  0.2859 -0.0198
18040W        W34888   4.096  10.695  11.484 -0.0404 -0.1159  0.0190
18041W        W34889   6.470   5.318   4.930  0.1969  0.2094 -0.0420
18042W        W34890  17.446   9.353  15.339 -0.1491  0.0238 -0.2241
18043W        W34891   8.194   7.251  12.952  0.4134  0.0591  0.1144
18044W        W34892   6.886  12.514   0.984  0.2734  0.2740  0.1084
18045W        W34893  15.259  16.652  13.652  0.2148  0.1084  0.0521
18046W        W34894  11.586   4.021   0.120 -0.0766  0.0787  0.0275
18047W        W34895   5.674   5.238  11.941 -0.0378  0.2709 -0.0802
18048W        W34896   5.097  16.539  13.282  0.5056  0.1998  0.0200
18049W        W34897   4.279  12.273   4.535  0.4963  0.0538 -0.2203
18050W        W34898  10.672   9.498   1.328  0.2250  0.2316  0.2238
18051W        W34899  10.388   3.216  15.827  0.1176 -0.2002  0.1465
18052W        W34900   6.677   2.445  11.573 -0.0369 -0.2002 -0.0622
18053W        W34901   3.702   4.317  12.939 -0.1462 -0.0125  0.0700
18054W        W34902   9.892  15.122   2.864 -0.0547 -0.1349 -0.0448
18055W        W34903   3.436  12.716  12.894 -0.1662  0.1575 -0.0720
18056W        W34904   3.944   9.930   0.478  0.0461  0.0891 -0.0856
18057W        W34905  16.881   2.494  13.468  0.1444  0.2001  0.1087
18058W        W34906   2.418   0.442  12.535  0.1075  0.2680 -0.2619
18059W        W34907   4.295   4.149  14.534 -0.1748 -0.1580  0.0302
18060W        W34908  17.405  16.634   3.051 -0.2181  0.1386 -0.1154
18061W        W34909   5.798  16.839  12.065 -0.2313  0.1866  0.1117
18062W        W34910   3.457   0.326  13.651 -0.1563  0.0288  0.1835
18063W        W34911  16.403  14.259  15.014  0.1989  0.0397 -0.4331
18064W        W34912  12.170  15.065   3.958  0.2453 -0.0265 -0.3099
18065W        W34913   1.607   6.499   0.238  0.2467 -0.1801  0.0984
18066W        W34914  11.686   1.886   1.118  0.0088 -0.0152  0.0151
18067W        W34915  15.878  14.418  15.861  0.1874 -0.0884 -0.0440
18068W        W34916   4.516   0.659  15.688 -0.2025 -0.1719  0.3437
18069W        W34917   5.103   3.722   3.532 -0.3136 -0.1111 -0.1875
18070W        W34918  16.546   0.091   1.217  0.0448 -0.1236 -0.0512
18071W        W34919   8.736  14.303   4.203  0.1173  0.4229 -0.1165
18072W        W34920   1.571  15.031  16.120 -0.2164 -0.0015 -0.2908
18073W        W34921  15.797   0.146  16.043 -0.1043  0.4418 -0.0674
18074W        W34922   8.146  14.874   3.028  0.0105 -0.1287 -0.2334
18075W        W34923   6.633   6.413  15.736  0.2327  0.1346  0.1114
18076W        W34924   2.800   4.198  13.282  0.0075  0.0083 -0.1866
18077W        W34925   3.956  17.426   1.341 -0.3037  0.3264  0.2213
18078W        W34926   3.087   7.361  14.586  0.1656 -0.2252 -0.3577
18079W        W34927  11.747   3.955   4.892 -0.1279  0.2344  0.2621
18080W        W34928   6.818   0.070  12.233 -0.0079  0.1367 -0.0081
18081W        W34929  10.837   6.894  13.610  0.2321  0.1444  0.0276
18082W        W34930  12.239   1.645  12.886 -0.2166  0.0402 -0.0373
18083W        W34931   4.512  13.908   4.637  0.2049 -0.2655  0.0145
18084W        W34932   9.073  11.184   1.816 -0.4802  0.0005 -0.4560
18085W        W34933  14.970  12.906   3.644 -0.0279 -0.1323  0.0376
18086W        W34934   8.744   9.859   1.200 -0.1825  0.2342 -0.1395
18087W        W34935   6.656  12.807  12.413 -0.5874  0.0907  0.2280
18088W        W34936   1.906  12.520  11.319  0.1723 -0.0517  0.1634
18089W        W34937  14.283  13.805  12.023 -0.0773 -0.0394  0.0973
18090W        W34938   5.756   7.799  12.511 -0.0297  0.1683 -0.2403
18091W        W34939   0.234   7.298   0.481  0.0920 -0.0477 -0.0271
18092W        W34940  12.301  14.971  16.334  0.3097  0.1744 -0.1862
18093W        W34941   4.267   8.198   1.537 -0.2967 -0.0501 -0.1854
18094W        W34942  18.030   3.587  13.609  0.2394 -0.0590  0.1497
18095W        W34943   3.461   4.239   4.324 -0.3489 -0.0455 -0.0780
18096W        W34944   9.460   7.593   3.268 -0.0136 -0.0120  0.2256
18097W        W34945   4.418  13.212   5.126 -0.0173  0.1051 -0.1027
18098W        W34946  10.762  17.274   0.145  0.2638  0.1844 -0.1707
18099W        W34947   1.156   1.724   1.284  0.1312 -0.1052 -0.4011
18100W        W34948   4.641   8.983  14.745 -0.0593 -0.0226 -0.3186
18101W        W34949  12.657  14.163  12.908  0.2465  0.0832  0.1496
18102W        W34950  12.344   5.789   2.069  0.1429 -0.0122  0.0304
18103W        W34951  15.300   9.103  15.840 -0.0311  0.0174  0.3658
18104W        W34952   9.852   0.893   4.978 -0.1547 -0.1909 -0.1168
18105W        W34953  11.384   4.884   1.076  0.0253  0.1367 -0.0864
18106W        W34954  17.071   7.946  15.166  0.2849  0.1934  0.2452
18107W        W34955   7.251   6.027  11.531 -0.0429 -0.1265 -0.0316
18108W        W34956  14.751   6.749   4.645 -0.1064  0.1277  0.1293
18109W        W34957  11.890  12.443   5.257 -0.0710  0.1555 -0.1809
18110W        W34958  13.930  11.229  12.514 -0.2560 -0.1051 -0.1718
18111W        W34959  10.743   7.639  12.094 -0.0611  0.0789  0.0247
18112W        W34960   2.162   8.705  13.846 -0.0705 -0.0188 -0.4382
18113W        W34961  17.298   3.611   3.450 -0.2770  0.1085 -0.1149
18114W        W34962  12.008   1.574  16.025 -0.0059  0.2145  0.2160
18115W        W34963   0.111  17.665   5.127 -0.2059 -0.0263 -0.2566
18116W        W34964   1.657   8.791  14.779  0.1934  0.1816  0.2491
18117W        W34965   2.951   0.508   4.707 -0.0701 -0.0958  0.1591
18118W        W34966   2.160   1.178   3.486  0.1899 -0.1983 -0.2062
18119W        W34967   7.196   2.177  13.290  0.3603  0.0841  0.3480
18120W        W34968   6.285  15.827   3.002  0.1593  0.1459 -0.0539
18121W        W34969   7.488   0.802   5.716 -0.3594  0.2370 -0.0232
18122W        W34970  15.767  10.344   0.899  0.5055  0.1877 -0.2260
18123W        W34971   8.902   1.030  12.240 -0.0882  0.1863 -0.0911
18124W        W34972  17.123   5.638  11.517  0.2415  0.1851 -0.1571
18125W        W34973  14.818   6.332  11.695 -0.2330 -0.2834 -0.1577
18126W        W34974   3.853  14.712   5.301  0.2563 -0.0826 -0.1102
18127W        W34975   9.805   4.894  10.269  0.1290  0.0966 -0.3698
18128W        W34976  16.057  17.977  14.396  0.0949 -0.2018  0.2430
18129W        W34977  16.759  14.546   0.329  0.0226  0.4268 -0.1577
18130W        W34978   8.948   0.803   0.622 -0.2839  0.0241 -0.1581
18131W        W34979   3.765  12.759  16.007 -0.1428 -0.2551  0.1100
18132W        W34980  11.712  17.401   1.780  0.0612 -0.3027 -0.0549
18133W        W34981  15.831   7.853  13.717 -0.0828  0.0285 -0.0671
18134W        W34982   9.628  14.308   0.185  0.2013 -0.2704 -0.0355
18135W        W34983  16.648   8.725  14.087  0.0890 -0.0917  0.0992
18136W        W34984   4.521  10.934   0.230  0.1533 -0.1699 -0.1544
18137W        W34985  11.587   8.813   4.820 -0.1701 -0.2175  0.0016
18138W        W34986   7.800   8.817   0.154  0.0771  0.0067  0.0702
18139W        W34987   2.749   1.990   0.531 -0.0348 -0.2109 -0.1549
18140W        W34988  14.028   9.526   2.886 -0.4326 -0.2586  0.0797
18141W        W34989  15.443  11.086   1.405  0.2159  0.1577  0.0724
18142W        W34990  16.251   4.827   3.011  0.0114 -0.0574  0.1638
18143W        W34991  15.725  17.976   3.177 -0.1086 -0.0194  0.1676
18144W        W34992  13.954  11.806   5.469  0.4613  0.0242  0.1458
18145W        W34993  12.246   3.434   3.911  0.3819 -0.0054  0.0803
18146W        W34994  13.428  14.436  13.500 -0.0605  0.0665  0.0146
18147W        W34995   3.086  14.617   0.064  0.1897  0.2474 -0.2046
18148W        W34996  17.381  13.075  15.980 -0.1240 -0.1458  0.0050
18149W        W34997   0.784   0.270  13.059 -0.1326 -0.2308  0.2688
18150W        W34998  14.925  16.894   4.226 -0.0616 -0.1204 -0.0530
18151W        W34999   0.085   6.144  13.337  0.1454  0.1285 -0.3127
18152W        W35000  11.095  16.705  11.147 -0.0255  0.0259  0.0294
18153W        W35001  16.813   9.534   3.775 -0.2140 -0.2441  0.2361
18154W        W35002   3.235  11.184   1.466 -0.1429  0.3188 -0.0518
18155W        W35003  14.854   7.528  15.001 -0.0704  0.1472  0.1212
18156W        W35004   1.472   4.099  11.673  0.1755 -0.1415  0.1830
18157W        W35005  16.176  10.041  13.447  0.0623  0.0781 -0.0261
18158W        W35006   9.547   8.990  12.265  0.1672  0.0546  0.3975
18159W        W35007   2.914  14.040  11.899  0.2408  0.0499  0.1797
18160W        W35008   0.002   7.267   3.930 -0.0611 -0.0849 -0.0611
18161W        W35009   6.590   5.483  15.146  0.2064  0.2608 -0.3187
18162W        W35010  14.860  14.618   1.319  0.0428  0.1684  0.1271
18163W        W35011   2.117  15.534   2.533  0.0342 -0.0671 -0.2207
18164W        W35012   1.444  16.881  11.637 -0.1438  0.0995  0.0191
18165W        W35013   0.646   7.711   4.376 -0.1982 -0.0837  0.1450
18166W        W35014   8.008   1.080  14.787 -0.2523  0.1003  0.0125
18167W        W35015  15.117   9.547   5.409 -0.0682 -0.0513 -0.0275
18168W        W35016   6.908   0.404  16.256 -0.0960  0.3033 -0.2937
18169W        W35017   7.779   9.877   2.727  0.0166 -0.3658  0.1312
18170W        W35018   8.117   1.589  13.983 -0.1054 -0.1382 -0.2072
18171W        W35019   5.423   3.516   4.452 -0.1138  0.3713 -0.0954
18172W        W35020   4.891  10.376  12.174 -0.1175  0.0962  0.2376
18173W        W35021   8.063   5.169   4.743 -0.2174 -0.1451  0.1151
18174W        W35022  12.503   4.058  11.270  0.2950 -0.0307  0.2664
18175W        W35023  11.820   4.511   1.855  0.1215 -0.0918 -0.4173
18176W        W35024  15.068   2.673   5.270  0.0889  0.2453 -0.1148
18177W        W35025   0.492   4.052  12.411 -0.3040  0.0576  0.0688
18178W        W35026  16.227   5.479  11.847  0.0017 -0.0911 -0.1404
18179W        W35027   0.428  17.610  13.357 -0.0287  0.1356 -0.1244
18180W        W35028   4.589  11.372  16.267  0.0741  0.0104 -0.3997
18181W        W35029  15.020  16.326  15.571 -0.1577  0.1062 -0.1492
18182W        W35030   9.058   9.410  11.630 -0.1669 -0.0558 -0.0773
18183W        W35031   9.799   4.139   5.200  0.1293  0.1177 -0.4307
18184W        W35032   8.033   4.016  15.836 -0.0666 -0.0500 -0.1157
18185W        W35033   7.420   5.265  12.338  0.1261 -0.0950  0.0846
18186W        W35034   4.023  12.665  13.094 -0.2090 -0.0557 -0.0192
18187W        W35035  13.463  10.080  15.427 -0.0933  0.0658  0.1439
18188W        W35036   9.083  10.374  15.912 -0.2006  0.0043 -0.0698
18189W        W35037  17.523  16.262   2.126  0.2248 -0.0064  0.3351
18190W        W35038   2.299   4.827  15.239  0.1066  0.1684  0.0988
18191W        W35039  12.557   6.258   0.387 -0.0302  0.0013  0.0933
18192W        W35040  13.188  13.437   3.699 -0.0247  0.0343  0.0373
18193W        W35041   8.723   5.688  14.116  0.1578 -0.2185 -0.4254
18194W        W35042   0.120  15.836  15.164 -0.0371  0.1216  0.0059
18195W        W35043  13.269   6.605   2.867 -0.3423 -0.0946 -0.3681
18196W        W35044   1.540   8.912   3.356 -0.1419 -0.4186 -0.1825
18197W        W35045   1.237   6.717  15.246  0.0762 -0.1397  0.1119
18198W        W35046  10.019   6.696  16.027  0.0384 -0.1175 -0.0304
18199W        W35047   4.486  14.583   5.949 -0.1371 -0.0163  0.1949
18200W        W35048   4.345   4.175  11.349 -0.1160 -0.0516 -0.1018
18201W        W35049  12.357   3.590  14.637 -0.0254 -0.1255 -0.0587
18202W        W35050   1.468  16.000  11.926  0.1164 -0.2153  0.1409
18203W        W35051   3.212   6.730  13.527 -0.0708 -0.0305 -0.1214
18204W        W35052   6.668   0.036   1.689 -0.1658  0.1413  0.1800
18205W        W35053  14.759   7.535  15.982  0.0959  0.1528  0.0208
18206W        W35054  17.542  16.738  15.350 -0.2178  0.1560  0.2278
18207W        W35055  13.297  11.149   0.813 -0.0368  0.0018 -0.0875
18208W        W35056   1.072   1.787  16.063  0.1133  0.1738  0.0505
18209W        W35057   4.447  11.165  15.317  0.0753 -0.0620 -0.1617
18210W        W35058  16.796   9.370  12.983  0.0737  0.0771  0.3604
18211W        W35059   1.915  13.768  11.959  0.0232  0.0796 -0.3473
18212W        W35060   2.721  14.894   2.510  0.1080 -0.0741 -0.1426
18213W        W35061  15.555  16.405  12.787 -0.3754  0.1069 -0.1827
18214W        W35062   0.116   2.152   2.001  0.1160  0.0338  0.2189
18215W        W35063  11.603  11.354  15.147 -0.2331  0.4073  0.1966
18216W        W35064   3.423  12.377  15.754 -0.1351 -0.1064 -0.0833
18217W        W35065  15.360   2.587   3.880  0.2590 -0.2271  0.0139
18218W        W35066   0.403   5.750   4.572 -0.2820 -0.2160 -0.0171
18219W        W35067  12.250   6.565   3.832 -0.0533 -0.1173  0.0632
18220W        W35068   7.146   1.851  14.920 -0.0419 -0.0500  0.0692
18221W        W35069  12.098   6.527   1.500  0.1866 -0.0541 -0.0145
18222W        W35070  12.603  15.500  12.606  0.1039 -0.1450  0.1094
18223W        W35071  17.247  17.078   1.791  0.0970  0.1567  0.1706
18224W        W35072  13.809   9.942  12.585  0.4342 -0.6223  0.1417
18225W        W35073  16.110   8.589  13.376 -0.0216 -0.1239 -0.2318
18226W        W35074  14.230   4.680   0.209  0.0054  0.1250 -0.1767
18227W        W35075   1.172  16.565  13.520  0.1398  0.2191  0.1556
18228W        W35076   7.771  17.067   2.732  0.0417  0.4173  0.0182
18229W        W35077  16.692   4.881   4.922  0.2615 -0.0090  0.0534
18230W        W35078   5.895  17.338  12.954 -0.0705 -0.1598  0.0367
18231W        W35079   0.142   6.792   3.777  0.1254  0.1561 -0.0692
18232W        W35080  12.365  11.979   3.385  0.4237  0.0533  0.1153
18233W        W35081   1.522   3.498   0.706 -0.0116  0.4709  0.2833
18234W        W35082   8.679  16.965  10.451 -0.0958  0.0818  0.2943
18235W        W35083  16.717   6.827   2.339  0.2068 -0.1713  0.0042
18236W        W35084  16.762  12.446   4.178  0.2270  0.1312  0.1239
18237W        W35085  12.873   6.027   2.281 -0.1250  0.2609 -0.3115
18238W        W35086  10.905  13.973  12.029  0.4013 -0.1940  0.0318
18239W        W35087   0.622  14.312  13.117 -0.1231  0.1067 -0.1763
18240W        W35088  14.387   4.991   0.918  0.3900 -0.0065 -0.1258
18241W        W35089   9.880  12.763   2.798 -0.0629 -0.1050  0.2256
18242W        W35090  10.446  15.756  11.464  0.4635  0.0869 -0.4884
18243W        W35091   8.191   5.306  15.337  0.3424  0.1738 -0.0118
18244W        W35092   7.088   2.426  14.863  0.0018  0.1740 -0.0203
18245W        W35093   2.910  14.685   3.082  0.2384  0.0630  0.1650
18246W        W35094   8.658  16.407   1.654  0.1651  0.4738  0.2202
18247W        W35095   3.382  15.142  12.016 -0.3475 -0.0937 -0.0189
18248W        W35096   3.232  10.967  11.814 -0.0367 -0.0337 -0.1910
18249W        W35097   5.623   7.660  14.652  0.1399 -0.0009  0.1708
18250W        W35098   6.510   0.732  12.478  0.0954 -0.2666  0.0004
18251W        W35099  14.359   7.631   3.244  0.0298  0.0425 -0.0290
18252W        W35100   3.108  14.144  13.643 -0.1498  0.1326 -0.0441
18253W        W35101  15.209  10.488   2.229  0.0107  0.1261  0.0998
18254W        W35102  17.001   0.577  12.639  0.1748  0.0705  0.0655
18255W        W35103   8.326   8.389   2.918  0.3370 -0.0946 -0.1628
18256W        W35104  15.907   0.340  14.682 -0.1787  0.2131 -0.0485
18257W        W35105   8.644  14.560  11.951  0.1819  0.0802  0.0254
18258W        W35106   1.457  15.753  15.441  0.3760  0.4070  0.0148
18259W        W35107   0.387  12.692  11.370 -0.1555 -0.1857 -0.0957
18260W        W35108  15.338   3.053   0.069 -0.0584 -0.1580 -0.3942
18261W        W35109   7.095   3.678  12.902 -0.2034  0.5113  0.0516
18262W        W35110  15.547  13.589  13.669  0.1415 -0.0590  0.0410
18263W        W35111   3.463  15.093   4.769 -0.1130 -0.1193 -0.0322
18264W        W35112   4.018  17.272   2.441 -0.0601 -0.0563  0.3736
18265W        W35113  17.028   7.722  15.597  0.3826 -0.0133  0.2109
18266W        W35114   6.732   6.119   2.538  0.0228  0.1478  0.0662
18267W        W35115  17.704  13.692   3.475 -0.0743  0.1839  0.2002
18268W        W35116   4.195  11.009  11.959  0.4195  0.2612 -0.1135
18269W        W35117  10.147   4.884   5.131  0.2143 -0.1116 -0.1536
18270W        W35118   6.552   8.546   2.041  0.1509  0.2530 -0.2250
18271W        W35119  12.886   1.484   2.164  0.2042  0.0302  0.1299
18272W        W35120  11.128  13.599   1.692 -0.0804 -0.0016 -0.2389
18273W        W35121   3.721  13.740   4.978  0.1180 -0.1819  0.0808
18274W        W35122   1.305   2.787   3.542 -0.3192  0.0422 -0.0573
18275W        W35123  10.997  16.225   4.001  0.0228  0.1700 -0.0626
18276W        W35124   5.262   0.350   6.164 -0.0120  0.0844 -0.0791
18277W        W35125  11.634  14.069  12.690 -0.1319  0.0019 -0.1223
18278W        W35126   1.130   1.668   0.202  0.1572  0.0589  0.2337
18279W        W35127   6.498   9.985   0.213  0.0175  0.0670  0.0612
18280W        W35128   9.524   5.132  15.908  0.0418 -0.0477 -0.2642
18281W        W35129   7.768   3.088  11.277 -0.3182  0.1911  0.3638
18282W        W35130   1.271   9.464  13.821  0.2657  0.1707 -0.2721
18283W        W35131   8.765  16.648  15.492  0.2088 -0.4531  0.0179
18284W        W35132  16.270   7.539  13.590  0.0543  0.0430  0.2645
18285W        W35133  11.673   1.246  16.185  0.3242 -0.0864 -0.0675
18286W        W35134  14.013   9.936   0.338 -0.0728  0.0435 -0.0582
18287W        W35135   9.672  13.813  10.707  0.1053  0.1709  0.1302
18288W        W35136   3.511  17.923   4.992  0.0213  0.1646  0.2028
18289W        W35137   7.434  11.150  14.025  0.2677 -0.1372 -0.0482
18290W        W35138   4.868  11.986   0.847  0.1059  0.3327 -0.1159
18291W        W35139   4.549   0.783   1.886  0.0088  0.1249  0.2268
18292W        W35140  10.207  17.923  12.092  0.0414 -0.0553  0.0128
18293W        W35141  10.569  11.648   1.343 -0.4362 -0.0065 -0.2577
18294W        W35142  11.537  10.614  14.052 -0.3124 -0.0360  0.0431
18295W        W35143  11.697   5.060   3.507  0.1096 -0.1383 -0.1995
18296W        W35144   0.455  10.785  13.798 -0.0377 -0.0358  0.1807
18297W        W35145  13.323  17.144   4.398 -0.1807 -0.2809  0.1157
18298W        W35146  18.092  12.478  14.680  0.0311  0.2881 -0.3013
18299W        W35147   6.200   7.130  12.473  0.1800  0.2660 -0.0950
18300W        W35148  13.342   5.701   3.999 -0.0717  0.0132 -0.2351
18301W        W35149   0.707  15.207   4.554  0.1907 -0.0909 -0.0940
18302W        W35150   4.813  13.660   2.066 -0.2919  0.3332  0.4466
18303W        W35151  16.203   1.622   1.568 -0.2359 -0.0279 -0.0679
18304W        W35152   3.400   5.835  13.541 -0.3854  0.3117 -0.1893
18305W        W35153   0.209  16.303  15.040  0.0951 -0.4139  0.0511
18306W        W35154   2.471  17.315  12.066  0.0778  0.2563 -0.1006
18307W        W35155  15.084  16.205   1.969 -0.1263 -0.2100  0.0943
18308W        W35156  15.381   8.822  15.399  0.1556 -0.1746 -0.1484
18309W        W35157   4.359   1.288   3.349  0.0435 -0.2211  0.2365
18310W        W35158  13.382   7.968   5.230 -0.2870 -0.0589  0.0625
18311W        W35159   3.590   9.390   2.375  0.3729 -0.7187 -0.2530
18312W        W35160  14.371  12.333   2.429 -0.2160 -0.1223 -0.0024
18313W        W35161   5.526  14.663  16.100 -0.4575  0.1283  0.0159
18314W        W35162  15.016   7.960   4.661  0.2144  0.1300  0.3062
18315W        W35163   1.635   0.593   3.490 -0.0590  0.0201  0.2415
18316W        W35164  13.787  17.738   5.196 -0.0290  0.4434  0.0211
18317W        W35165   3.872   5.691   3.920 -0.1232 -0.2482 -0.2122
18318W        W35166  11.979   4.377   0.052  0.0740 -0.0114  0.1117
18319W        W35167  14.503  11.173  14.274  0.0057 -0.1824 -0.1506
18320W        W35168   6.238   9.995  13.418  0.0440  0.1441  0.0115
18321W        W35169  17.940   4.017  15.259 -0.2675 -0.1198 -0.1006
18322W        W35170   6.829   2.509   5.046 -0.1226 -0.1169 -0.0147
18323W        W35171  16.833  10.999  12.239  0.2961  0.0686 -0.1658
18324W        W35172   8.052  10.298   0.273 -0.0092 -0.4398 -0.1646
18325W        W35173   9.544   1.922   1.332  0.2735  0.4307  0.2786
18326W        W35174   0.767  15.407   0.777 -0.1229  0.1723 -0.0830
18327W        W35175   5.109   4.074   1.268  0.1082  0.0199  0.1158
18328W        W35176   3.778  12.159  11.711  0.0279 -0.5286  0.0379
18329W        W35177   9.958  15.007   4.281  0.1217  0.0211 -0.0229
18330W        W35178  16.844  11.394   4.446  0.0282  0.2439 -0.1911
18331W        W35179   9.885  14.452   2.633 -0.0933  0.1072 -0.1868
18332W        W35180  11.512  15.158  14.337  0.2119 -0.2492 -0.0925
18333W        W35181   6.653   4.808  14.443 -0.2342 -0.2222  0.0020
18334W        W35182  13.536   1.101   0.199 -0.1861  0.1588  0.1843
18335W        W35183   5.488   9.320   3.488 -0.0217  0.0278 -0.2725
18336W        W35184  15.569   0.829  11.613  0.0737 -0.1093 -0.1968
18337W        W35185  14.403   9.991  11.760 -0.1112  0.0763 -0.3011
18338W        W35186   2.192  12.922   4.574  0.0295  0.0714  0.2223
18339W        W35187   6.925   8.399   2.436 -0.3182  0.0201  0.0843
18340W        W35188  14.930  14.816   2.427 -0.0120  0.1657 -0.4102
18341W        W35189  15.819   9.406   3.930  0.1243  0.1116 -0.0280
18342W        W35190  12.089   2.475   4.868  0.0240  0.1331  0.0985
18343W        W35191   0.620  17.209   0.375 -0.5638 -0.3263  0.2442
18344W        W35192  14.385   9.100  13.740 -0.1526  0.1560 -0.2349
18345W        W35193   6.391  17.331   3.877  0.2943  0.0426 -0.2055
18346W        W35194  11.031   7.200  15.115  0.2464  0.2969 -0.1506
18347W        W35195   8.137   0.906   0.291 -0.2053  0.3570 -0.0406
18348W        W35196  12.359   7.173  15.324 -0.3284  0.0341  0.3067
18349W        W35197   1.515   8.118  16.005 -0.1828  0.2534  0.0059
18350W        W35198  16.246   7.761   4.463 -0.0451  0.0999  0.1109
18351W        W35199   6.083   6.903   4.649  0.3257 -0.1228 -0.0098
18352W        W35200  17.274  16.125   0.373  0.1630 -0.0730  0.2756
18353W        W35201  10.857  16.991   3.479 -0.2327 -0.1437  0.2559
18354W        W35202  13.108  10.426   1.473  0.0522  0.1905 -0.2642
18355W        W35203  13.343   1.951  12.576  0.1404 -0.0724  0.0473
18356W        W35204  10.709   3.577  12.440  0.3724 -0.2357  0.1865
18357W        W35205  10.709  13.808   0.294  0.4178  0.3751 -0.0827
18358W        W35206   1.317  10.691   0.018 -0.1523 -0.0920 -0.1663
18359W        W35207   6.146  15.474   4.547  0.0842 -0.2307 -0.1458
18360W        W35208  16.710  17.478  13.833  0.0374 -0.1514 -0.1976
18361W        W35209   0.826   6.930  12.091 -0.3341  0.1176 -0.1604
18362W        W35210  13.286  14.222  11.918 -0.1270 -0.2171 -0.1866
18363W        W35211   7.043  14.429  12.655  0.3177  0.1019  0.1207
18364W        W35212   3.125   1.557  14.465  0.2010 -0.0638  0.0985
18365W        W35213   6.157  13.920   1.663 -0.2862 -0.1823  0.3003
18366W        W35214  14.224   1.984  12.446  0.5096 -0.3326 -0.1262
18367W        W35215   5.133   1.444  15.600 -0.0073 -0.1740  0.5358
18368W        W35216   6.899   9.920  11.865  0.4760 -0.2602  0.2322
18369W        W35217  12.244  11.987  12.408  0.0997  0.1236 -0.1147
18370W        W35218   6.820   2.373   4.562  0.0043  0.0409  0.0358
18371W        W35219   9.783   9.041  13.826 -0.1351  0.1560  0.1378
18372W        W35220  17.323  17.283   4.756  0.3089  0.0116  0.0938
18373W        W35221   7.946   8.614   2.658  0.2095  0.0668 -0.1530
18374W        W35222   9.924  16.842   0.076  0.2211 -0.1908 -0.3475
18375W        W35223   2.441  12.628   1.435 -0.0453 -0.0472 -0.1619
18376W        W35224   5.312   2.815   3.107  0.1726  0.3827  0.1483
18377W        W35225   4.324   4.654  13.114  0.2058 -0.0424 -0.0699
18378W        W35226   3.200   6.499  14.509  0.0259 -0.3480  0.0141
18379W        W35227   6.363   1.158   1.106 -0.4140 -0.1226 -0.0578
18380W        W35228   0.348   5.615  15.490 -0.3229 -0.0197 -0.0553
18381W        W35229  17.838   1.812  12.906 -0.0926 -0.1355 -0.0364
18382W        W35230   8.341   1.884   2.349  0.0377 -0.1289  0.2419
18383W        W35231  12.215  10.621  15.318 -0.2426  0.0891  0.1675
18384W        W35232  12.717  17.187  14.421 -0.2381  0.0490 -0.1791
18385W        W35233   8.678  17.093  12.439 -0.1846 -0.0251  0.2001
18386W        W35234   1.463   6.690   3.906  0.2209  0.1970 -0.0895
18387W        W35235   4.805  17.787   2.997  0.1826  0.3343 -0.1814
18388W        W35236   4.345   1.057   0.794 -0.2418  0.2320  0.1651
18389W        W35237   5.945   4.574   1.428  0.1431  0.0468 -0.4318
18390W        W35238  13.107   2.353  11.757  0.0898 -0.2427  0.0452
18391W        W35239   1.471   1.756   1.817  0.2149  0.1840 -0.1730
18392W        W35240  14.380   1.099  15.144 -0.2312  0.2795 -0.1812
18393W        W35241  17.930  16.910   0.365 -0.1026 -0.0167  0.2323
18394W        W35242   4.229  12.385   0.423 -0.0825  0.1641 -0.0463
18395W        W35243   4.442   8.188  14.122 -0.2434 -0.2650  0.0097
18396W        W35244  18.064  12.624  10.493 -0.4835  0.0677 -0.2001
18397W        W35245   9.449  12.930  15.291  0.2598  0.0544 -0.0536
18398W        W35246   0.970  14.873  12.904  0.1903 -0.0130 -0.1869
18399W        W35247  17.002   2.794   2.982 -0.0316 -0.0783  0.0656
18400W        W35248  15.882   8.218  14.307 -0.0574 -0.0865 -0.2250
18401W        W35249  12.215  15.953   3.701  0.0964 -0.2357  0.0281
18402W        W35250  10.655   8.945  13.267  0.2155  0.0825 -0.0781
18403W        W35251   0.578  13.472   2.080 -0.0357  0.0199  0.0017
18404W        W35252   6.116   9.233   4.120 -0.1469 -0.0758 -0.1601
18405W        W35253   8.360   3.242  13.754  0.1347  0.0373  0.1637
18406W        W35254  11.282  15.217  12.302 -0.0173 -0.1941  0.0834
18407W        W35255  15.968   4.147  14.369 -0.0939  0.1141  0.0529
18408W        W35256  16.319   5.446   5.211 -0.1549 -0.1540  0.0030
18409W        W35257  10.302  17.360  15.131 -0.2068 -0.2225  0.0777
18410W        W35258   4.135   9.866  10.143  0.1765  0.0267  0.1802
18411W        W35259  18.015   7.162  15.846  0.2992 -0.1685 -0.0556
18412W        W35260   9.525  15.487  16.276 -0.2122 -0.1532  0.1547
18413W        W35261  10.651  11.564   4.389  0.0722  0.1961 -0.0373
18414W        W35262  15.027  13.952  12.332  0.0909  0.2774 -0.2326
18415W        W35263   9.755  14.042   4.299 -0.0492  0.0165  0.0899
18416W        W35264  17.294   3.568   3.931 -0.0289 -0.0123  0.3167
18417W        W35265   3.915  11.458  15.213 -0.0265 -0.0005  0.1444
18418W        W35266   0.991  15.106  13.719 -0.0266 -0.0501  0.0961
18419W        W35267  13.599   1.587   0.329  0.0401 -0.3904 -0.2138
18420W        W35268  12.897   8.856  12.102 -0.1095 -0.0352  0.2077
18421W        W35269   0.395  15.041  15.388  0.1227 -0.0505  0.3685
18422W        W35270   8.991   8.113   1.202  0.0615 -0.1775 -0.0081
18423W        W35271   5.816  10.244   1.760  0.3032  0.0034  0.6301
18424W        W35272  11.418  12.302   0.427  0.0709  0.0914 -0.3203
18425W        W35273   1.531   4.453  12.084 -0.2502 -0.2683  0.1460
18426W        W35274   1.459   1.534  11.231 -0.0193  0.0582 -0.2101
18427W        W35275  12.550  10.153   1.745 -0.1098  0.0318 -0.0672
18428W        W35276  12.134   9.642  11.925 -0.0714 -0.3213  0.4707
18429W        W35277  15.848  11.516   4.358  0.1239  0.0347 -0.1130
18430W        W35278  12.151  17.736   3.581 -0.0510  0.0672  0.0358
18431W        W35279  16.577  11.050   3.085  0.1393  0.1346 -0.0157
18432W        W35280   5.175   7.666  11.429  0.2747 -0.0666  0.0374
18433W        W35281   5.616   8.629  11.883 -0.1816  0.3177 -0.1337
18434W        W35282  11.612  10.957   0.872  0.0844  0.1600 -0.1193
18435W        W35283   9.466  13.459  15.279 -0.1251  0.3857  0.0364
18436W        W35284   2.141  15.502   3.052 -0.1158  0.0908 -0.3751
18437W        W35285  15.122  11.145   4.814  0.1632  0.0085  0.0889
18438W        W35286   0.584   8.872  16.311  0.0444  0.1515  0.1591
18439W        W35287  11.312  14.647  16.270  0.0015  0.3701  0.1230
18440W        W35288  15.023  12.540  14.719  0.2901 -0.0554  0.0083
18441W        W35289   8.474  13.116   3.327 -0.5157  0.0449  0.0007
18442W        W35290  10.251  16.860  14.751  0.2662 -0.0664  0.0864
18443W        W35291  13.144  11.891  12.884 -0.1251 -0.0810 -0.2321
18444W        W35292  14.870  10.532   1.932 -0.0792 -0.0805  0.0030
18445W        W35293  16.795   2.398   1.277  0.2677  0.0066  0.2530
18446W        W35294  16.473  13.349   2.267 -0.2504 -0.1083 -0.1861
18447W        W35295  15.017  12.116  15.961 -0.1739  0.0849 -0.0297
18448W        W35296  13.624  16.204   0.915 -0.1044  0.0310  0.0986
18449W        W35297  15.340  13.150   4.567 -0.0417 -0.1466 -0.1294
18450W        W35298   7.779   8.546   3.728 -0.4072  0.0263 -0.0919
18451W        W35299  13.512   9.908  14.937 -0.0429 -0.0878  0.2070
18452W        W35300   9.441   4.884  13.860  0.0438  0.1219  0.0168
18453W        W35301  15.075  15.457  12.214  0.1909 -0.3157  0.1328
18454W        W35302   3.342   0.280   4.898  0.4036  0.1841  0.0601
18455W        W35303  12.157   8.428   1.158  0.1153  0.0908  0.1631
18456W        W35304   9.044   6.134  15.112 -0.0647 -0.0275 -0.0246
18457W        W35305  16.971  11.895  14.303 -0.4677 -0.3100  0.1196
18458W        W35306  15.828   7.606   4.564  0.1706 -0.1158 -0.2150
18459W        W35307   3.352  12.985   1.364 -0.1914  0.1021 -0.1825
18460W        W35308   0.694   1.972  13.223  0.2267 -0.1324 -0.1275
18461W        W35309   2.664  13.795  12.339 -0.2758  0.3662 -0.0791
18462W        W35310   9.440   4.325  16.095 -0.1740 -0.3075 -0.5288
18463W        W35311   3.724   8.185  14.742  0.1407 -0.3014 -0.4164
18464W        W35312   5.521  14.989   2.343 -0.1122 -0.2175  0.0762
18465W        W35313  10.834   7.715  12.578  0.2129 -0.1442  0.0146
18466W        W35314   5.356  12.112   1.182  0.1692 -0.0937 -0.2921
18467W        W35315   0.472  11.466   4.504 -0.0993  0.0065  0.0794
18468W        W35316  14.203  18.000   5.210 -0.0856  0.0616 -0.0726
18469W        W35317  17.063   6.762   1.354 -0.0562 -0.3178  0.1311
18470W        W35318   5.475   5.752  16.250  0.2048  0.0156 -0.0275
18471W        W35319  11.041  17.501  13.108 -0.2204  0.1561  0.2024
18472W        W35320   0.794  10.238  13.747 -0.2570 -0.0636 -0.0168
18473W        W35321  15.979   1.913  11.906  0.0376  0.0299  0.1108
18474W        W35322   7.144  15.187  16.151 -0.0558 -0.0954 -0.1262
18475W        W35323   8.772  17.988   2.306  0.4846  0.2039  0.0833
18476W        W35324  11.244  14.849   1.390 -0.0887  0.1280 -0.2239
18477W        W35325  12.056   9.275  15.459  0.2400 -0.0586  0.0274
18478W        W35326   3.361  11.772  14.495 -0.0436  0.0167  0.0916
18479W        W35327  16.671   2.951   2.177  0.4690  0.1050  0.1112
18480W        W35328  13.945   3.264   5.925 -0.2625  0.2171 -0.1140
18481W        W35329  16.629   2.224   5.020  0.4730 -0.0419  0.3454
18482W        W35330   0.856  10.601   5.119 -0.3917  0.1555  0.0276
18483W        W35331  12.404   4.776   0.727  0.2908  0.2030  0.0269
18484W        W35332   4.497   4.103   3.508  0.1503  0.4530 -0.1334
18485W        W35333  15.030   9.821   4.512 -0.1837  0.6224  0.3721
18486W        W35334  17.446   8.912  14.670  0.2041  0.0657 -0.2097
18487W        W35335   3.658  12.538  14.022 -0.0450  0.1420 -0.0460
18488W        W35336  17.468   8.967   2.711  0.0535 -0.1039  0.1675
18489W        W35337   7.867  14.332   3.368 -0.2362  0.2603  0.0857
18490W        W35338   2.211  17.306   2.795 -0.2905  0.0637  0.4604
18491W        W35339   8.590   3.919   1.676 -0.1564 -0.1743 -0.1776
18492W        W35340  11.810   2.477  12.072 -0.1685 -0.2820  0.2310
18493W        W35341   7.362   0.984  12.449  0.0511  0.2932  0.0132
18494W        W35342   5.625   8.886   0.809 -0.1045  0.1366 -0.1577
18495W        W35343  13.069   5.144  12.061  0.0965 -0.0104  0.2900
18496W        W35344   1.105   7.105   4.818 -0.2874  0.0494 -0.3960
18497W        W35345  12.935  11.903  14.974  0.0962  0.2054  0.0498
18498W        W35346  13.870  16.215   4.846  0.1630 -0.1088  0.1565
18499W        W35347   7.047  13.632   1.997  0.3225  0.0263  0.3030
18500W        W35348  16.281   6.555   2.314 -0.4786 -0.1668  0.0991
18501W        W35349   4.203  12.711  16.209  0.0342  0.0655  0.0272
18502W        W35350   4.459   1.539   0.638  0.1344  0.1264 -0.1839
18503W        W35351   7.590   4.583  12.903 -0.1632 -0.0001  0.0048
18504W        W35352   2.381   4.021  15.808 -0.1442 -0.0840 -0.0319
18505W        W35353   3.879  11.234   1.227  0.0830 -0.0350 -0.0995
18506W        W35354   3.826  14.133  14.329 -0.1646  0.0220  0.1065
18507W        W35355  14.939   9.560   2.536 -0.1460 -0.1070 -0.0485
18508W        W35356   4.852   4.624  15.442  0.0654  0.0395 -0.0185
18509W        W35357  17.826   2.607  10.248  0.2360  0.3750  0.1092
18510W        W35358  12.451  11.283  16.324 -0.2460  0.3628  0.3796
18511W        W35359  16.491   8.292  11.545  0.3636  0.1202 -0.1204
18512W        W35360  13.923   1.230  10.742  0.1700 -0.1130 -0.3440
18513W        W35361  12.450   8.556   2.655  0.1787 -0.0308 -0.1142
18514W        W35362  15.331  15.389   5.122  0.2246  0.0062  0.0470
18515W        W35363  13.910   6.459  12.064 -0.2308 -0.2131 -0.2057
18516W        W35364  14.079   3.132  11.660  0.0763 -0.0688  0.0434
18517W        W35365  10.977  17.618  16.168 -0.3645 -0.0564  0.0019
18518W        W35366   5.304  17.023  13.334 -0.2430 -0.0816  0.0314
18519W        W35367  17.422   0.221  11.747  0.3033 -0.0774 -0.1486
18520W        W35368   0.514  15.560  10.588 -0.0007  0.0211  0.2256
18521W        W35369  14.037   0.083   4.767 -0.3398 -0.3119  0.0922
18522W        W35370   5.797  14.238   2.715 -0.0834  0.1906  0.0080
18523W        W35371   9.569   7.349   2.206 -0.1987 -0.2336  0.0360
18524W        W35372  17.608  17.464  11.566 -0.2153  0.4902  0.3627
18525W        W35373  15.443  12.767   3.835 -0.1462  0.0576  0.0048
18526W        W35374  12.957  12.263   0.741 -0.2977  0.0717  0.1398
18527W        W35375  12.903  15.682  13.392  0.1343  0.3077 -0.1740
18528W        W35376  12.841  15.829  14.091  0.2207  0.2161  0.3205
18529W        W35377   2.253   2.319  13.900  0.0210  0.0831  0.0621
18530W        W35378   1.344   0.159   3.312 -0.0690  0.0178 -0.3800
18531W        W35379  10.528  15.252  16.104  0.0753 -0.1685  0.0901
18532W        W35380  10.325  15.068   2.554 -0.0300 -0.1735  0.0001
18533W        W35381   2.112  17.092   0.816  0.0810  0.0420 -0.0621
18534W        W35382   6.532   6.131  13.577  0.1252  0.0693 -0.5454
18535W        W35383  15.514   2.217   4.526 -0.1094  0.0350 -0.2601
18536W        W35384   6.813  13.650   3.544 -0.1594  0.2839  0.0614
18537W        W35385  15.962   5.044  15.327  0.0884  0.0846  0.1704
18538W        W35386   2.694   6.823   3.826  0.1578 -0.1024  0.2110
18539W        W35387   5.059   7.170  14.917 -0.0967 -0.1071  0.1894
18540W        W35388  12.203  17.754   4.153  0.1260 -0.2533  0.0426
18541W        W35389  10.871   3.405  13.667 -0.0549  0.0486  0.1437
18542W        W35390  10.556  10.078   3.668 -0.0414 -0.1696 -0.0187
18543W        W35391  10.376  11.827  14.841  0.0291 -0.2332  0.1309
18544W        W35392   8.866  16.155  12.490  0.1632  0.2892 -0.1627
18545W        W35393  16.527   2.728   1.759  0.1531  0.0382 -0.3129
18546W        W35394   5.415  16.201   1.920 -0.2159 -0.0559 -0.0572
18547W        W35395   8.882   1.486  12.420 -0.0099  0.3560  0.0621
18548W        W35396   6.787  16.373  14.621  0.2604 -0.1044 -0.0552
18549W        W35397  13.607  10.459  16.104 -0.1332  0.0436  0.1023
18550W        W35398   7.434   4.039  15.708  0.1790  0.1325 -0.3519
18551W        W35399  17.645   5.953  15.564 -0.0975 -0.0064  0.1869
18552W        W35400  13.862   4.666   3.018  0.1219 -0.1875 -0.1999
18553W        W35401   9.067   7.487   2.230 -0.2614  0.1423 -0.0137
18554W        W35402  10.345  13.531   4.790  0.0297  0.0405 -0.2286
18555W        W35403   0.817   1.265  14.624  0.3648  0.1920  0.0344
18556W        W35404  15.721   2.844   3.634  0.1992 -0.0449  0.0822
18557W        W35405   6.782  11.932   1.854  0.1128  0.0971  0.4874
18558W        W35406  11.975   7.770  14.266 -0.3637  0.0254  0.1654
18559W        W35407   3.520  15.727   4.590  0.1261  0.2910 -0.1189
18560W        W35408  15.138  12.478  15.576 -0.2393 -0.0948 -0.2819
18561W        W35409   4.102   5.918   3.560 -0.1429 -0.1815 -0.1320
18562W        W35410   2.521   9.968  12.221  0.0706 -0.1639 -0.3935
18563W        W35411   1.776   0.078   2.869 -0.0827  0.0775  0.1161
18564W        W35412   7.398   6.451   3.383 -0.2195 -0.1063 -0.0356
18565W        W35413  13.353  10.316  14.481  0.1168 -0.0879 -0.1166
18566W        W35414  10.889   7.832   4.191  0.1015 -0.1552 -0.1179
18567W        W35415   1.646   0.529   2.944 -0.0477 -0.1751  0.2011
18568W        W35416  16.420  10.433   6.066 -0.2166  0.1306 -0.1048
18569W        W35417  10.130  14.012   0.230 -0.1003  0.0006  0.1791
18570W        W35418  17.474  16.917  14.236 -0.0172  0.0989 -0.0930
18571W        W35419   6.505   7.583   1.366  0.1682 -0.0984 -0.2159
18572W        W35420   2.104  14.563   3.175 -0.3226 -0.1572  0.0459
18573W        W35421  12.128   2.501   0.736 -0.1263 -0.0233 -0.0334
18574W        W35422  13.951   2.021  11.747 -0.2496 -0.0202  0.1443
18575W        W35423  16.169  10.537   4.389  0.1253 -0.1080 -0.0769
18576W        W35424   0.136  12.462  15.799  0.5663  0.0224 -0.0313
18577W        W35425   1.336  18.034  15.719  0.1189  0.1190 -0.2605
18578W        W35426   9.859  13.905  12.460 -0.1851 -0.2018 -0.0577
18579W        W35427  10.908  11.322   2.174 -0.0291  0.1806  0.1400
18580W        W35428  15.579   2.828  10.434  0.0690  0.3615  0.1103
18581W        W35429   9.093   8.717  13.963 -0.0563 -0.0244  0.0088
18582W        W35430  15.930   8.821  12.105 -0.3539 -0.3757 -0.2342
18583W        W35431   6.589   6.923  11.060  0.1862 -0.1486  0.1546
18584W        W35432   4.813   6.481  15.678  0.0620  0.4646  0.1133
18585W        W35433   5.715   4.910  14.362 -0.0712  0.0720  0.4970
18586W        W35434  13.657  16.719   3.654 -0.0513  0.0110 -0.0509
18587W        W35435   5.700  15.675   3.109  0.0330  0.0095  0.0567
18588W        W35436   4.019   5.319  12.015  0.1896 -0.4011 -0.1473
18589W        W35437   6.397   0.561   3.483  0.0520 -0.0090 -0.3335
18590W        W35438   2.032  16.744   3.631  0.2155  0.2041  0.2735
18591W        W35439   6.550   9.129   1.131  0.2122  0.0293  0.0041
18592W        W35440  15.128   8.924   4.803  0.4996  0.1460  0.0965
18593W        W35441   9.648   5.203  15.261  0.2120  0.2359  0.0629
18594W        W35442   9.913  13.815   3.892  0.3560  0.0142  0.1597
18595W        W35443  14.019   3.569   1.494  0.3447  0.1014 -0.1132
18596W        W35444   1.779   2.858  13.619 -0.0191  0.0729 -0.3318
18597W        W35445   3.203  11.365  10.922 -0.1713  0.2669 -0.2055
18598W        W35446  12.432   6.801  12.974  0.0702  0.1258 -0.4314
18599W        W35447  13.307  15.084  15.620 -0.0017  0.0021  0.1515
18600W        W35448   7.174   5.140  12.881 -0.0640  0.0889 -0.3679
18601W        W35449  16.717   8.254   1.218 -0.1489  0.2850  0.1790
18602W        W35450  15.095  13.075   4.082 -0.1824 -0.1552  0.0423
18603W        W35451   6.851  10.058  15.594  0.1918  0.2127  0.1345
18604W        W35452   3.975   6.694  15.600 -0.1597  0.1202 -0.2558
18605W        W35453   5.174  17.711   1.357 -0.1658  0.1814 -0.0026
18606W        W35454   4.267   5.275  14.475  0.0616 -0.1157 -0.0609
18607W        W35455  12.751   7.958  16.276  0.1388 -0.0444 -0.0950
18608W        W35456  12.958  12.170  11.569  0.1373 -0.0595 -0.1034
18609W        W35457   0.055  11.710   4.456 -0.0674  0.0901  0.0247
18610W        W35458   7.163   2.864  15.120 -0.2302  0.0813 -0.0809
18611W        W35459   4.985  17.057   2.377 -0.1439 -0.2001 -0.0745
18612W        W35460   4.821   3.615   2.482 -0.1119  0.1438 -0.0808
18613W        W35461   7.466  10.251  13.962  0.0555  0.0035 -0.1553
18614W        W35462   8.109  15.056  11.201 -0.1811  0.3452  0.2475
18615W        W35463   3.182   9.264   4.390 -0.1418  0.0537 -0.0945
18616W        W35464   2.635  11.231  11.757  0.0732 -0.0490  0.1400
18617W        W35465   6.158   0.642  13.982 -0.0147 -0.0648 -0.3011
18618W        W35466   8.258   1.753   4.807 -0.1211  0.4632 -0.2928
18619W        W35467   8.341   5.597  12.203  0.3602 -0.0110 -0.0255
18620W        W35468   1.001   9.693   3.262 -0.1197 -0.1815  0.3374
18621W        W35469   0.056   4.514   1.732  0.2482  0.1474  0.0748
18622W        W35470  15.534   9.890  14.222  0.2507  0.2423 -0.2565
18623W        W35471  15.655   7.874  15.673  0.0360  0.0666  0.0557
18624W        W35472   9.579   7.504   2.691 -0.1091  0.1624  0.0069
18625W        W35473   3.359  17.560   1.991 -0.1541  0.1319 -0.1440
18626W        W35474  13.203  16.316   0.569 -0.3097 -0.1090 -0.0637
18627W        W35475   5.632   1.296  12.136 -0.2256  0.2050  0.1225
18628W        W35476   0.193  12.653  10.896  0.1321 -0.1736 -0.2474
18629W        W35477   3.426  17.645  11.887 -0.0966  0.1416 -0.0689
18630W        W35478  13.363  17.450  15.988 -0.2064 -0.0502  0.0470
18631W        W35479  17.555   2.081  11.145 -0.0743  0.1200  0.2140
18632W        W35480  11.201  15.229  13.516  0.1201  0.4045  0.1743
18633W        W35481   7.360  16.536  15.431 -0.2140 -0.0962 -0.0332
18634W        W35482   7.511  15.554   2.682  0.2030  0.1459  0.0425
18635W        W35483  10.991   9.051  15.194 -0.2168 -0.0095 -0.2677
18636W        W35484   8.251  12.529  13.297  0.2194  0.0215 -0.0391
18637W        W35485  15.598   1.255  15.521  0.0182  0.2316 -0.2343
18638W        W35486  15.043   7.639   5.054 -0.1081 -0.1463 -0.2385
18639W        W35487   3.946  10.561  13.661 -0.1827  0.1590  0.0383
18640W        W35488  15.320  16.822  12.330 -0.1865  0.0097 -0.0450
18641W        W35489   1.149  14.763  10.972 -0.2517 -0.1023 -0.0170
18642W        W35490   4.622  11.555   0.980 -0.2161 -0.0031  0.4601
18643W        W35491  11.358  10.162   1.678 -0.2318  0.1927  0.2663
18644W        W35492   5.226   5.769  12.801  0.0964  0.1136 -0.2024
18645W        W35493  10.290   0.180   5.750 -0.1284 -0.1202  0.1016
18646W        W35494   5.832  10.331   2.733  0.1721 -0.2162 -0.2994
18647W        W35495   1.021   6.458   3.762  0.1067  0.1388 -0.0825
18648W        W35496   0.890   1.566  11.446 -0.0066  0.2910 -0.1739
18649W        W35497  10.613   3.138   5.000  0.1327 -0.3026 -0.1365
18650W        W35498   9.122   2.466   2.632  0.2044 -0.3966 -0.1469
18651W        W35499   9.253   2.052  15.521 -0.2146 -0.0377 -0.1834
18652W        W35500  12.522  12.404  11.559 -0.0378 -0.1008  0.1278
18653W        W35501  12.058   2.574   4.398  0.2981 -0.0404 -0.2381
18654W        W35502   7.538  13.511   3.321 -0.0451  0.0555 -0.0195
18655W        W35503   3.358   6.453   4.360 -0.1967  0.2562 -0.0098
18656W        W35504   2.922   7.393   5.023  0.1746 -0.0767 -0.0604
18657W        W35505   8.405  16.250  13.852 -0.3377 -0.0817 -0.0846
18658W        W35506  16.087   3.223  14.111 -0.2871 -0.1672  0.0768
18659W        W35507  16.557  15.818  16.219 -0.0835  0.1349  0.0534
18660W        W35508  15.384   6.496  14.791 -0.0941 -0.5226  0.1241
18661W        W35509   0.348  12.422  14.277 -0.0184  0.2484 -0.0084
18662W        W35510   1.339   2.678  13.186 -0.2301  0.0105 -0.0704
18663W        W35511   9.396   3.982   0.878  0.1743  0.0531  0.2030
18664W        W35512  11.100   4.447   4.999  0.0324 -0.0982 -0.1272
18665W        W35513   3.628  13.531   4.548 -0.1142 -0.1252 -0.1140
18666W        W35514   4.578   5.155   1.402  0.1289  0.2148 -0.0721
18667W        W35515   6.046  17.340  13.820 -0.0887 -0.3025 -0.0094
18668W        W35516  15.019   4.371   5.047  0.0593  0.0438 -0.1064
18669W        W35517  14.421   1.559   0.796 -0.0482 -0.0112 -0.2688
18670W        W35518   7.214  15.538  13.922 -0.0073  0.0320  0.1308
18671W        W35519   7.503   9.503   5.784  0.0678  0.0947  0.1449
18672W        W35520  12.711   0.008  15.935 -0.0179 -0.2014  0.0167
18673W        W35521   4.774   4.816   4.915  0.3013 -0.2274  0.1224
18674W        W35522   0.224   8.211   4.146 -0.1501  0.5330  0.0125
18675W        W35523   9.586   9.017   2.089 -0.3010  0.0310 -0.1123
18676W        W35524  13.693   6.704   1.745  0.0250 -0.0363 -0.0222
18677W        W35525   0.416  18.032   0.474 -0.3158 -0.1646 -0.0478
18678W        W35526  17.241   3.291  12.605  0.0301  0.2066  0.0015
18679W        W35527  13.927   7.381   1.905  0.0181  0.0661  0.2894
18680W        W35528  16.242   2.550  15.606 -0.3392  0.0923  0.1211
18681W        W35529   8.788  13.491   3.046  0.1137  0.0491  0.1244
18682W        W35530  12.137   1.839  13.903 -0.1950  0.1476 -0.0926
18683W        W35531  13.427   4.457   3.353  0.0108  0.2755 -0.1697
18684W        W35532   3.465   9.076   3.444 -0.0537  0.0824 -0.0275
18685W        W35533   0.948  11.593   0.222  0.0312 -0.3568 -0.0684
18686W        W35534   8.475   2.816  13.478 -0.3303  0.1652 -0.1065
18687W        W35535   0.253   6.837  15.814  0.1451  0.2736  0.1350
18688W        W35536   3.529   5.050  15.455  0.2286 -0.1277 -0.1240
18689W        W35537   0.906  13.155   2.922 -0.2967  0.0377  0.1484
18690W        W35538  12.769   6.027   1.289 -0.1586 -0.2866  0.0905
18691W        W35539   3.710   8.279   2.997 -0.1840  0.0682  0.0967
18692W        W35540   6.303   0.789   0.639 -0.2700  0.1598 -0.0214
18693W        W35541   7.975  17.095  11.372  0.0100  0.0305 -0.1054
18694W        W35542   1.311   4.085  11.225  0.1976 -0.1283  0.3402
18695W        W35543  12.937   5.099   4.492  0.1965 -0.0851  0.1392
18696W        W35544   9.104  14.687  15.732 -0.1019 -0.3283  0.1567
18697W        W35545   3.896   9.443  14.555 -0.0193  0.1073  0.3632
18698W        W35546  14.400  12.814  16.195 -0.0356 -0.2137 -0.1644
18699W        W35547  11.465   2.936   4.781  0.1438 -0.1483 -0.2627
18700W        W35548   7.196  10.475   5.754 -0.1015  0.1392  0.3189
18701W        W35549   2.609  13.123  13.013 -0.0910 -0.2349 -0.3871
18702W        W35550   8.358  16.344  15.159 -0.4463 -0.0474  0.0548
18703W        W35551  16.969  12.614   2.005 -0.0832 -0.3130 -0.0011
18704W        W35552   3.595  15.666   1.414 -0.0627  0.0689  0.1164
18705W        W35553   8.568   4.474   4.874  0.1401 -0.0317 -0.0504
18706W        W35554  10.022  18.004  13.772  0.1880  0.0553  0.1953
18707W        W35555   5.080  10.167   0.071  0.1755 -0.3227  0.2018
18708W        W35556  16.995  10.681   2.691 -0.1229 -0.0058 -0.1405
18709W        W35557   7.139   0.609  12.864  0.0397  0.0899 -0.1854
18710W        W35558  16.468   6.478  13.411  0.0499 -0.2907  0.4154
18711W        W35559  16.371  12.083   4.098  0.1777 -0.0714  0.2936
18712W        W35560   8.084   4.275   2.497 -0.0161 -0.0271 -0.5251
18713W        W35561   0.318   3.017   2.658  0.4540 -0.1143 -0.0675
18714W        W35562  17.437  12.841  13.357  0.2644 -0.1479 -0.0670
18715W        W35563  10.707   3.123  12.125  0.0037  0.0532 -0.0744
18716W        W35564   8.049  18.073   1.842 -0.3397  0.0259 -0.1708
18717W        W35565  12.634   8.082   5.083  0.0441 -0.0264 -0.3662
18718W        W35566   2.943   9.826  15.244 -0.1150  0.0933  0.0365
18719W        W35567   6.803   3.150   0.222  0.1729  0.1532  0.1706
18720W        W35568   1.137  11.344   0.595 -0.0914  0.0716 -0.2779
18721W        W35569   5.269  17.365   3.704  0.4374  0.1492 -0.0481
18722W        W35570   2.819   8.880  16.091 -0.2833 -0.0780 -0.0822
18723W        W35571  16.260   9.361  10.881 -0.0112  0.2583  0.3332
18724W        W35572   2.156   1.069   1.553  0.2955  0.0200  0.1130
18725W        W35573   9.007   1.836   4.521  0.1587 -0.1449 -0.2147
18726W        W35574   5.068   3.402   4.781  0.4129  0.0675 -0.1745
18727W        W35575   0.907  14.568  11.574 -0.4519 -0.2564  0.0858
18728W        W35576   1.822  12.455   2.947 -0.0868 -0.4629 -0.1252
18729W        W35577  16.390   0.411   3.439  0.1340  0.0610  0.1345
18730W        W35578   2.331   3.960  14.640 -0.2054 -0.0549 -0.2366
18731W        W35579   0.619   1.203  13.090  0.0098 -0.1621 -0.0144
18732W        W35580   9.233  12.856  14.326  0.2827 -0.0161 -0.2863
18733W        W35581  10.098   1.747  11.259 -0.0590 -0.0133  0.1067
18734W        W35582  15.680  17.186  15.118 -0.1242 -0.0629 -0.5209
18735W        W35583   6.804   2.925   2.016 -0.3728  0.1309  0.0609
18736W        W35584  14.498   2.604  13.660 -0.3957  0.0231 -0.1534
18737W        W35585   0.876   9.522   0.819 -0.0424 -0.1429 -0.0839
18738W        W35586  13.937   3.382   3.904  0.1787 -0.2567  0.3039
18739W        W35587  18.020   0.669   1.717  0.1286 -0.1640  0.2856
18740W        W35588   6.365  12.498  11.190 -0.0086  0.1309  0.1123
18741W        W35589   3.500   3.231  13.836 -0.1703 -0.1404  0.1525
18742W        W35590   0.771   5.494  14.490 -0.0925  0.0049 -0.0700
18743W        W35591   9.923   5.840   3.769 -0.0451  0.0981 -0.3934
18744W        W35592  15.534  13.930   3.921  0.0700 -0.2023  0.1058
18745W        W35593  11.847  16.404  10.643 -0.3938 -0.0640  0.3437
18746W        W35594  13.363   2.544   3.844  0.3850  0.0314 -0.3475
18747W        W35595   7.713  12.799   1.178  0.1231  0.0942 -0.3025
18748W        W35596  14.354   6.023   2.546 -0.1435  0.0610 -0.2110
18749W        W35597  17.359   6.390   1.198  0.0193  0.2873  0.2476
18750W        W35598   3.142   9.443   4.840 -0.0088  0.1128 -0.0402
18751W        W35599  14.175  11.912  10.451 -0.1122 -0.0129 -0.0802
18752W        W35600  14.389  15.603  16.270  0.1664 -0.0070 -0.2512
18753W        W35601   1.087   5.203   2.847 -0.0420  0.1249  0.0012
18754W        W35602  12.771   8.203  14.264 -0.1984  0.0186  0.0538
18755W        W35603  16.726  15.090   5.112 -0.0356 -0.1984  0.1623
18756W        W35604  16.516  17.926  14.032  0.2472 -0.0957 -0.0512
18757W        W35605  18.020  11.285   6.128 -0.1795 -0.2142  0.2075
18758W        W35606  14.642   5.001   2.431  0.0348 -0.0916 -0.2316
18759W        W35607   3.021   7.720   3.003 -0.1668 -0.0903  0.4093
18760W        W35608  15.607   7.911  11.851  0.2729  0.1347 -0.3773
18761W        W35609  11.759   8.167  13.945 -0.3698 -0.0385  0.3178
18762W        W35610   9.144   7.975  13.833  0.0558  0.2338 -0.1365
18763W        W35611   2.629  10.203  15.899  0.3453 -0.3224 -0.0084
18764W        W35612  10.489   6.624  11.620 -0.1510 -0.2239 -0.1277
18765W        W35613   2.596   2.998   1.151 -0.1162 -0.0601 -0.3569
18766W        W35614   9.015   2.325   1.406  0.1395  0.0555  0.0775
18767W        W35615   5.538  14.644   5.116 -0.0558 -0.4308  0.1195
18768W        W35616   8.176   8.173   2.487 -0.2189  0.0255  0.0181
18769W        W35617  10.036  15.449  12.850  0.1046  0.0399  0.1118
18770W        W35618   3.622  10.303   2.626  0.3181 -0.1734  0.1556
18771W        W35619  13.760  13.098   3.891 -0.0465  0.1933 -0.0732
18772W        W35620  10.747   4.340   2.877 -0.1164 -0.0694  0.3575
18773W        W35621   0.828  14.116   0.331 -0.2970 -0.0359  0.0574
18774W        W35622   4.661   0.881  12.170 -0.0149  0.0355  0.1406
18775W        W35623   4.973  17.749   4.042 -0.2310  0.1566  0.3287
18776W        W35624   1.582  10.364   3.555 -0.3070  0.1947 -0.2234
18777W        W35625   6.250   0.716  11.746  0.2582 -0.1180 -0.2363
18778W        W35626   0.004   5.185   2.617 -0.0375  0.1943 -0.4570
18779W        W35627   9.199  13.769   6.153 -0.0943  0.0671  0.1586
18780W        W35628   6.259  13.565   3.412  0.0504  0.0198 -0.2582
18781W        W35629   7.344   7.186  14.184  0.0090 -0.0162  0.1393
18782W        W35630   1.656  15.362  13.590 -0.0291  0.1332  0.1150
18783W        W35631   0.245  13.600   3.370  0.1360 -0.3071  0.1427
18784W        W35632  11.850  14.621   0.796 -0.0152 -0.1304  0.0646
18785W        W35633   4.464   0.132   4.888 -0.3334  0.3222 -0.2392
18786W        W35634   4.224  17.211  14.258 -0.1032  0.2366 -0.1152
18787W        W35635  16.121   3.934  16.060 -0.0003 -0.3003  0.3279
18788W        W35636   6.096  15.582  14.853 -0.0337 -0.2512 -0.2183
18789W        W35637   9.410   0.780  15.378  0.0128  0.0333  0.0893
18790W        W35638   7.525  15.782  15.942  0.2274  0.2046  0.0549
18791W        W35639  11.061   4.185   2.067 -0.3464 -0.3101  0.1031
18792W        W35640   4.164   3.762  15.352  0.0742  0.2779  0.0385
18793W        W35641  15.131   9.072   1.831 -0.1751  0.1524 -0.1750
18794W        W35642   4.657  10.463  10.702  0.1456 -0.0637 -0.0027
18795W        W35643  17.150  15.268  12.061 -0.1764 -0.3671  0.0579
18796W        W35644  11.615   0.059   0.981 -0.1288 -0.2806 -0.4664
18797W        W35645  17.371   1.847   4.415 -0.2935 -0.2147  0.0696
18798W        W35646   1.049   0.272   1.828 -0.3689  0.0032  0.2729
18799W        W35647   6.573  15.400   4.159 -0.0759 -0.2278 -0.1114
18800W        W35648   6.476  15.371  13.948 -0.1144  0.2390 -0.4321
18801W        W35649   8.005  15.482   0.861 -0.2491  0.0378  0.0177
18802W        W35650   4.338   5.500  10.378 -0.0533  0.0496  0.3905
18803W        W35651  10.611   8.153  11.376  0.0565 -0.0853 -0.0813
18804W        W35652  13.743   4.601  14.658  0.1380  0.0087  0.1251
18805W        W35653  12.685   5.675  14.194 -0.1448 -0.0609 -0.0162
18806W        W35654   7.639   0.979  15.130  0.0904 -0.1405  0.0379
18807W        W35655  10.400  16.035   2.623  0.2410  0.1534 -0.0495
18808W        W35656  16.006  12.152  11.644  0.0291 -0.1161  0.1042
18809W        W35657   7.067   6.094  12.601  0.0744  0.2174  0.1269
18810W        W35658  11.086   1.223  11.873  0.0640 -0.1140 -0.1809
18811W        W35659   9.372   9.998   1.869  0.0652 -0.2689  0.0820
18812W        W35660  15.129   9.015   1.287 -0.0329 -0.0312  0.2231
18813W        W35661   7.656   7.787   1.241  0.0824  0.1811 -0.2857
18814W        W35662   0.653  11.427   3.029 -0.0748 -0.1793  0.3624
18815W        W35663   8.302  15.118   3.812  0.0366 -0.1182  0.0291
18816W        W35664  13.418   9.905   2.179  0.0245  0.1958  0.0575
18817W        W35665   9.424   6.074   2.289  0.2715  0.1560 -0.1784
18818W        W35666   6.718  17.665  16.099 -0.1735  0.3480 -0.1445
18819W        W35667   9.373  17.857   4.945  0.3116 -0.0687  0.0544
18820W        W35668   5.355  15.070  12.634  0.1062  0.0490  0.0469
18821W        W35669   6.152   9.552   0.213 -0.0865 -0.2913 -0.1548
18822W        W35670  10.228  11.724   1.753  0.1185 -0.1113  0.3968
18823W        W35671   9.876  17.229   1.798  0.0604  0.1294 -0.2266
18824W        W35672  16.232   7.559   1.947  0.2281 -0.1327 -0.3715
18825W        W35673  10.088   9.618   0.139  0.0414 -0.0343 -0.1839
18826W        W35674   6.298  14.800   2.963  0.0961  0.0070  0.2390
18827W        W35675   3.315  17.312  15.663 -0.1385 -0.0492  0.1787
18828W        W35676   1.621  15.936  14.381  0.2180 -0.1374  0.0688
18829W        W35677  13.611  17.399   1.606 -0.0105  0.4721 -0.0142
18830W        W35678  16.282  16.754   0.320  0.4650  0.2925 -0.2024
18831W        W35679   0.819   2.323  14.036  0.2661 -0.0661  0.2683
18832W        W35680  12.905   5.950   3.306 -0.3575 -0.0258 -0.0845
18833W        W35681  12.023   1.982  11.354 -0.0413  0.0157  0.1298
18834W        W35682  12.531  15.062   3.376  0.0603  0.0395 -0.2882
18835W        W35683  14.970   0.664   3.917 -0.0378  0.1733 -0.1587
18836W        W35684  10.429  13.990   3.399 -0.0070  0.0773  0.2051
18837W        W35685  14.162  10.209   1.546  0.1431 -0.4343  0.1451
18838W        W35686  12.321   0.806  15.581  0.1663 -0.0188 -0.3843
18839W        W35687  17.528   4.741   1.365  0.1734 -0.2100 -0.3265
18840W        W35688   5.876   7.041   2.954 -0.0110  0.1188  0.1753
18841W        W35689  12.493  13.288  12.760  0.0769  0.0334 -0.1825
18842W        W35690  14.153  17.652   5.538 -0.2694  0.1726 -0.0199
18843W        W35691   7.439   9.503  13.117 -0.1118  0.0700 -0.3338
18844W        W35692  13.883  14.562  12.555 -0.0713  0.0778  0.0399
18845W        W35693   8.959  11.830   1.189  0.0356 -0.2888  0.0230
18846W        W35694   9.024   0.806  14.137 -0.0023  0.0245 -0.1518
18847W        W35695   3.747   1.928  16.194  0.0679  0.0703  0.4841
18848W        W35696  17.724   7.172  14.499 -0.0257  0.2236  0.1433
18849W        W35697   9.680  16.415  13.002  0.1012 -0.0282  0.1192
18850W        W35698  13.593   1.551  13.542 -0.0856  0.0690  0.0572
18851W        W35699   3.480   5.209  11.723 -0.0464  0.1855 -0.1606
18852W        W35700   1.163   3.272   2.958 -0.1913  0.2481 -0.1739
18853W        W35701  13.766   1.901   2.202 -0.1496 -0.3277 -0.2392
18854W        W35702  11.846  11.165  14.706  0.2259  0.0721  0.1746
18855W        W35703   0.426  16.438  13.874  0.0433  0.1656 -0.1149
18856W        W35704  15.718  17.814   2.254 -0.1459 -0.1930 -0.2356
18857W        W35705  17.281   2.384  13.190  0.0168 -0.4377 -0.2103
18858W        W35706   3.643   7.716   1.280 -0.2504  0.0725  0.0464
18859W        W35707   0.484  10.700  14.281 -0.4875 -0.2929 -0.0199
18860W        W35708   7.652  13.591   2.882 -0.2619 -0.0313  0.0904
18861W        W35709  10.935   1.645  12.550  0.2128 -0.1515  0.0548
18862W        W35710  15.270   8.530  12.789 -0.0699  0.1527 -0.2614
18863W        W35711   1.578   7.926  14.096  0.4511  0.0033  0.4372
18864W        W35712  15.562  11.954   4.861  0.0466 -0.0886  0.1028
18865W        W35713   0.132   9.262   1.103  0.3153 -0.0463  0.1615
18866W        W35714   2.116  11.930   4.158 -0.0736 -0.0633  0.1783
18867W        W35715   1.743   3.170  11.514  0.2007 -0.0868  0.3359
18868W        W35716  11.753   9.220  10.658  0.1926  0.3736  0.2196
18869W        W35717   2.399  12.329  15.652 -0.1261 -0.1952  0.1636
18870W        W35718   8.512  14.183  14.707 -0.1203  0.0682 -0.1056
18871W        W35719  16.770  11.506   1.361 -0.1206 -0.0475  0.3538
18872W        W35720   1.873   9.753  11.953  0.1575 -0.1032 -0.0299
18873W        W35721  10.131   7.391   1.930  0.0033  0.2076 -0.2043
18874W        W35722  18.023   6.938   5.843 -0.0352 -0.1476  0.1629
18875W        W35723  12.398   5.078  16.007 -0.1452 -0.1519  0.2025
18876W        W35724  14.331  14.117  13.253 -0.2151 -0.3884 -0.0228
18877W        W35725  12.024  15.848  13.278  0.0667 -0.1901 -0.1807
18878W        W35726   3.033  17.906  13.715 -0.1476 -0.3926  0.1650
18879W        W35727  14.474   0.637   0.452 -0.0661  0.3922 -0.1769
18880W        W35728   8.370   6.874  11.268  0.2632  0.0292 -0.0891
18881W        W35729  16.982   0.523  11.577  0.1866 -0.0859 -0.3068
18882W        W35730  15.035   5.526   0.696 -0.4764 -0.0914 -0.0090
18883W        W35731   6.121   4.117  11.387  0.0189 -0.0079  0.1207
18884W        W35732  14.926  13.859   1.246  0.0523 -0.2615 -0.0493
18885W        W35733   3.667  11.736   4.932  0.0185  0.0518 -0.0447
18886W        W35734   5.376   2.569   3.566  0.3708 -0.0347 -0.1824
18887W        W35735  11.662  14.892   2.209 -0.0999 -0.1269  0.3228
18888W        W35736   1.605   7.003   5.111  0.0526  0.0448  0.0743
18889W        W35737   4.213   1.772   0.094  0.0138 -0.2009  0.2445
18890W        W35738   8.459   2.019  15.677  0.0141 -0.2586 -0.2094
18891W        W35739   3.841  11.376  11.996 -0.0251  0.1813  0.1380
18892W        W35740   5.457   9.398  12.242  0.1952 -0.1694  0.0642
18893W        W35741  17.748   6.249  14.582 -0.1163  0.1493  0.2758
18894W        W35742  16.999  13.360  15.798  0.2811 -0.2735 -0.0953
18895W        W35743  14.142  17.701   4.764  0.2465  0.2115  0.3254
18896W        W35744  16.318   0.865   3.587  0.0733 -0.0840 -0.0635
18897W        W35745   2.318   9.155  15.477 -0.1450  0.2413  0.0119
18898W        W35746   9.807  11.587   2.303 -0.0628  0.1937 -0.1634
18899W        W35747  11.208  10.820   1.599  0.0334  0.3645 -0.0912
18900W        W35748  14.849   5.426  15.262 -0.1709 -0.0088 -0.1930
18901W        W35749   3.172  11.996   1.178 -0.0373  0.0865  0.3722
18902W        W35750  12.166  11.381   2.613  0.0054 -0.0505  0.1602
18903W        W35751  10.414   5.294  16.016 -0.2018  0.3191 -0.1019
18904W        W35752   7.691   6.211   3.874  0.1215  0.1359  0.1489
18905W        W35753  12.253  11.818  11.915 -0.2137 -0.0258  0.1454
18906W        W35754   8.232  13.591  13.067  0.0317 -0.0739  0.2967
18907W        W35755  11.972  15.691  13.770  0.1516 -0.3999 -0.3368
18908W        W35756  12.993  12.458  15.738  0.0725 -0.1739  0.0588
18909W        W35757  15.867  11.224   3.056 -0.1687  0.2287 -0.0803
18910W        W35758  13.562  10.382   0.901  0.2204 -0.0701 -0.2202
18911W        W35759   8.098   7.385  14.864  0.0701 -0.3395 -0.1094
18912W        W35760   3.940   5.959  14.369 -0.2887 -0.3227  0.1089
18913W        W35761   9.634   4.169  14.641  0.1103 -0.1582  0.0236
18914W        W35762   7.497  17.551   4.884 -0.1332 -0.2828 -0.2326
18915W        W35763  13.885   6.477  13.758  0.1100 -0.2245 -0.0043
18916W        W35764  12.805  15.493  11.228 -0.0414  0.2951 -0.0363
18917W        W35765  13.613  11.922  11.091  0.1865  0.0497  0.0695
18918W        W35766   7.241   0.248   0.487 -0.3305  0.0359  0.2066
18919W        W35767   8.115  15.704   0.354  0.1656 -0.0304  0.3080
18920W        W35768  10.885   8.901   1.556 -0.2538 -0.0659  0.2300
18921W        W35769  16.876   1.336   1.801 -0.3851  0.0680 -0.1925
18922W        W35770   5.230  11.679  14.763  0.0434  0.1293 -0.0408
18923W        W35771  11.285  12.713   2.958  0.2051  0.0070 -0.0288
18924W        W35772   0.791  10.419   0.477  0.0783 -0.2704  0.0927
18925W        W35773   3.757   1.791  15.669  0.1015 -0.1917 -0.1370
18926W        W35774  17.350  14.788   3.474  0.1418 -0.3342  0.0897
18927W        W35775   3.335  17.862   5.422  0.1313  0.3699  0.2358
18928W        W35776  17.771   1.646  16.244  0.1030  0.0515  0.3254
18929W        W35777   3.301   1.995  16.334 -0.2558 -0.1438  0.0108
18930W        W35778   3.471   1.282   2.816 -0.1143  0.0035 -0.0359
18931W        W35779  11.293   4.998  11.180 -0.1523 -0.0719 -0.1792
18932W        W35780  11.349  16.457   0.793  0.3249 -0.1073 -0.1975
18933W        W35781  13.634   4.161  14.446 -0.0509  0.0432 -0.0840
18934W        W35782   0.550  15.795  12.896 -0.1500  0.0225 -0.4171
18935W        W35783   9.951   3.611  15.998  0.1828  0.2518  0.2370
18936W        W35784   4.054  10.769  13.191 -0.1219 -0.0698 -0.1182
18937W        W35785   9.899  17.738  15.259  0.2106 -0.0376 -0.2308
18938W        W35786   2.241   7.632   2.612 -0.0009  0.1613  0.4722
18939W        W35787   0.169   3.285  15.972  0.0283 -0.0438  0.0534
18940W        W35788   5.728   5.418  14.278  0.1693 -0.1940  0.0530
18941W        W35789  11.909   9.341  14.148 -0.1094 -0.0427  0.1116
18942W        W35790   4.241   0.791   3.993  0.2793 -0.0195  0.0330
18943W        W35791  17.201  14.993   2.446 -0.0895  0.0577  0.0988
18944W        W35792   6.529  13.931   3.169 -0.2101 -0.1931 -0.0293
18945W        W35793  16.820   3.993  13.129  0.1770 -0.1033 -0.0564
18946W        W35794  11.908   9.578  11.495  0.2237 -0.1578  0.4717
18947W        W35795  12.491  16.622  12.551 -0.0352  0.1044  0.0839
18948W        W35796  10.600   6.605   4.693  0.0354 -0.4567  0.1027
18949W        W35797   7.597   5.936   2.049 -0.0349 -0.2755  0.0330
18950W        W35798  13.240   1.747   0.621 -0.0889  0.4315 -0.1414
18951W        W35799  12.050  15.834   5.391 -0.2964  0.3215 -0.3231
18952W        W35800   9.920   2.095   0.216 -0.0134 -0.0607  0.0008
18953W        W35801   3.144   8.844   0.989  0.1767  0.0002 -0.3801
18954W        W35802  14.328   9.329  14.687 -0.1792  0.5495  0.0483
18955W        W35803   4.530  16.178   1.880  0.2133 -0.0550 -0.0793
18956W        W35804   7.819   2.199   4.079  0.0017  0.2884  0.0956
18957W        W35805  16.246   7.833   2.962 -0.2732  0.2246 -0.2467
18958W        W35806   4.681   9.053  14.227 -0.0042 -0.3767  0.0419
18959W        W35807   2.672  17.027   4.060 -0.0702  0.0915  0.3109
18960W        W35808   5.803   2.741   3.018  0.0612  0.0674 -0.3888
18961W        W35809  11.938   1.992   0.564 -0.0381  0.0395 -0.1976
18962W        W35810  10.828   2.984   4.182  0.0636 -0.0322 -0.1114
18963W        W35811   6.061   8.908  10.558 -0.0163  0.2972  0.1485
18964W        W35812   6.640   5.659   2.282  0.1428  0.0944 -0.0506
18965W        W35813  10.456  17.139   4.329  0.1082  0.3052  0.2874
18966W        W35814   6.440   2.029   4.700 -0.1916  0.3025 -0.3098
18967W        W35815  10.367  16.135  15.256 -0.1170  0.1490 -0.2198
18968W        W35816   0.326  12.989  15.876  0.1641  0.0011 -0.1743
18969W        W35817   4.051  14.721   2.826 -0.0211  0.0397  0.1366
18970W        W35818  13.486   2.150   0.377 -0.1973 -0.2121  0.0002
18971W        W35819  17.194   7.947   3.213 -0.0011 -0.2773  0.2549
18972W        W35820   8.619  11.976  11.778  0.1523 -0.1275 -0.2701
18973W        W35821  12.680   5.138   1.632  0.3016 -0.2651 -0.1154
18974W        W35822   2.456   6.627  11.829 -0.1783  0.0634 -0.0727
18975W        W35823   0.407  14.697   0.356 -0.2129 -0.1620  0.0740
18976W        W35824   5.781   1.049  16.119  0.3020 -0.2772 -0.0117
18977W        W35825  10.348   9.497  13.652 -0.2470  0.3606  0.1049
18978W        W35826   8.912  14.111   3.023 -0.1215  0.0632  0.4164
18979W        W35827  11.739   8.504  15.741  0.4230 -0.0739 -0.2432
18980W        W35828   6.540   2.682  11.089  0.1584 -0.0397  0.2215
18981W        W35829  14.786   7.205   4.879 -0.2226  0.0287  0.1563
18982W        W35830   5.138   7.972  14.215  0.0562  0.1797  0.3770
18983W        W35831   2.222  12.188   2.834 -0.4823  0.1607  0.1088
18984W        W35832   2.663   8.084   5.082 -0.2253  0.3708 -0.2462
18985W        W35833  16.188  17.429   1.355 -0.0942  0.3128 -0.2390
18986W        W35834  12.112  15.816   2.066 -0.2953 -0.1296 -0.0804
18987W        W35835  17.135  10.686   3.686 -0.3353 -0.1325  0.1524
18988W        W35836  11.342   8.718  11.702 -0.1477  0.1938 -0.0748
18989W        W35837   0.507   3.860  14.269 -0.1461  0.0999 -0.1621
18990W        W35838   3.581  10.767   4.478  0.2383 -0.0477 -0.3754
18991W        W35839   6.381   3.114  10.355 -0.1710  0.2170 -0.0339
18992W        W35840   4.515  15.194  13.763  0.0658  0.5580 -0.1385
18993W        W35841  15.430  15.805  10.863  0.2697  0.0456 -0.0113
18994W        W35842  10.782  10.906   2.437  0.1113 -0.1780 -0.0288
18995W        W35843  15.680  17.819   6.111 -0.0022 -0.2328  0.1467
18996W        W35844  10.233  16.981  15.644 -0.1965 -0.3208  0.0736
18997W        W35845  10.013   7.585   0.504  0.3026  0.0632  0.1058
18998W        W35846   7.439  12.509  11.270 -0.2653  0.2702  0.1643
18999W        W35847  12.824   2.829   1.499  0.1069  0.0226  0.1229
19000W        W35848   2.732  13.956   1.528 -0.1092 -0.0643 -0.0817
19001W        W35849  18.034  11.334  15.253 -0.2003 -0.0829 -0.1606
19002W        W35850  10.675  17.116  14.925 -0.0309  0.3172 -0.2430
19003W        W35851   6.908  16.464   5.209  0.2066 -0.1983 -0.0866
19004W        W35852  13.930   9.554   0.749  0.0965  0.0655  0.3274
19005W        W35853   3.727   7.552  11.894  0.1890 -0.0121 -0.0904
19006W        W35854  17.486  10.248  14.336 -0.1813 -0.0412 -0.1816
19007W        W35855  11.253   8.493   2.444  0.2964  0.1557  0.2553
19008W        W35856  11.797   3.233  13.752 -0.1260  0.2736 -0.2138
19009W        W35857   0.083  15.490  12.945 -0.1666 -0.0369 -0.0925
19010W        W35858   4.749  17.305  12.664 -0.2939 -0.0897  0.0377
19011W        W35859  15.929   1.338  14.583  0.0983 -0.3453 -0.2145
19012W        W35860   5.174   6.188   1.946 -0.1377 -0.0127 -0.2166
19013W        W35861   5.890  16.325  15.993  0.0195  0.2047 -0.2124
19014W        W35862   4.431   0.041  13.969 -0.0739  0.1119  0.0831
19015W        W35863   2.660   3.798  11.216 -0.1838  0.1350 -0.0406
19016W        W35864  12.975   3.834   0.855 -0.3909  0.1210  0.0667
19017W        W35865  16.338  14.437   2.027  0.1433 -0.1478 -0.0014
19018W        W35866   8.626   8.504  15.107  0.0595 -0.1332 -0.4754
19019W        W35867  13.917  12.127  15.041 -0.1684  0.3015 -0.0075
19020W        W35868   9.276  10.357  11.313 -0.2422 -0.1395  0.2043
19021W        W35869  15.649   9.129   1.178 -0.3575 -0.0055  0.3346
19022W        W35870   7.612   5.473  12.781  0.4329 -0.0575 -0.1523
19023W        W35871  12.117   5.413   5.577  0.0497  0.2347  0.1610
19024W        W35872   8.757   3.265   0.530  0.2264 -0.0466 -0.1822
19025W        W35873  16.388   5.945   0.167  0.0551  0.3617  0.0941
19026W        W35874   7.058   2.873  16.210  0.1801 -0.1970 -0.1208
19027W        W35875  17.440   3.701  11.953  0.0637 -0.0397  0.1788
19028W        W35876  11.367  11.689   1.510 -0.0758  0.0748  0.2752
19029W        W35877  14.809   0.809   1.248  0.0783 -0.0457 -0.0421
19030W        W35878  16.626   4.204  14.112  0.0283  0.1636 -0.0909
19031W        W35879  17.013   7.307   4.522  0.0425  0.0942  0.3734
19032W        W35880   4.297   0.659   4.546  0.0866  0.2630 -0.1130
19033W        W35881   0.684  11.495  13.079  0.2539 -0.0243  0.0846
19034W        W35882  15.175   7.547  12.805 -0.1466 -0.0179  0.3177
19035W        W35883  14.266   5.247   2.256 -0.1800 -0.0474  0.0896
19036W        W35884   1.823   3.255   1.406 -0.0425  0.0603 -0.0341
19037W        W35885   9.869  12.612  15.239 -0.1258 -0.0161 -0.1398
19038W        W35886  10.845   4.314  11.273  0.0664  0.4649 -0.0021
19039W        W35887   4.581   8.371   1.155 -0.0066  0.0539 -0.0295
19040W        W35888  12.598  16.421  16.221  0.1995 -0.0710  0.1540
19041W        W35889  15.813  10.172  11.518  0.0219 -0.0167  0.2571
19042W        W35890  13.876   0.407   0.867 -0.3679  0.0905 -0.2709
19043W        W35891  16.783  18.085   5.491  0.1356 -0.0811 -0.2446
19044W        W35892   9.788   5.417   2.698 -0.2976 -0.4943  0.2961
19045W        W35893  12.715   5.002   0.403 -0.0966 -0.0146  0.2916
19046W        W35894  16.002   8.840   3.856  0.0098  0.1263  0.3258
19047W        W35895  14.049   4.065  15.738  0.1788  0.3332 -0.0202
19048W        W35896   3.872   8.777   0.301  0.0367  0.0409  0.0414
19049W        W35897  17.949  13.214   5.588  0.0320 -0.1064 -0.4578
19050W        W35898   7.945   3.495  12.310 -0.2348 -0.1130  0.2293
19051W        W35899   6.264  10.516   3.600 -0.2962  0.0164 -0.1749
19052W        W35900  18.023   1.614   1.819 -0.0073  0.0945  0.1748
19053W        W35901  11.297  17.900   4.438  0.1416  0.1162  0.0951
19054W        W35902  14.122   7.708   4.987 -0.0049 -0.0487  0.1169
19055W        W35903   9.887  17.129  15.964 -0.1186 -0.1598  0.0184
19056W        W35904   0.292   9.400  15.624 -0.1023  0.1230  0.1837
19057W        W35905   9.220  15.175   0.206 -0.0794 -0.3217  0.1505
19058W        W35906   4.499   0.415   3.156  0.1906  0.2380 -0.0929
19059W        W35907   3.199   4.112  15.342  0.1001  0.0441 -0.2569
19060W        W35908  16.622  15.833   1.622 -0.3161  0.1043 -0.1821
19061W        W35909   8.856  13.659   1.768  0.0560  0.0493  0.1688
19062W        W35910   4.433   3.371  11.210 -0.1772  0.0965 -0.2093
19063W        W35911  16.653   4.940   0.310  0.3388  0.1395 -0.1197
19064W        W35912  16.924  13.961   1.753  0.1592 -0.0010  0.2656
19065W        W35913   8.979  13.085   4.073 -0.1666 -0.1227  0.0122
19066W        W35914   2.015   2.672  14.262  0.0918 -0.0010 -0.1534
19067W        W35915  13.016  11.025   5.210  0.1784  0.0261  0.1701
19068W        W35916  11.629  13.563  14.826  0.2331 -0.2289  0.0771
19069W        W35917   2.961  11.907   0.558  0.0061 -0.5747 -0.2987
19070W        W35918   4.145  14.122  12.877 -0.1666  0.1348 -0.0185
19071W        W35919  13.178  10.989  12.862 -0.2479 -0.3178 -0.2050
19072W        W35920   8.522   5.335   1.494  0.0084 -0.0219  0.1762
19073W        W35921  13.608   7.211  11.373  0.2242  0.3443  0.4837
19074W        W35922   2.855   3.327   3.942  0.0013  0.2180 -0.3868
19075W        W35923  15.711   1.085  14.057  0.0264  0.3234 -0.0151
19076W        W35924  12.222  14.065   2.997  0.0724 -0.1837 -0.0188
19077W        W35925  10.260  17.435  12.123  0.1154 -0.0481  0.0220
19078W        W35926  15.546  15.368   2.345  0.1019  0.0100  0.0047
19079W        W35927   0.430   7.626   3.141 -0.1045 -0.4034  0.1031
19080W        W35928   8.798   3.016   2.097  0.0306  0.1654  0.2080
19081W        W35929  15.090  13.024   0.252  0.1950 -0.0679 -0.1159
19082W        W35930   2.165   0.569   0.296 -0.3161  0.0250  0.0602
19083W        W35931  17.028  13.097  14.645  0.0264 -0.0340  0.2110
19084W        W35932  10.438  14.041  11.762 -0.1402 -0.3411  0.0900
19085W        W35933   8.840  13.530  10.948 -0.3592 -0.0637  0.4265
19086W        W35934   2.714   8.505  12.528 -0.0656 -0.1672  0.0198
19087W        W35935  17.259  12.489   0.216  0.2025  0.0313 -0.0635
19088W        W35936   2.892  10.436   1.398  0.0701  0.1509 -0.1101
19089W        W35937   5.491   8.999  16.198 -0.0283 -0.1526  0.3517
19090W        W35938   4.734   1.787   1.071 -0.1347 -0.0018 -0.0315
19091W        W35939  16.207   4.093  13.862 -0.4936  0.2661  0.0387
19092W        W35940   5.292   2.941  14.918 -0.3817 -0.0928  0.3183
19093W        W35941  10.257   5.163  13.070  0.3294 -0.0927 -0.2029
19094W        W35942   3.036  11.696   2.325  0.0997 -0.2666  0.2301
19095W        W35943   9.084  13.567  12.582  0.0084 -0.0256  0.1172
19096W        W35944   6.090  17.859  10.934  0.4411 -0.4073 -0.3782
19097W        W35945   1.457   2.216   2.576 -0.0452 -0.1525 -0.0652
19098W        W35946  12.220   8.423   5.365  0.1788 -0.3801  0.0628
19099W        W35947   5.129  11.718  10.994 -0.1269  0.1367  0.4574
19100W        W35948  12.464   0.834  12.829  0.2983 -0.2594  0.2105
19101W        W35949   1.736   1.250   0.850 -0.3147 -0.1989 -0.1156
19102W        W35950  12.358   3.257   2.762  0.2369 -0.0226 -0.0900
19103W        W35951  11.793  14.802   4.663  0.0358 -0.1439  0.1093
19104W        W35952   0.540   2.730   3.943 -0.1545  0.0272  0.0300
19105W        W35953  10.630   9.339   4.484 -0.0036  0.1935  0.1613
19106W        W35954   4.347   1.731   4.161  0.0934  0.3646 -0.2280
19107W        W35955   8.396  13.082   1.266  0.2803 -0.0577 -0.1662
19108W        W35956   8.921  10.523   2.919  0.2066 -0.2954 -0.0621
19109W        W35957  15.492  16.797  16.154 -0.1006  0.0270 -0.1687
19110W        W35958  13.246  10.133  15.879  0.1593 -0.0718  0.0948
19111W        W35959   0.940   0.249   4.142  0.1465  0.0116  0.1527
19112W        W35960  15.783  10.779   1.475 -0.0467 -0.5262  0.0183
19113W        W35961   8.630   4.566   0.316 -0.0924 -0.1670 -0.0432
19114W        W35962  10.617  17.924   0.862 -0.1309 -0.1609 -0.1673
19115W        W35963  15.202   0.001   3.986  0.1049  0.0975  0.1375
19116W        W35964   8.789   3.594  13.983 -0.3710  0.2670  0.1096
19117W        W35965  10.052  12.640  11.987  0.2495 -0.0954  0.1619
19118W        W35966   7.863   7.274  15.342  0.4262 -0.0405  0.0472
19119W        W35967  17.740   4.318  13.401  0.2134  0.1391 -0.3391
19120W        W35968   8.067   8.420  15.091  0.2721 -0.1725  0.2015
19121W        W35969   6.535   9.646  13.710 -0.2776 -0.0235  0.2359
19122W        W35970   8.376   5.885  11.787  0.3238  0.0948  0.0733
19123W        W35971   2.280  15.166   0.480 -0.0096  0.1855 -0.0437
19124W        W35972   6.324  11.086  12.423 -0.1518 -0.1980 -0.0806
19125W        W35973  15.068  16.534  14.564 -0.0953  0.2514 -0.3117
19126W        W35974   0.674   8.627  14.961  0.4939  0.1035  0.1407
19127W        W35975   3.655   3.120  12.002 -0.2271 -0.3167  0.1437
19128W        W35976   8.980   9.329   4.707 -0.2005 -0.1122 -0.1259
19129W        W35977  13.197  14.118   1.014  0.2140  0.1412  0.2762
19130W        W35978  10.567  13.228  11.539  0.2414  0.1284  0.1489
19131W        W35979  16.941  14.128   0.596  0.3750  0.2396  0.2148
19132W        W35980   6.357   9.726   4.053 -0.0439 -0.0840  0.3622
19133W        W35981   1.711  12.686  13.955  0.0011  0.0994  0.0974
19134W        W35982   3.706  11.142   0.781 -0.0922 -0.4036  0.1396
19135W        W35983   5.828  16.334  15.403  0.0048 -0.1422 -0.0808
19136W        W35984  15.459  12.980  15.524 -0.1112  0.1033 -0.3690
19137W        W35985   0.733  13.080   1.727 -0.0066  0.1011  0.3572
19138W        W35986   4.257  17.237  13.678 -0.2489 -0.0889 -0.0754
19139W        W35987  12.918   3.609  11.413  0.1302  0.2760  0.0362
19140W        W35988  11.341   6.469  15.411  0.0315  0.3427  0.1662
19141W        W35989  13.437   1.491   5.048  0.0596  0.2117  0.0140
19142W        W35990   6.093  10.743   2.017 -0.2082 -0.2473  0.0357
19143W        W35991   8.319   9.871  15.524 -0.2097  0.0713  0.1772
19144W        W35992   4.388  16.675   3.477 -0.1301  0.1010  0.2237
19145W        W35993   9.099  12.695   3.173 -0.0306 -0.3301  0.1397
19146W        W35994  13.219   7.299   3.770 -0.1421 -0.0275  0.1781
19147W        W35995   4.535  13.127  15.362 -0.2555  0.1793  0.2612
19148W        W35996  16.569   0.915   1.531 -0.0796  0.1081 -0.0543
19149W        W35997  14.075   4.615  13.658  0.1342  0.3275  0.2256
19150W        W35998  15.486   1.127   3.263  0.0156 -0.3238  0.2110
19151W        W35999   6.319   5.970  13.140 -0.2109  0.0880  0.0821
19152W        W36000  12.034   4.752  12.794 -0.0802 -0.2373  0.2704
19153W        W36001   2.422   1.834  12.596 -0.0964 -0.0446  0.2417
19154W        W36002  14.225  13.618  13.361 -0.0822 -0.0602  0.1171
19155W        W36003   5.676  17.151   1.350  0.1758 -0.0642  0.1416
19156W        W36004   0.730   5.130  12.217 -0.0799 -0.0969 -0.3692
19157W        W36005   1.221  15.538   3.227 -0.2244 -0.1231 -0.1629
19158W        W36006  17.442   5.125  13.370 -0.0001 -0.1197  0.0630
19159W        W36007  13.755   0.137   1.446  0.1941  0.1680 -0.1081
19160W        W36008   3.738   8.905  14.412  0.0449 -0.0877  0.2139
19161W        W36009  13.976   1.841  14.435  0.2839 -0.3885 -0.0117
19162W        W36010   8.050   2.438  12.190 -0.1623 -0.0338 -0.1132
19163W        W36011  17.723   4.279  14.881 -0.0768  0.0962  0.1375
19164W        W36012   7.714   7.690  15.698  0.0490  0.2204  0.1480
19165W        W36013   5.780  12.665   4.379  0.1488  0.2620  0.3231
19166W        W36014   7.769   2.644  15.569 -0.0767  0.5999  0.4321
19167W        W36015  11.184   0.634  10.470  0.1454  0.0622  0.0873
19168W        W36016  10.409  11.943   0.287  0.0390  0.1276  0.2194
19169W        W36017  11.277  14.056  14.711  0.1153  0.0786  0.2146
19170W        W36018   5.745   1.599  11.610  0.0194 -0.2170 -0.1639
19171W        W36019  16.240  13.328  15.406  0.0942  0.0797  0.0697
19172W        W36020  10.551   4.954  11.752 -0.1399  0.2748 -0.0769
19173W        W36021  11.729  11.296  13.628  0.3116 -0.3152 -0.1494
19174W        W36022   8.842   2.167  11.689  0.0435 -0.2405 -0.2152
19175W        W36023  16.094  10.001   1.074 -0.0705 -0.2068 -0.3512
19176W        W36024   7.099   1.315   1.339  0.1257 -0.3310  0.2739
19177W        W36025  14.456  15.369  12.320 -0.0808  0.1397  0.0251
19178W        W36026   8.862   0.020  12.927  0.0693 -0.1476  0.0003
19179W        W36027   3.810   1.143  14.801  0.0212 -0.1074 -0.0435
19180W        W36028   5.812   0.276  13.016 -0.2468  0.2269  0.1059
19181W        W36029  17.918  15.793   3.294  0.0748 -0.3267 -0.1022
19182W        W36030   7.664   8.703  12.126  0.0414 -0.1526 -0.0814
19183W        W36031   0.336   1.276  14.905  0.1161 -0.1261 -0.1975
19184W        W36032  15.245   5.484  13.351 -0.0585 -0.0958  0.3095
19185W        W36033  10.969  14.679   0.967  0.0897  0.0419  0.0873
19186W        W36034  13.551   4.602   3.824  0.3845 -0.1009  0.0516
19187W        W36035   7.181   8.020  15.668 -0.1359  0.0641 -0.1323
19188W        W36036   5.968   1.396   1.395 -0.1502  0.1604  0.0386
19189W        W36037   0.951   6.675   5.528  0.1364  0.0984  0.0672
19190W        W36038  10.655   7.333  12.793 -0.0881 -0.2042 -0.0055
19191W        W36039   8.661   5.983   3.099 -0.0877  0.2321 -0.1267
19192W        W36040  15.389   5.564  15.047 -0.0952 -0.1800 -0.3108
19193W        W36041  11.208  14.390  12.018  0.1652 -0.0809 -0.1665
19194W        W36042  12.739   2.162  12.428 -0.2894 -0.1015  0.0794
19195W        W36043   8.284  16.610   0.837  0.0793  0.1712  0.1468
19196W        W36044  11.508   0.231  16.067  0.1760 -0.0097 -0.2947
19197W        W36045   6.721   2.857   1.129  0.1860 -0.0938  0.1156
19198W        W36046  12.789  12.724   4.903 -0.0981  0.0383  0.3550
19199W        W36047   4.733   8.944  13.747 -0.0176 -0.0136  0.0177
19200W        W36048   8.336  11.531  15.609 -0.1538  0.1796 -0.1532
19201W        W36049   3.686   3.809  16.275  0.3236 -0.0811  0.0661
19202W        W36050   4.184  12.315   1.029 -0.1375 -0.2414  0.0536
19203W        W36051   4.745   6.415  16.192  0.2689  0.2432  0.4659
19204W        W36052  16.002  17.462   0.172 -0.1424 -0.2501  0.1906
19205W        W36053   8.508   3.454   2.136  0.1729  0.4683 -0.2125
19206W        W36054  11.705   9.056   1.329 -0.2193  0.0402 -0.0757
19207W        W36055   4.294   0.896  14.695  0.1245  0.1074  0.2290
19208W        W36056  11.717   2.221  15.482 -0.2285 -0.0548  0.1440
19209W        W36057   9.613  13.299   4.686  0.1281 -0.2947  0.0420
19210W        W36058  13.890  14.615   0.113  0.1626 -0.1972  0.1578
19211W        W36059   1.681   0.057  13.084  0.2667  0.0295 -0.2162
19212W        W36060   3.315  16.496   1.470  0.0764 -0.2245  0.0939
19213W        W36061   9.556   7.464  14.515 -0.1225 -0.4187 -0.0744
19214W        W36062   1.633  15.091   3.101  0.0482  0.1579 -0.0316
19215W        W36063   0.454   3.468   1.950 -0.1931  0.0250 -0.2477
19216W        W36064  17.781   4.256  14.362  0.0506  0.2477 -0.1810
19217W        W36065  10.390   7.947   0.468  0.0817  0.2092 -0.3519
19218W        W36066  11.089   9.807   2.755  0.3045 -0.0735 -0.2208
19219W        W36067  16.180  13.021   1.964 -0.1066 -0.0399 -0.1526
19220W        W36068   8.436   4.497  14.156  0.1778 -0.3455 -0.2955
19221W        W36069   2.554  12.357   4.045 -0.2407  0.1459 -0.1002
19222W        W36070  13.556  12.143   0.532 -0.0922 -0.0764 -0.2402
19223W        W36071  12.575   0.294  12.871  0.3740  0.1151 -0.2316
19224W        W36072  16.352  14.996   1.985 -0.5867  0.1053 -0.1087
19225W        W36073  11.505  12.566   2.557 -0.0553  0.0878 -0.0366
19226W        W36074   2.776   4.695  13.336  0.3768 -0.2319  0.0431
19227W        W36075   8.312   8.896  14.897 -0.1119  0.1640 -0.2561
19228W        W36076  13.674  15.026  12.457  0.1601  0.0297 -0.2252
19229W        W36077  15.340   7.404  15.215 -0.1116  0.3464 -0.2729
19230W        W36078   3.516   1.202   4.723  0.2125 -0.0658  0.0970
19231W        W36079  12.323  13.708   0.994 -0.0630  0.3586 -0.3472
19232W        W36080   2.745   2.824   2.553 -0.2054  0.1779 -0.1580
19233W        W36081  10.263   9.857  12.966  0.3524  0.0622 -0.1361
19234W        W36082   6.437  10.986   3.554  0.0440 -0.2124  0.0463
19235W        W36083  12.640   4.288   0.011 -0.2942  0.1698  0.2869
19236W        W36084   0.333   4.794   0.917  0.0519 -0.4074  0.5712
19237W        W36085  14.455   5.512   1.579  0.3241 -0.0356 -0.3213
19238W        W36086   1.196   4.372  13.625  0.1619  0.1267  0.0722
19239W        W36087   4.005  10.960  15.275  0.1908  0.2174 -0.0486
19240W        W36088  11.727  13.691  16.138  0.1158 -0.0295 -0.0508
19241W        W36089   9.897   4.202   1.620  0.0954 -0.1739  0.0908
19242W        W36090   5.267  15.075  14.722  0.1295  0.0353  0.3455
19243W        W36091  13.087  11.977   1.256  0.1893 -0.1145 -0.0592
19244W        W36092   3.086   6.608  16.091  0.1624 -0.0548  0.0036
19245W        W36093   6.258   2.624   1.395 -0.1723  0.4763  0.3183
19246W        W36094   4.073   1.574  13.621  0.2210  0.1344  0.1695
19247W        W36095   6.434  14.113  14.868 -0.1348 -0.1280  0.1318
19248W        W36096   7.985   8.876  13.118  0.3512  0.1893 -0.0709
19249W        W36097   1.244   9.067  11.587 -0.0149  0.0998  0.2110
19250W        W36098  13.629   2.600   0.655 -0.0513  0.0837  0.1912
19251W        W36099  17.441  16.630   0.403 -0.0026 -0.2548 -0.0967
19252W        W36100  11.992   9.378  12.404  0.2468  0.0859 -0.1096
19253W        W36101   7.805  11.531   2.895 -0.0687  0.3065 -0.2892
19254W        W36102   8.663   1.495   1.503  0.0741 -0.1486  0.1120
19255W        W36103   9.236   3.439  14.445  0.1489 -0.4344  0.0200
19256W        W36104  15.977  13.913  14.949  0.1444  0.1258  0.0687
19257W        W36105   5.063   5.457  13.582  0.0570  0.3134  0.2371
19258W        W36106   8.344  17.601  12.417  0.0963 -0.2035 -0.1857
19259W        W36107  16.858  12.522   1.543 -0.1185  0.2358  0.2656
19260W        W36108   6.149  12.639   1.351  0.1079  0.0639 -0.2389
19261W        W36109   8.527  10.380   1.634  0.3703 -0.0776  0.0637
19262W        W36110   9.197   2.894   3.498  0.0448 -0.1353  0.1995
19263W        W36111  13.445   0.630   0.138  0.1664 -0.1388  0.1514
19264W        W36112   7.428   7.675   4.213 -0.0784  0.4002 -0.0537
19265W        W36113   7.841   6.906  13.206 -0.2372  0.0353 -0.1277
19266W        W36114   4.611   8.168   2.761  0.4031 -0.2403  0.3167
19267W        W36115   8.923   6.924  11.213 -0.2212  0.0355 -0.2972
19268W        W36116  15.338   2.012  13.308  0.2784  0.2947  0.0562
19269W        W36117   3.219   3.855  13.283 -0.0425  0.0226 -0.0775
19270W        W36118   9.646  12.573   2.410  0.1607  0.2998  0.0256
19271W        W36119  16.137  10.450  11.810 -0.1427  0.3401 -0.2652
19272W        W36120   4.820   0.018  12.601 -0.0080  0.0256  0.1259
19273W        W36121   8.206  13.715   0.015 -0.0745 -0.1575  0.2675
19274W        W36122  17.447   3.553  13.682 -0.1415  0.0804 -0.1229
19275W        W36123   0.591   7.925  16.129  0.1300  0.3395  0.2122
19276W        W36124   6.251   3.766   2.133  0.2760 -0.1679  0.2401
19277W        W36125   2.251  10.886  14.707  0.0656 -0.0105  0.1461
19278W        W36126  15.415   8.424  15.068  0.1587 -0.0230  0.0966
19279W        W36127   8.258  14.917  12.005 -0.0641  0.3210 -0.0966
19280W        W36128   5.271  13.214  13.254  0.0705 -0.0609  0.2096
19281W        W36129   9.303  13.004   0.396  0.0517 -0.2571 -0.4911
19282W        W36130  11.660   2.148  13.570  0.0057 -0.3334 -0.2188
19283W        W36131  10.028   6.746   1.037 -0.2578 -0.1024  0.0379
19284W        W36132   8.546  13.426  13.465 -0.5021  0.0177  0.2014
19285W        W36133   6.843   2.040   3.419 -0.1111 -0.0846 -0.1093
19286W        W36134   0.858   9.883   0.350  0.1246  0.3365  0.1457
19287W        W36135   2.497  16.988  14.874  0.1564  0.1945  0.0532
19288W        W36136   3.682  17.275   2.984  0.0949 -0.1527 -0.4090
19289W        W36137   1.442  10.851  15.823 -0.0516  0.0861  0.3500
19290W        W36138   6.887  12.097   2.771  0.3283  0.0273  0.0805
19291W        W36139   9.758   8.306   3.969 -0.1479 -0.1291 -0.0633
19292W        W36140  13.110  13.821   4.149  0.0585 -0.0310  0.0741
19293W        W36141   6.615   9.847  11.419 -0.3613  0.0648  0.1047
19294W        W36142   8.762   9.161   3.305  0.1378  0.1591  0.1031
19295W        W36143  13.974  14.988  13.007 -0.0247 -0.0039  0.1872
19296W        W36144  11.689  16.752   0.581  0.0735  0.0295  0.0231
19297W        W36145  13.135   4.706   2.352 -0.0050  0.1997  0.2365
19298W        W36146   8.389  14.724  14.785  0.0929  0.0501 -0.1841
19299W        W36147   6.111  15.683  13.748  0.0369 -0.0976 -0.0065
19300W        W36148   5.126  17.474  14.773 -0.2957 -0.0363  0.0244
19301W        W36149   7.141   1.378   2.491  0.0794  0.2212  0.2842
19302W        W36150  12.932   6.363  12.307 -0.0191 -0.2604  0.0228
19303W        W36151  10.071   5.753   1.926 -0.2526 -0.4391 -0.1221
19304W        W36152  14.482   0.060  15.577 -0.2488  0.2701 -0.0110
19305W        W36153   1.825  14.389  12.394  0.0399 -0.1694  0.2237
19306W        W36154   3.396  11.381  15.535  0.4049  0.0928  0.1919
19307W        W36155  14.732   4.599   0.509  0.0697  0.2848 -0.2047
19308W        W36156  17.622   6.003   2.259 -0.0732  0.0729  0.1651
19309W        W36157   9.313   1.592  10.357 -0.1112 -0.2732  0.3684
19310W        W36158  13.544  11.022   0.383 -0.3863 -0.2674  0.0308
19311W        W36159   8.326  14.169   3.508  0.0225  0.3247  0.2796
19312W        W36160   3.347  14.427   5.464 -0.0858 -0.1415  0.0666
19313W        W36161  14.791  15.834  15.671  0.1988 -0.0318 -0.0772
19314W        W36162  16.906  17.183   4.011 -0.1027  0.1300 -0.1072
19315W        W36163  12.863   0.575  12.035 -0.2543 -0.0241  0.3207
19316W        W36164   9.037  14.381   4.771  0.1925  0.0279  0.4388
19317W        W36165  17.283   6.134   2.665 -0.2507 -0.1985 -0.0492
19318W        W36166   3.034  12.876   3.097  0.1693  0.0877  0.2177
19319W        W36167  17.149   0.344  13.768 -0.1716  0.1930  0.2690
19320W        W36168   2.939  13.407  14.668  0.0960  0.2052 -0.1555
19321W        W36169  10.942   3.516  12.980  0.1527 -0.0953  0.1901
19322W        W36170   6.701   3.899   1.854  0.3315 -0.2299  0.2716
19323W        W36171  13.502  12.501  12.174 -0.1005 -0.1081  0.0889
19324W        W36172   8.551   1.327   2.267 -0.3092 -0.0925 -0.1455
19325W        W36173   4.780   5.913   2.695 -0.2075  0.0973  0.3473
19326W        W36174   1.169   4.410   2.137  0.2018 -0.3681  0.1755
19327W        W36175   7.440  17.863  14.894 -0.4303  0.0760 -0.2537
19328W        W36176   3.731   6.343   2.314 -0.1869  0.2487 -0.2312
19329W        W36177   4.724   7.683   1.544  0.2773  0.1805  0.1782
19330W        W36178   6.754   4.244   1.436  0.0917  0.0568 -0.0629
19331W        W36179  16.210   1.793  14.332  0.1889  0.1121  0.0026
19332W        W36180  14.196  11.948   1.538  0.0440  0.0231  0.0652
19333W        W36181   1.903   6.986  13.145  0.2089  0.0450  0.1763
19334W        W36182   6.412   8.843  16.061 -0.1448 -0.0392 -0.2651
19335W        W36183  13.638  17.567   0.055  0.1038  0.1746  0.0298
19336W        W36184  11.478  16.870  12.882 -0.2016 -0.0111 -0.2410
19337W        W36185   5.471  15.411   2.605  0.0589  0.0955 -0.0205
19338W        W36186   9.783   6.718   3.482  0.2279  0.2670  0.2186
19339W        W36187   5.954  14.283   2.083  0.0883 -0.0186 -0.0242
19340W        W36188  12.384  16.318   4.010 -0.1403  0.3662 -0.3164
19341W        W36189   3.892   5.018  13.647 -0.3021 -0.2723 -0.0261
19342W        W36190   2.269  12.005  14.040 -0.0591  0.2812 -0.3263
19343W        W36191  16.220   4.596  15.274 -0.0249 -0.1831  0.1253
19344W        W36192  15.895  17.592  15.352  0.0478 -0.0382 -0.1801
19345W        W36193   4.734  15.775  14.575 -0.3206  0.0679  0.1897
19346W        W36194  15.987  16.331   2.336 -0.2979  0.1912  0.1824
19347W        W36195   0.554   1.681   1.006 -0.1103 -0.0194 -0.0715
19348W        W36196   7.900  15.165  13.173 -0.2679 -0.1023 -0.2150
19349W        W36197  15.955  13.244   5.398  0.0640 -0.3947  0.1780
19350W        W36198   2.927   9.369  15.728  0.2079  0.2517  0.1961
19351W        W36199  17.440  15.679  10.321 -0.0143  0.0196  0.2826
19352W        W36200  16.027   8.281   0.246 -0.0696  0.1488 -0.1864
19353W        W36201   1.690  15.780  15.883 -0.0895  0.5406 -0.2094
19354W        W36202   1.964   7.500   2.105  0.0081  0.5303 -0.0652
19355W        W36203  10.710  14.547   1.534  0.1058 -0.0520 -0.3153
19356W        W36204   8.730  17.479   4.287 -0.2134  0.0972 -0.1171
19357W        W36205  10.241   2.384  15.119 -0.2885  0.2156  0.0122
19358W        W36206   7.064  17.995   2.552  0.0142 -0.0008 -0.1990
19359W        W36207   9.022   4.115  11.824  0.2791 -0.0801  0.0319
19360W        W36208  15.552  12.483   1.454 -0.1402 -0.3074 -0.1321
19361W        W36209   8.804   9.279  15.612  0.1932 -0.1612  0.4590
19362W        W36210   8.246   8.393  12.307 -0.2211  0.2512  0.0530
19363W        W36211   5.422   5.182  13.495  0.1968 -0.1504 -0.1219
19364W        W36212  12.992   0.051  13.043  0.2055  0.0112  0.1775
19365W        W36213  12.082  13.812   1.484  0.0472  0.1006  0.0497
19366W        W36214   2.580   0.505   3.306 -0.3444 -0.1673 -0.0995
19367W        W36215   1.475  10.972   2.998 -0.1255 -0.0085 -0.1002
19368W        W36216   4.611  13.719   5.105 -0.0596 -0.1583 -0.0663
19369W        W36217   8.306   6.004  13.870  0.0723  0.1136  0.1805
19370W        W36218   5.518   3.740  15.425 -0.2237  0.0615  0.1576
19371W        W36219   4.864  11.433  13.072  0.2178 -0.2578 -0.1741
19372W        W36220   8.477   4.195  14.582  0.3111 -0.0697 -0.0884
19373W        W36221   4.789   0.512   1.465  0.0957 -0.1413 -0.1321
19374W        W36222   4.219  13.387  13.581 -0.0603 -0.2418 -0.1871
19375W        W36223  13.637   2.977  11.930 -0.0064 -0.1990  0.1262
19376W        W36224   8.083  15.824  14.038 -0.1907  0.2282 -0.0320
19377W        W36225   0.513  12.255  12.036 -0.1299  0.1651 -0.1515
19378W        W36226   0.083   0.595   4.417  0.0685 -0.0714  0.0202
19379W        W36227   9.616   0.608   5.442  0.0872  0.1523 -0.2511
19380W        W36228   7.930  16.664  13.323 -0.1218  0.2511 -0.0876
19381W        W36229   6.558   7.586  14.579  0.0427  0.0866  0.2602
19382W        W36230  11.001  17.501  12.116  0.0234  0.3499  0.5502
19383W        W36231  10.088  16.610  12.786  0.0405  0.3545  0.1943
19384W        W36232   9.323  18.076   0.533 -0.0312 -0.0676 -0.0258
19385W        W36233   3.185  14.156  16.145 -0.1993  0.3371 -0.2547
19386W        W36234  11.542   7.902   2.711 -0.2653 -0.0625  0.0967
19387W        W36235  17.680   2.198  13.399 -0.4390  0.1456  0.0766
19388W        W36236  12.125   0.487  12.661  0.0383  0.0894 -0.0588
19389W        W36237  12.938  16.095  13.068 -0.0840 -0.2573  0.0137
19390W        W36238  12.667  14.850  13.512  0.0678  0.1134 -0.2860
19391W        W36239   3.447  16.171   4.444  0.1027 -0.2254 -0.0628
19392W        W36240   8.442  11.897  12.544 -0.1808 -0.0042  0.3265
19393W        W36241   9.139   3.638   2.454  0.3344  0.1504  0.2749
19394W        W36242  15.413  11.316   2.858 -0.3737  0.0837  0.3252
19395W        W36243   1.771  16.083   1.104  0.0194  0.0899  0.0604
19396W        W36244   9.944   3.645   1.609  0.0898 -0.1187  0.1311
19397W        W36245   5.510  10.376  12.275 -0.2476  0.1823 -0.0751
19398W        W36246   9.438  12.350   4.490 -0.0113 -0.0924  0.2922
19399W        W36247  16.159  14.538   3.651 -0.3473  0.0864  0.0115
19400W        W36248  13.777  14.208  16.250  0.0830  0.2927 -0.3605
19401W        W36249  17.873  14.796  11.586  0.0001 -0.4492 -0.1040
19402W        W36250  15.671  17.278  16.192  0.1038 -0.0026 -0.2355
19403W        W36251  11.212  12.649  15.511  0.0234  0.0847  0.2926
19404W        W36252  12.828  11.918   3.603  0.0228 -0.3515  0.0734
19405W        W36253   4.593  10.799  13.619 -0.2541  0.2505  0.1122
19406W        W36254   0.786  14.210   4.489 -0.1207  0.1424  0.0122
19407W        W36255  13.848  15.742   1.652  0.0527  0.1769  0.1597
19408W        W36256   5.856   5.758   0.562  0.1974 -0.1861  0.2022
19409W        W36257  11.541  10.152   2.178 -0.0348 -0.1528 -0.1489
19410W        W36258  15.613  15.449   0.697 -0.1199 -0.0338  0.0946
19411W        W36259   9.065  10.734   0.457 -0.0641 -0.2364 -0.0836
19412W        W36260  12.667  16.836  12.006  0.0131  0.0783 -0.3471
19413W        W36261   1.345   0.406  13.108  0.0178 -0.0433  0.0525
19414W        W36262  14.959  10.378  12.307 -0.4033  0.2475  0.0664
19415W        W36263  14.075   7.590   1.202  0.2739 -0.2085  0.0036
19416W        W36264  10.416  13.539   1.071  0.1601  0.2898 -0.0199
19417W        W36265   3.750  13.434   0.236  0.0002  0.0668 -0.2299
19418W        W36266  12.072  13.564  13.497  0.3227 -0.1672 -0.0069
19419W        W36267  11.002  16.858  12.168 -0.1015 -0.0662  0.2066
19420W        W36268   1.153   8.131  12.699  0.2972  0.1502 -0.3505
19421W        W36269   8.701   8.631  11.262  0.2223 -0.0168  0.1096
19422W        W36270   6.691  13.298   2.045  0.1526 -0.0998  0.0670
19423W        W36271   4.234   1.799   3.064  0.0734  0.2278  0.3741
19424W        W36272  16.674   6.327   0.807 -0.2040 -0.3641  0.0767
19425W        W36273   2.805   6.986  16.148 -0.2247  0.0348  0.0977
19426W        W36274   6.321   1.457   3.769 -0.0170  0.0924  0.0276
19427W        W36275  13.514  17.177   0.962 -0.2173  0.0141 -0.3838
19428W        W36276   1.257   7.405   5.152 -0.0526  0.0218  0.0309
19429W        W36277   6.095  15.966  15.270  0.1162 -0.0050  0.0956
19430W        W36278  14.006   0.163   2.354 -0.1675  0.0196  0.0854
19431W        W36279   5.846  16.105   5.775  0.0555  0.2679 -0.0436
19432W        W36280  11.746   3.464   4.173  0.1273  0.0188  0.2270
19433W        W36281  15.291  13.640   0.399 -0.3155 -0.1483  0.0264
19434W        W36282   3.599  12.784   1.773  0.1740  0.0577  0.3242
19435W        W36283   3.303   1.992  11.997 -0.1683  0.1676 -0.0875
19436W        W36284  11.719  17.698   4.051  0.1377 -0.2269  0.0898
19437W        W36285   6.605  11.669   3.285 -0.0563 -0.1210  0.0153
19438W        W36286   1.298   3.680  15.889  0.2474  0.1878  0.0013
19439W        W36287   7.966   6.437   4.256 -0.1850  0.1071  0.2285
19440W        W36288   3.764   7.657   3.597 -0.1797 -0.0184  0.0699
19441W        W36289   7.817  11.831   0.066  0.0992  0.0240 -0.0015
19442W        W36290   1.116   4.218   3.863 -0.0276  0.0260  0.3832
19443W        W36291   1.650  13.269   5.168  0.0028  0.5172 -0.1600
19444W        W36292  16.924  16.283   0.861 -0.0617 -0.2755 -0.0414
19445W        W36293   2.992   9.426  12.910  0.1846 -0.0578 -0.0219
19446W        W36294  15.883   9.741   4.343  0.1118  0.3108 -0.2554
19447W        W36295   9.975  17.620  13.444 -0.0923  0.0101 -0.2197
19448W        W36296   1.540   2.197   3.090  0.2766 -0.0903  0.2199
19449W        W36297   5.991   8.161  11.242 -0.1198 -0.2120 -0.0617
19450W        W36298   4.379   8.682  13.928 -0.1476  0.1185 -0.0207
19451W        W36299   7.775   3.256  11.857 -0.1294  0.0130  0.1671
19452W        W36300  14.327  10.899   4.898  0.1593  0.1575  0.0370
19453W        W36301   7.603   0.522  12.591 -0.0016  0.2540  0.1812
19454W        W36302  11.007  14.930   1.858 -0.0886  0.0712  0.0633
19455W        W36303  13.563   8.605   5.729  0.0511 -0.0866 -0.2826
19456W        W36304   3.595   9.422   1.196 -0.0372 -0.4330 -0.0457
19457W        W36305   9.457   8.780   5.118  0.1876  0.0577  0.0838
19458W        W36306  11.560  13.106   2.788  0.4037  0.0893 -0.2057
19459W        W36307  16.643   9.667  13.378 -0.0189 -0.1607 -0.1932
19460W        W36308  12.105   0.730  11.137  0.0225 -0.0664  0.2476
19461W        W36309  16.372  17.266   3.908  0.1486  0.2806 -0.2123
19462W        W36310  15.360  16.943   1.802 -0.0291 -0.0595 -0.0790
19463W        W36311   5.802   7.684   2.372  0.0626 -0.1621 -0.2953
19464W        W36312   2.110  15.865  14.189  0.4016  0.1516  0.0784
19465W        W36313  16.570  15.273   1.529  0.0732  0.3518  0.0983
19466W        W36314  12.322  14.845  14.255  0.0622 -0.1538 -0.2026
19467W        W36315   4.044  13.134   4.230  0.0528  0.1918  0.2849
19468W        W36316   9.540  11.972  14.377  0.0691  0.0904  0.0041
19469W        W36317   4.964  10.407   4.555  0.2579  0.1972 -0.6589
19470W        W36318   3.722   6.892   1.670  0.0332 -0.1410  0.1459
19471W        W36319   1.190   9.528  13.230  0.2790 -0.0906 -0.1027
19472W        W36320   3.900  14.329   3.563 -0.2347  0.1678  0.0677
19473W        W36321  17.736  11.909  13.666 -0.0930 -0.1019  0.1130
19474W        W36322   2.659   7.626  10.702  0.0288 -0.0963  0.0785
19475W        W36323   0.256  17.803   0.928 -0.0826  0.2598 -0.3615
19476W        W36324   1.623  16.858   0.202  0.1503 -0.1877 -0.0750
19477W        W36325   9.386  11.165   5.129  0.1166  0.0842  0.1817
19478W        W36326  11.015   8.839  10.408  0.0829 -0.0020 -0.1069
19479W        W36327  12.997   6.527   5.689  0.0050  0.2558 -0.1490
19480W        W36328  17.523   3.475  15.462  0.2209 -0.3024 -0.1671
19481W        W36329  14.363   2.609   0.136  0.1864  0.1061  0.0582
19482W        W36330  11.972   2.540  11.117  0.2816 -0.1016 -0.1502
19483W        W36331  17.877   7.376   0.627 -0.3813  0.1447  0.1971
19484W        W36332   1.832   6.673  15.324 -0.1784  0.1559 -0.0264
19485W        W36333  10.287  10.873   0.085  0.0469  0.1206 -0.3789
19486W        W36334   8.218  16.222   2.742 -0.0667 -0.0097 -0.0940
19487W        W36335   3.838  15.135  12.398  0.0010 -0.3698 -0.0043
19488W        W36336  16.849   4.633  10.822  0.2807 -0.2237 -0.1093
19489W        W36337  16.054  14.017   2.013  0.1185  0.2540 -0.4300
19490W        W36338  14.534   6.189   5.292  0.2182 -0.0581  0.0378
19491W        W36339   0.932  16.481  16.122 -0.2574 -0.4035  0.2517
19492W        W36340   5.968   3.918  12.761  0.1557  0.1365 -0.4290
19493W        W36341   2.207   8.441  12.537 -0.1610  0.0737 -0.0010
19494W        W36342  11.855   0.003  15.777  0.2126 -0.2882  0.0912
19495W        W36343   4.533   3.977   2.688 -0.1246  0.3951  0.0698
19496W        W36344   8.603   9.308  14.898 -0.1850 -0.1848  0.0957
19497W        W36345  13.861  11.526  13.483  0.0247  0.0928 -0.0177
19498W        W36346   5.182  16.314  13.783 -0.1060  0.0271  0.0900
19499W        W36347  11.229   6.710  15.847  0.2600 -0.1880  0.4425
19500W        W36348   4.710  13.136   3.646 -0.3473 -0.2241  0.0523
19501W        W36349   0.546   7.089  13.521  0.3798 -0.0163  0.3158
19502W        W36350  16.964   9.663   4.686 -0.0736  0.4780 -0.0290
19503W        W36351   9.852  18.085  11.734 -0.0027 -0.2755 -0.0102
19504W        W36352   5.949   3.659   1.001 -0.0836 -0.1563 -0.1329
19505W        W36353   7.258  12.006   1.910 -0.2103 -0.1205  0.1830
19506W        W36354  14.398  11.599   1.848  0.0869 -0.2840  0.0531
19507W        W36355   3.371   0.750   4.478 -0.3420  0.1008  0.0157
19508W        W36356  16.621  10.128   5.294 -0.3740 -0.1450  0.1432
19509W        W36357   4.258  12.652  15.359 -0.2926 -0.0141 -0.3378
19510W        W36358   0.118  15.921  14.660  0.2550  0.0146  0.0833
19511W        W36359  13.964   9.748  16.185  0.0918 -0.1312  0.0914
19512W        W36360   6.636   3.295   3.805 -0.3314  0.1772  0.2135
19513W        W36361  16.673   5.780   3.247 -0.0820 -0.5183  0.2485
19514W        W36362   7.427   4.167  11.117  0.1495  0.2401 -0.0584
19515W        W36363   6.749   3.338  14.219 -0.0261  0.2189 -0.1033
19516W        W36364   1.600   7.443   6.044  0.0214 -0.1168  0.2010
19517W        W36365   6.454  10.152  12.425  0.0579  0.3419 -0.0841
19518W        W36366  14.139  17.238   4.250  0.0381 -0.1973  0.1539
19519W        W36367   7.313   6.885  11.528 -0.2499 -0.0086 -0.0636
19520W        W36368  16.959  10.693  14.938 -0.0935 -0.3613  0.1114
19521W        W36369   3.450   7.859   3.208 -0.2109  0.0398 -0.1192
19522W        W36370   9.878   4.154  15.294 -0.1435  0.1171  0.1738
19523W        W36371  12.794   5.894   4.882  0.0129 -0.3805 -0.3342
19524W        W36372   7.014  11.966  14.425  0.0547  0.1367  0.0468
19525W        W36373  16.570   9.284   5.547  0.2138  0.1643 -0.1852
19526W        W36374   9.175   5.411  12.235 -0.1089 -0.1063 -0.1118
19527W        W36375   8.711   4.802   3.987 -0.0191 -0.2699 -0.1406
19528W        W36376   4.658   4.452  13.446 -0.0522 -0.1051  0.0265
19529W        W36377   9.723   7.894  11.104 -0.2005  0.1880 -0.3432
19530W        W36378   6.747   1.147  14.759 -0.0712  0.1883  0.0266
19531W        W36379   6.829   0.506   0.669 -0.0761  0.2156  0.2012
19532W        W36380   0.435  14.835  10.194 -0.2225 -0.2498 -0.0924
19533W        W36381  14.051  14.421   3.145  0.1193 -0.1134 -0.3864
19534W        W36382   2.149  14.087  14.827 -0.2340 -0.1784 -0.0740
19535W        W36383  14.418  10.305   3.294 -0.2372 -0.0099  0.1127
19536W        W36384   2.179  17.577  13.675 -0.0833  0.1939 -0.1561
19537W        W36385  17.241  12.654  14.738 -0.2656 -0.3270  0.1723
19538W        W36386  10.871   2.431   2.747  0.0490  0.2810  0.0638
19539W        W36387  11.129   1.998   1.709 -0.1772 -0.0536  0.0260
19540W        W36388   3.344  14.441  13.308  0.0232 -0.2422 -0.3031
19541W        W36389   4.275  15.463   5.891  0.0911  0.1312  0.2697
19542W        W36390   2.079   3.488   2.532 -0.1913  0.0942  0.1157
19543W        W36391   9.106  12.555   3.881  0.0631  0.1407 -0.0153
19544W        W36392   8.822   5.349   1.870 -0.0681 -0.2388  0.0886
19545W        W36393   7.937   1.039  14.191 -0.0894  0.1356  0.0664
19546W        W36394   4.130   9.068  14.854 -0.2068 -0.0000  0.0231
19547W        W36395  11.874   5.259  11.628  0.2328 -0.3824 -0.1531
19548W        W36396  17.605   9.813  13.008  0.2250 -0.2101 -0.2822
19549W        W36397  15.400   8.175  14.515 -0.3336 -0.2483 -0.1306
19550W        W36398  10.859  10.730  12.980  0.0964 -0.0252  0.2294
19551W        W36399   6.605  11.952   0.080 -0.0351  0.2834  0.0858
19552W        W36400   0.320  12.253   2.182 -0.0601  0.0243  0.0100
19553W        W36401   8.818  15.135  12.885  0.1356 -0.0677  0.1359
19554W        W36402  13.267   3.863  14.298 -0.2353 -0.0876 -0.2988
19555W        W36403   2.992  17.765   1.293  0.1915 -0.1021  0.2269
19556W        W36404  17.651  15.846   2.792  0.3490  0.1888  0.0387
19557W        W36405  17.604  15.304   3.356  0.3395  0.1533  0.1850
19558W        W36406  12.976  11.142   4.559 -0.0325  0.1926 -0.0767
19559W        W36407  10.888   5.251   0.113 -0.3393 -0.1663 -0.0490
19560W        W36408   6.504   6.809   3.192  0.3400  0.1434  0.0190
19561W        W36409  12.560  10.260   3.460 -0.1536  0.0189  0.0104
19562W        W36410  17.779   8.595  13.439  0.3670 -0.1348 -0.0571
19563W        W36411   9.050   2.687  13.980  0.2748  0.1295 -0.0638
19564W        W36412   7.946  10.089  13.855 -0.1243 -0.0928  0.0955
19565W        W36413  10.927   7.234  12.409 -0.3519  0.1203 -0.0653
19566W        W36414   5.309  13.818  14.392  0.0280 -0.0142  0.1502
19567W        W36415  14.090  12.175  15.549 -0.1027 -0.1195 -0.0290
19568W        W36416   5.391  15.093  13.646 -0.0814 -0.3642  0.2951
19569W        W36417  11.586   1.820  13.980 -0.1219  0.2595 -0.1854
19570W        W36418  10.148   9.369   2.938  0.3494 -0.1172  0.3105
19571W        W36419   3.622   9.239   0.257  0.0882  0.3093 -0.1678
19572W        W36420  14.228   4.549  11.887  0.2129 -0.1433  0.1155
19573W        W36421   1.673   0.044  11.561  0.1298  0.0867  0.1489
19574W        W36422  12.581  13.694   2.986  0.0641 -0.1651 -0.1413
19575W        W36423   2.371  17.604  12.629  0.3178  0.3940 -0.0186
19576W        W36424  17.704  10.753   1.076  0.1142 -0.1459  0.2252
19577W        W36425  10.663   8.982  12.265 -0.1719 -0.1096  0.0852
19578W        W36426  11.392  17.041   0.859  0.0449  0.1308 -0.4150
19579W        W36427   6.537  17.006   2.464  0.0297 -0.0081  0.3579
19580W        W36428  13.634   1.666   4.168 -0.0455 -0.1375  0.0907
19581W        W36429  10.489   2.038  11.475 -0.1509  0.0569 -0.0426
19582W        W36430  17.948  13.219   5.105 -0.1296  0.0907 -0.4366
19583W        W36431  11.388  13.575   5.702 -0.0317 -0.0533  0.2365
19584W        W36432   8.445  13.925   3.094 -0.1600  0.2531 -0.3352
19585W        W36433   0.438   7.168  10.513 -0.2008  0.0165 -0.0210
19586W        W36434  16.098  16.498  11.877  0.4926 -0.4181  0.0016
19587W        W36435   7.980  14.344  11.893 -0.1080  0.0253 -0.2003
19588W        W36436   4.489  16.448   0.820  0.2691 -0.4176 -0.0073
19589W        W36437   0.983   3.976  11.636 -0.2615  0.2292 -0.2941
19590W        W36438   9.826   3.858  12.813  0.0833  0.0151 -0.1359
19591W        W36439  13.159   3.301   4.163  0.1828  0.0626 -0.0267
19592W        W36440  15.783  16.938   3.138  0.1766 -0.0058 -0.1964
19593W        W36441   7.966   9.202  15.599  0.0911 -0.1754  0.1200
19594W        W36442   7.517   9.315  15.287 -0.3596 -0.1273  0.0516
19595W        W36443   5.771   6.200   3.650  0.0332 -0.0922 -0.0639
19596W        W36444   0.116   2.209   4.233  0.1125 -0.1272  0.1596
19597W        W36445   4.985   8.599  14.551  0.0192 -0.1816 -0.2265
19598W        W36446   9.396   4.350  14.200  0.0378 -0.0494  0.1073
19599W        W36447  11.718   6.802   2.817  0.0707  0.0799 -0.2920
19600W        W36448   6.040  14.799   5.040  0.0318 -0.0312  0.1015
19601W        W36449   1.904   5.803   2.770 -0.0689  0.1090 -0.1021
19602W        W36450   2.620   6.738  12.695  0.3065 -0.0914  0.2620
19603W        W36451   4.970   9.108  12.302  0.2776 -0.1761  0.0200
19604W        W36452   1.456  13.323   0.556 -0.3881  0.0118 -0.1812
19605W        W36453   9.365   1.612  12.192  0.2496  0.2692 -0.0274
19606W        W36454   5.076  15.045   1.437 -0.1285  0.0729  0.1358
19607W        W36455  10.374   4.635  13.954  0.3697 -0.2923 -0.2829
19608W        W36456  17.441   6.996   0.738  0.2232  0.3003  0.3456
19609W        W36457  12.161   2.388   3.868  0.0276 -0.0215  0.1049
19610W        W36458   4.505   8.904  12.456  0.5538 -0.2440 -0.0734
19611W        W36459  10.638  17.922   0.323 -0.0160  0.0506 -0.1490
19612W        W36460   0.352   3.554   0.005 -0.1054 -0.2166  0.1896
19613W        W36461  14.342   5.531  15.596 -0.1972 -0.1094 -0.0798
19614W        W36462  14.146   9.732   4.148  0.4578 -0.1319 -0.4621
19615W        W36463   8.034   3.789   0.108  0.1257 -0.1184 -0.0551
19616W        W36464   7.609   1.831  11.555  0.0751  0.0291  0.1192
19617W        W36465   9.766   4.372  11.220 -0.0953  0.0230  0.0213
19618W        W36466  11.945   2.728  14.445  0.0434 -0.2224  0.0170
19619W        W36467   9.101   3.203  11.647 -0.4119  0.0405  0.1794
19620W        W36468  10.644   9.788   4.057 -0.0596  0.1232 -0.1570
19621W        W36469   7.342   9.314   3.522 -0.1932 -0.1391 -0.1337
19622W        W36470   4.104  13.257   0.590 -0.0486 -0.0491  0.0048
19623W        W36471   6.831   0.259   4.658 -0.3280 -0.0449  0.0681
19624W        W36472   4.898   3.833   2.993 -0.0437 -0.1081  0.2505
19625W        W36473  11.994  14.825  14.613 -0.2761  0.0149 -0.0079
19626W        W36474  15.944   3.496  11.140  0.2225  0.0246  0.1233
19627W        W36475  15.398   9.421   0.849 -0.0745  0.3991 -0.0647
19628W        W36476   8.077   4.653  14.559  0.1139 -0.1002 -0.0655
19629W        W36477  11.501   8.636   4.319  0.0783  0.0632  0.0433
19630W        W36478   9.902  14.892   2.357 -0.1282  0.0785 -0.0534
19631W        W36479   4.513  17.661  14.179  0.4663 -0.0910  0.0645
19632W        W36480  11.353   8.172  13.645  0.0496  0.1588  0.0291
19633W        W36481   2.965  12.226   2.465  0.0832 -0.0119 -0.0271
19634W        W36482  16.501   4.315  15.577  0.2726 -0.0793 -0.0439
19635W        W36483   5.499   2.902  10.265 -0.1374 -0.3117  0.0555
19636W        W36484   1.018   1.316  16.230 -0.2167 -0.2080  0.0723
19637W        W36485  14.424  11.262   1.251 -0.2685 -0.1655  0.1707
19638W        W36486   8.461  11.061  14.749 -0.1404 -0.0390 -0.2637
19639W        W36487  12.250  16.253  10.266  0.2220  0.1786  0.4793
19640W        W36488   8.210   6.499  15.279 -0.1401  0.3432 -0.2549
19641W        W36489   3.836  12.079  15.867  0.2327 -0.0657 -0.0006
19642W        W36490  10.398  11.732  14.010 -0.0849 -0.0157 -0.2616
19643W        W36491  15.690   3.977  13.730 -0.0494  0.2688  0.1769
19644W        W36492  12.173  12.474   3.214 -0.0517 -0.1567 -0.1121
19645W        W36493   2.085  10.262   4.438  0.5031 -0.1225  0.0169
19646W        W36494  14.790   3.309   3.671 -0.3029  0.1637 -0.3687
19647W        W36495   5.120   8.383   1.826  0.0836 -0.0930 -0.0555
19648W        W36496  10.249   5.779  11.240  0.3447  0.0480 -0.0200
19649W        W36497  14.363   8.206   0.033  0.0694 -0.0610 -0.1314
19650W        W36498  12.077  16.081   0.429 -0.0051 -0.2450 -0.2647
19651W        W36499  13.055   1.048  14.127 -0.2100  0.1324  0.0100
19652W        W36500   7.195   4.512  15.707  0.0965  0.0126  0.1719
19653W        W36501  14.603  13.664  16.086  0.0964  0.0074  0.2600
19654W        W36502   3.248  14.805   3.432 -0.2663  0.7342 -0.0711
19655W        W36503   0.192   2.988  14.090 -0.3777  0.2639 -0.0078
19656W        W36504   3.805   0.586  12.874  0.4264  0.2211 -0.1913
19657W        W36505   7.275   1.781   4.508  0.0207  0.2942  0.1872
19658W        W36506   9.176   3.941  14.262 -0.2173 -0.1283  0.0382
19659W        W36507   2.039   3.466  15.158 -0.0753 -0.3745 -0.1817
19660W        W36508   4.143  14.218  14.710 -0.0558 -0.1335 -0.0319
19661W        W36509   2.598  13.730  13.693 -0.1594  0.1326  0.1940
19662W        W36510   9.830  11.930  11.512 -0.1402  0.0293  0.2408
19663W        W36511   1.299   8.334  14.168  0.0416 -0.1934  0.1575
19664W        W36512  16.120   1.553  12.288  0.3880  0.0225 -0.2409
19665W        W36513  10.999  14.389   3.333  0.0936 -0.0386  0.1363
19666W        W36514   9.748  10.300   1.674 -0.2042 -0.2099 -0.4741
19667W        W36515  12.647  16.177   1.139 -0.0211  0.1584 -0.0424
19668W        W36516   8.753  12.405   3.466  0.0675  0.1291 -0.2586
19669W        W36517   7.898  17.970  12.681  0.0049  0.0248 -0.1771
19670W        W36518  14.446  16.168  13.492 -0.3212 -0.1834  0.1062
19671W        W36519   6.973  17.435  13.878 -0.0114  0.0414 -0.0490
19672W        W36520   8.790  17.329  13.286 -0.1438  0.3260 -0.1929
19673W        W36521   5.216  15.870  14.050 -0.0390 -0.2756  0.2975
19674W        W36522   8.869  13.199  12.299  0.2583  0.0548  0.1905
19675W        W36523   9.029  17.887  14.002 -0.2045  0.0977 -0.1934
19676W        W36524   5.196  14.612  13.895  0.3386  0.2061 -0.1141
19677W        W36525   4.544  10.734   4.595 -0.0468 -0.0348  0.1582
19678W        W36526   7.340   8.894  16.298  0.2521 -0.3525  0.3049
19679W        W36527  14.617  14.060   0.164  0.1818 -0.2415  0.0817
19680W        W36528   8.622   5.482   2.324  0.0542 -0.0107 -0.0398
19681W        W36529  13.460  15.253  13.751  0.2999 -0.1249  0.1394
19682W        W36530  15.273   8.647   5.174  0.0262  0.3974 -0.1092
19683W        W36531   7.883   7.105   2.640  0.0171  0.3499 -0.2336
19684W        W36532   7.602  17.473  11.258 -0.0537  0.0239  0.0235
19685W        W36533   9.003   6.139   2.040  0.1652 -0.1595  0.2196
19686W        W36534   1.059  11.805  14.949 -0.2335  0.1398  0.0375
19687W        W36535  13.489  14.810   2.321 -0.2254 -0.0468 -0.2493
19688W        W36536   3.268  15.430  14.106 -0.2500 -0.1470  0.0031
19689W        W36537  10.469   3.873   4.123  0.0226  0.1148 -0.1631
19690W        W36538  14.167   0.214  16.072  0.0210 -0.1850 -0.2086
19691W        W36539  13.845   3.312  13.498  0.0279 -0.2419  0.0329
19692W        W36540   8.158   5.722  14.996 -0.1383  0.4185 -0.0543
19693W        W36541  11.326  11.742   3.990  0.0424 -0.0236  0.0398
19694W        W36542   6.753  13.641   4.549  0.2609  0.1576  0.1272
19695W        W36543  15.793  15.939  12.849  0.2610 -0.0364  0.1808
19696W        W36544  11.345  15.375  12.963 -0.0417 -0.0385  0.1026
19697W        W36545   4.991   6.468  13.464 -0.1088 -0.2360  0.1086
19698W        W36546  12.496   6.475  14.672 -0.1736  0.1034  0.2577
19699W        W36547   8.814   1.799  12.050  0.0132  0.2447 -0.1810
19700W        W36548   1.110   9.382  16.106 -0.3359 -0.1351  0.1956
19701W        W36549  13.860   3.582   3.380  0.0152 -0.0966 -0.0005
19702W        W36550   3.428   2.756  16.241  0.0419 -0.0311  0.1908
19703W        W36551   4.284  12.772   3.330 -0.1703 -0.0461  0.0896
19704W        W36552   8.442  17.767  13.204 -0.0623 -0.3499 -0.2435
19705W        W36553  13.926   6.184  13.340  0.0435  0.0823  0.1100
19706W        W36554  15.191   6.676  13.009  0.0569 -0.0088  0.1232
19707W        W36555   3.705   6.566  13.582 -0.2595 -0.1033  0.0060
19708W        W36556  14.561   7.743   0.182 -0.3955 -0.3174  0.1425
19709W        W36557  15.888  15.905   3.652  0.0596  0.1602  0.0509
19710W        W36558   1.069   1.381  15.374  0.1546  0.0441 -0.0614
19711W        W36559   0.304  16.646   0.467  0.2519 -0.3192  0.2085
19712W        W36560  17.189   8.590  11.629  0.0523 -0.1180  0.2883
19713W        W36561  14.146  13.372   3.997  0.0963 -0.2404 -0.1304
19714W        W36562   9.375   3.416  15.486  0.4357 -0.0494 -0.0180
19715W        W36563  16.244   2.539   4.497  0.1142 -0.0441  0.1028
19716W        W36564   6.917   0.528   3.697  0.1274  0.2711  0.1618
19717W        W36565  14.304  11.284  13.819 -0.2110  0.2070 -0.1456
19718W        W36566   1.002  13.472   2.509 -0.1124 -0.3503  0.3476
19719W        W36567  10.599   3.569   4.787 -0.0287 -0.0464  0.0647
19720W        W36568  14.544  12.156  11.524  0.0273 -0.2400 -0.2232
19721W        W36569  13.697  12.539  12.657 -0.0353 -0.1413 -0.0854
19722W        W36570   0.470   4.925  16.248  0.1936 -0.1158 -0.0061
19723W        W36571  16.619   3.494  13.178 -0.1267 -0.0436  0.1416
19724W        W36572   5.995   6.131   0.114 -0.0100  0.0085 -0.1317
19725W        W36573  13.522   4.115   2.850 -0.3141  0.0681 -0.2645
19726W        W36574  12.117   2.072  15.204  0.0303 -0.4738 -0.2119
19727W        W36575   3.020   2.367   3.363 -0.1472 -0.2920 -0.2759
19728W        W36576   1.391   6.935  13.306  0.0739 -0.2779  0.0932
19729W        W36577  11.595   0.615  11.251 -0.0994 -0.1286  0.0369
19730W        W36578  16.272   6.373   1.528 -0.2914  0.2405  0.3140
19731W        W36579  14.509   3.104  16.321 -0.2964  0.0649 -0.0423
19732W        W36580  13.075   0.319   0.198  0.1171 -0.0565 -0.0472
19733W        W36581  13.089   7.608  13.225 -0.1624 -0.1651 -0.3287
19734W        W36582   6.564  15.799   4.495  0.3102 -0.0082 -0.3337
19735W        W36583  17.406   8.196  13.057  0.0539 -0.0104 -0.2546
19736W        W36584   2.256  17.806   5.062  0.0021 -0.0293 -0.0797
19737W        W36585   0.922  13.498  11.040  0.2772 -0.0175  0.1470
19738W        W36586   7.220  10.321  13.509  0.0716  0.0236  0.5232
19739W        W36587   5.781   7.247   3.440 -0.0604 -0.1443  0.1941
19740W        W36588   0.375  17.823  13.834  0.1844 -0.0414  0.3204
19741W        W36589   9.298  10.444  13.729 -0.2632 -0.0879  0.2498
19742W        W36590  13.616   1.690  14.011 -0.1576 -0.1863  0.2998
19743W        W36591  16.506  16.371   1.488  0.1214 -0.0548 -0.1776
19744W        W36592   9.679  14.964   0.925 -0.1772 -0.0150 -0.1246
19745W        W36593   8.444   7.711   2.256 -0.0078 -0.0253 -0.2785
19746W        W36594  12.499  16.647  13.033  0.2617 -0.1231  0.0737
19747W        W36595  15.922  17.544   4.002  0.2296  0.1361  0.0371
19748W        W36596  10.281  11.079  12.139 -0.1370  0.2948 -0.4223
19749W        W36597   7.061  11.261   3.376  0.2938  0.0045  0.1674
19750W        W36598  11.817   8.534   1.544  0.1766  0.2253  0.0419
19751W        W36599   7.187   5.819   1.000  0.2689  0.2270 -0.0993
19752W        W36600   8.105  15.912  15.342  0.1389  0.1844  0.2355
19753W        W36601  17.437  16.569   1.649  0.1386 -0.3089 -0.0462
19754W        W36602  17.472  12.754   5.365  0.2081 -0.3362  0.2947
19755W        W36603  16.559   1.396  12.435  0.4894  0.0209 -0.0670
19756W        W36604  16.039  11.332   0.866 -0.1703 -0.0018 -0.4021
19757W        W36605  17.471  11.151  14.294  0.1152  0.0230 -0.0465
19758W        W36606   2.164  16.992   0.263  0.0008 -0.0338 -0.0582
19759W        W36607  13.489  14.486  12.991  0.0987 -0.0907  0.2658
19760W        W36608   7.768   2.548  16.047  0.2115  0.0482 -0.1523
19761W        W36609  11.286   9.306  14.241 -0.1924 -0.2463 -0.0368
19762W        W36610   5.576  11.245   1.384  0.1241  0.2008 -0.0052
19763W        W36611  14.832  14.748  13.905  0.1061  0.2123  0.3140
19764W        W36612   1.846   6.144  13.234  0.0510 -0.0290  0.0393
19765W        W36613  13.833  14.850  14.936  0.0461  0.1376  0.1135
19766W        W36614  15.581  16.662  13.227 -0.2050  0.0954 -0.4965
19767W        W36615  10.006   9.772  14.437  0.3741  0.0063  0.2884
19768W        W36616  11.410   5.385  12.769  0.0642 -0.1757  0.1963
19769W        W36617   7.256  17.356   4.441 -0.2069 -0.2201  0.0675
19770W        W36618   5.660   3.732   3.716 -0.2489 -0.0317 -0.2507
19771W        W36619  13.556  10.811   3.192 -0.1584  0.2236 -0.2791
19772W        W36620  15.051   9.111  13.339  0.2106  0.1538  0.2221
19773W        W36621  14.637   3.139   5.213  0.1040  0.0348  0.0785
19774W        W36622  14.283   7.736  15.408 -0.0105 -0.0604  0.2221
19775W        W36623  11.776   4.815  13.256 -0.1871 -0.0380 -0.1237
19776W        W36624  13.272   1.400   3.189 -0.0802 -0.0508  0.1494
19777W        W36625  10.560   1.109  15.131  0.2626 -0.0245 -0.3050
19778W        W36626  14.411  17.087  12.173 -0.1738  0.1451  0.0393
19779W        W36627  15.884  12.423   4.571 -0.0028  0.3084 -0.0073
19780W        W36628  11.176   8.836  14.462  0.0200  0.1784  0.1189
19781W        W36629  15.364  11.186   2.388 -0.0645 -0.1717 -0.0728
19782W        W36630  11.145  10.598  13.794 -0.0109  0.0472  0.2144
19783W        W36631  17.751  12.666  14.985  0.0278 -0.1022 -0.3562
19784W        W36632  18.039   2.554  11.704 -0.1867  0.1546  0.1213
19785W        W36633  14.916   7.229  15.488 -0.1239  0.2797  0.0045
19786W        W36634  17.387  16.094   1.645 -0.2422 -0.0424 -0.0231
19787W        W36635   4.384  14.208   3.379  0.0625 -0.1273  0.0891
19788W        W36636   9.722   7.876   5.575  0.0995 -0.1069  0.1054
19789W        W36637  10.089  16.896   2.614 -0.1431 -0.2565  0.0020
19790W        W36638  17.811  12.624   1.390  0.3585  0.2810 -0.1853
19791W        W36639  16.275   4.401  16.038  0.0142 -0.4032  0.1258
19792W        W36640   4.254  14.616   5.492 -0.1336 -0.1983  0.0279
19793W        W36641   6.120   5.897  11.567 -0.1236 -0.0019  0.1017
19794W        W36642   4.322  16.403  12.124  0.2154 -0.0103 -0.2144
19795W        W36643  14.546   2.520  14.271 -0.0320  0.2196  0.1825
19796W        W36644  11.529  10.228   3.977 -0.1132 -0.1329 -0.0343
19797W        W36645  13.419  16.193  16.233  0.0479 -0.1053  0.1427
19798W        W36646   7.127   9.681  15.813 -0.2312 -0.0632  0.1278
19799W        W36647  12.731   8.028   1.705  0.1348 -0.0918  0.1864
19800W        W36648  13.882  11.313   0.184 -0.0351  0.2172  0.0666
19801W        W36649  11.752   2.532   1.698 -0.0107 -0.1985  0.1191
19802W        W36650  12.407  16.522   2.708  0.3152 -0.2319 -0.0756
19803W        W36651   1.425   3.131  12.106  0.0552  0.0954  0.0544
19804W        W36652  10.282   1.867   4.373 -0.0711 -0.0704  0.4838
19805W        W36653  17.775   0.606  11.366  0.0857  0.2053  0.0458
19806W        W36654  10.680   9.307  15.997  0.2601 -0.1351 -0.0025
19807W        W36655  14.350  11.784  14.771 -0.1832  0.3776  0.1674
19808W        W36656  13.209   1.193   3.654 -0.1213  0.0069  0.1548
19809W        W36657  13.914   4.886   0.646 -0.0999  0.0424  0.0670
19810W        W36658  13.989   0.859   4.030 -0.0967  0.0274  0.0828
19811W        W36659   0.641  11.038   2.678 -0.0451  0.3811 -0.0974
19812W        W36660  10.467   6.582   4.200 -0.0147 -0.2364  0.2526
19813W        W36661  17.761  16.887  13.090  0.1016  0.2497  0.2028
19814W        W36662  18.036   8.584   0.656  0.1168 -0.0957 -0.1174
19815W        W36663  15.294   9.913   1.119  0.1476  0.0993 -0.2590
19816W        W36664   2.498  11.947   3.722  0.2598 -0.2611 -0.1185
19817W        W36665  10.048  12.776  16.010  0.1183  0.0953 -0.2801
19818W        W36666  13.964   6.418   5.156 -0.1517  0.4820  0.3636
19819W        W36667  13.861  12.243   0.108  0.3025  0.2763  0.1352
19820W        W36668   7.680   3.547  13.636  0.0172  0.1561 -0.1010
19821W        W36669   1.180  12.287   4.139 -0.0416 -0.2730  0.0800
19822W        W36670   6.095   7.385  14.499 -0.1370  0.0232  0.0872
19823W        W36671  11.078   9.971   5.693  0.1928 -0.0356  0.1496
19824W        W36672  13.485  14.336   0.341  0.0726  0.1302 -0.0456
19825W        W36673  12.085  14.075  13.482  0.0528  0.2625  0.1727
19826W        W36674   6.061   0.759   0.049 -0.2488  0.0999 -0.1157
19827W        W36675  11.089  13.583  16.274 -0.0562 -0.0626 -0.3291
19828W        W36676   3.878   5.691  12.392 -0.5177  0.0723 -0.0125
19829W        W36677   9.127   6.795   0.886  0.2648  0.2425 -0.1497
19830W        W36678   0.976   5.352   2.366  0.0509  0.3073  0.0925
19831W        W36679  14.345   2.914  12.017 -0.0449  0.2193 -0.0871
19832W        W36680  15.575   4.460   1.607  0.0714 -0.1971  0.0656
19833W        W36681   4.571  11.093  14.411  0.0848 -0.2176  0.0201
19834W        W36682  11.935   5.348   2.564  0.3226  0.2432  0.1467
19835W        W36683   6.607   6.518   3.877 -0.2321 -0.0622 -0.0854
19836W        W36684  12.777  11.441   4.132  0.0011  0.1077 -0.0975
19837W        W36685  13.499   3.673   3.947  0.3133  0.0794 -0.2227
19838W        W36686  17.873   7.402   3.508 -0.1622 -0.0148 -0.0270
19839W        W36687   4.358  11.910   0.737 -0.0402 -0.0169 -0.2019
19840W        W36688   7.926   0.607   0.587  0.4539 -0.2247 -0.1982
19841W        W36689   9.261   2.612   2.165  0.3278 -0.1788 -0.0643
19842W        W36690  14.135  10.292   4.275 -0.2369 -0.0358  0.3173
19843W        W36691   3.538   8.773   3.873 -0.2171  0.1347  0.1747
19844W        W36692   2.557   4.932   3.645  0.0873  0.2614 -0.1054
19845W        W36693   3.311   3.263   3.853  0.0190 -0.0009 -0.4297
19846W        W36694   6.176   1.146   0.308  0.0227  0.2418 -0.1397
19847W        W36695  12.874  10.771  15.073 -0.1470  0.0702  0.0140
19848W        W36696   2.627  11.974  13.654 -0.1615  0.1109  0.0623
19849W        W36697   1.640  17.830  12.571 -0.2541 -0.3184 -0.0626
19850W        W36698  17.413   3.576   2.964 -0.3895 -0.2813  0.1334
19851W        W36699   0.449  16.705  15.931  0.0853 -0.6216  0.0249
19852W        W36700  14.554   7.488   1.503  0.0101  0.0240  0.2184
19853W        W36701  12.989  14.050  15.433 -0.2079 -0.1745 -0.0967
19854W        W36702   9.250   5.774  13.935 -0.3286  0.1882 -0.3273
19855W        W36703   0.579   9.651   2.837  0.1553 -0.2144 -0.0743
19856W        W36704   1.417  16.701   1.786 -0.0248  0.1100 -0.0767
19857W        W36705   2.777   1.468  11.057  0.1632 -0.2599 -0.0793
19858W        W36706   9.052   9.264   2.882 -0.0956  0.2471 -0.3789
19859W        W36707   9.553   0.904   0.765 -0.1478  0.1142 -0.0083
19860W        W36708  17.748  10.997   4.963 -0.1769  0.0265  0.2082
19861W        W36709   3.604  14.448  15.607  0.1874  0.0571  0.0657
19862W        W36710   5.469  16.560  12.485 -0.2782 -0.0939 -0.0284
19863W        W36711   9.173   7.619   0.831 -0.1041 -0.2860 -0.0825
19864W        W36712   2.543  16.567   4.173  0.4074  0.1169  0.0743
19865W        W36713   7.600  17.584  13.474 -0.1357  0.1685  0.4050
19866W        W36714   7.336   6.636   2.894 -0.2417 -0.1477 -0.1320
19867W        W36715   2.394  10.795  11.845  0.1890 -0.0295  0.3970
19868W        W36716   3.793   5.072   0.939 -0.0861 -0.0108 -0.1451
19869W        W36717  16.061  13.862  13.951  0.1728  0.1282  0.0823
19870W        W36718   4.030   6.101   0.997 -0.0036 -0.1224  0.1248
19871W        W36719   3.342  14.723  15.967 -0.3121  0.3034  0.1917
19872W        W36720   5.655  17.649  15.460  0.2221 -0.3844  0.3335
19873W        W36721  10.260   5.831   2.702  0.3308 -0.0443 -0.0829
19874W        W36722  15.008   6.698  15.685  0.1110  0.2698 -0.1997
19875W        W36723  15.154  14.773  15.152  0.0250  0.0361 -0.3520
19876W        W36724   6.834   3.841  12.491  0.0018  0.0691 -0.2129
19877W        W36725   0.003  15.887   5.035  0.0302  0.2715 -0.4134
19878W        W36726  17.219  11.488   4.181 -0.4183  0.0570  0.0716
19879W        W36727   2.394  11.246  15.571  0.0662 -0.0207  0.0155
19880W        W36728   6.709   0.259   4.110 -0.0411  0.0622 -0.1180
19881W        W36729   1.427  10.642  14.761  0.1442  0.2725  0.2540
19882W        W36730   2.920  13.323   1.419  0.0830 -0.1130  0.2314
19883W        W36731   2.293   6.441   5.454 -0.1079  0.2747 -0.0533
19884W        W36732  13.296  14.110   2.721 -0.0185  0.2154  0.2494
19885W        W36733  14.317  15.157  13.341 -0.3041  0.0152  0.2283
19886W        W36734   3.339   3.738  13.736  0.1247 -0.0302  0.3466
19887W        W36735  14.393   0.464   3.940  0.1114 -0.0814 -0.0186
19888W        W36736  18.084   4.159   4.306  0.1550  0.0063 -0.1183
19889W        W36737   5.238  12.123   0.291 -0.0652  0.2618  0.0071
19890W        W36738  12.282  17.919   4.641  0.0099  0.1960  0.0500
19891W        W36739  13.428   4.890   0.989 -0.0608  0.1057 -0.0622
19892W        W36740  15.968   8.286   3.096  0.2255 -0.1035  0.1835
19893W        W36741  15.732   7.027   4.534  0.0522  0.0621 -0.2883
19894W        W36742   1.859  16.689   0.577 -0.2364  0.0641 -0.2950
19895W        W36743  13.601   9.026  14.232 -0.2153  0.1059 -0.0919
19896W        W36744   6.537  14.608  13.597  0.1460 -0.3009 -0.1724
19897W        W36745  17.381   8.994   1.336 -0.2733  0.0188  0.2409
19898W        W36746  14.936   6.938  11.435  0.1413  0.0409 -0.0583
19899W        W36747  10.082   5.141  12.544 -0.2484  0.0118  0.4215
19900W        W36748   6.520   0.222  15.982  0.1702  0.0725 -0.0334
19901W        W36749   5.452   3.072  12.460 -0.0537  0.2401 -0.3213
19902W        W36750  15.340  16.296  12.361  0.4013  0.0957 -0.0337
19903W        W36751   3.923  13.522   1.249  0.0269  0.1198 -0.0003
19904W        W36752   9.003  13.222  15.391  0.0501 -0.3133  0.3493
19905W        W36753   6.047   0.915  13.027  0.1568  0.2050 -0.2029
19906W        W36754  13.419  13.052  12.964  0.4278  0.1322 -0.0937
19907W        W36755   7.523  13.771  13.251  0.0275 -0.1957 -0.3132
19908W        W36756   4.226  15.860   0.895 -0.1488  0.0543  0.0513
19909W        W36757   0.562   7.434  14.996 -0.0529 -0.3736  0.0881
19910W        W36758   4.652  13.441  13.367 -0.0919  0.0953 -0.3401
19911W        W36759  13.359   7.365  12.220  0.0063  0.0201 -0.0948
19912W        W36760   2.358   4.850  14.690 -0.0680 -0.0935  0.3328
19913W        W36761  18.006  17.986   3.824  0.1580  0.2644 -0.1306
19914W        W36762  14.380  13.162  12.940 -0.2443 -0.2124  0.3124
19915W        W36763   8.971  14.723  13.134 -0.5135  0.1153  0.0474
19916W        W36764  11.669  16.068  13.465  0.1526  0.3345 -0.0239
19917W        W36765   9.173  14.045  12.559  0.1563 -0.2907  0.1585
19918W        W36766   9.710  13.665  14.398  0.1032  0.3284  0.2579
19919W        W36767   6.957   2.588  12.362  0.4185 -0.2512  0.1169
19920W        W36768  16.506  10.162  12.038  0.2751  0.3558  0.0000
19921W        W36769  14.838   2.112  14.257 -0.1149 -0.0032 -0.0827
19922W        W36770  15.977   1.143   0.868  0.2755 -0.0499  0.2054
19923W        W36771   4.104  10.588   3.661 -0.2433 -0.1404 -0.0015
19924W        W36772   9.785   4.793   2.398  0.1208 -0.0762 -0.1391
19925W        W36773  16.183   3.755   4.780  0.0951  0.1532 -0.3380
19926W        W36774   1.454   0.221  12.623  0.0645  0.1776 -0.1033
19927W        W36775   3.562   4.773   4.578 -0.0528  0.3808  0.1692
19928W        W36776   9.418  13.042  11.992 -0.0598  0.1604 -0.0655
19929W        W36777   1.116  16.097  15.229  0.2442  0.0495  0.0776
19930W        W36778   3.953   2.935  12.722  0.2496 -0.0264 -0.0546
19931W        W36779  10.985  16.686   1.657 -0.2264 -0.3672  0.2098
19932W        W36780  12.001  17.549  14.516 -0.2011  0.1387  0.1237
19933W        W36781  10.218   3.848  15.026  0.0797 -0.0362  0.2919
19934W        W36782  13.539   7.801  14.621  0.0614 -0.2591 -0.0710
19935W        W36783  18.081  11.895  15.887 -0.0708  0.0156  0.2754
19936W        W36784   1.584  10.127  14.894 -0.1527  0.0367 -0.6888
19937W        W36785   3.797  12.044  14.784  0.1237  0.0120  0.2898
19938W        W36786   1.183   4.600  10.889 -0.1432  0.0914  0.2386
19939W        W36787  10.492  13.635  15.039  0.0820 -0.1818 -0.3016
19940W        W36788   2.055  11.328  13.139  0.0464  0.2162 -0.0416
19941W        W36789  11.991  13.866  14.596  0.1175  0.0361  0.0658
19942W        W36790   6.305  14.315   2.704  0.2711  0.3084 -0.2446
19943W        W36791   6.425   3.977  10.941  0.0981  0.0978 -0.2380
19944W        W36792   8.483   4.620   3.012 -0.1648 -0.0398 -0.0024
19945W        W36793  16.634   5.187  11.949 -0.0526 -0.0224 -0.0838
19946W        W36794  14.627   1.038   0.858 -0.2295 -0.0986  0.2895
19947W        W36795  12.425  16.355   3.462  0.0675 -0.0376 -0.0083
19948W        W36796   0.860   8.692   2.244 -0.0909 -0.1882 -0.1670
19949W        W36797   4.824   4.802   2.996 -0.2656  0.2511 -0.3210
19950W        W36798   7.967   5.437  11.040 -0.1728 -0.0578 -0.1537
19951W        W36799  13.610  14.462   2.910  0.2920  0.1358 -0.4600
19952W        W36800   0.911   9.972  13.116 -0.2438 -0.2577  0.1241
19953W        W36801  13.960  13.538  15.128  0.0673  0.4356 -0.0002
19954W        W36802  17.384   5.139   2.089  0.2651  0.1649 -0.0898
19955W        W36803  15.847   9.202  11.745 -0.0649 -0.0009 -0.4035
19956W        W36804   6.411   0.000  13.491 -0.0384  0.1215 -0.0263
19957W        W36805  12.366   1.776  12.379 -0.0727 -0.0921  0.0067
19958W        W36806  16.039   2.036  12.407 -0.0373 -0.0754 -0.0812
19959W        W36807   2.615  12.287   3.423  0.0091 -0.0977 -0.3392
19960W        W36808   2.266   4.732   4.656 -0.0492 -0.0025 -0.0186
19961W        W36809  17.567   5.983   3.785 -0.3137 -0.2667  0.2594
19962W        W36810   2.108   8.275  15.865  0.0379 -0.0437  0.1268
19963W        W36811  13.930  10.261  11.778  0.0230  0.0923 -0.1257
19964W        W36812   7.876   3.244  13.941  0.0699 -0.0331  0.1360
19965W        W36813  13.667  13.905   6.066  0.0060  0.1876  0.1081
19966W        W36814  10.609   8.321  16.253  0.0635 -0.0940  0.1319
19967W        W36815   7.763  15.169  14.253 -0.2546  0.1179 -0.0136
19968W        W36816   0.357   7.339   4.553  0.3384  0.0431 -0.0897
19969W        W36817   6.088   2.681  11.364  0.0773 -0.0059  0.1198
19970W        W36818   4.219   9.037   2.575 -0.1793 -0.1376 -0.1258
19971W        W36819   9.694  16.205  12.497 -0.1262 -0.6393 -0.0322
19972W        W36820  15.953  14.394  13.579  0.0588  0.0427 -0.1702
19973W        W36821  10.427  12.360   3.301  0.3668 -0.0092  0.4003
19974W        W36822   0.838   0.044  11.500 -0.1411 -0.1860 -0.3534
19975W        W36823  17.446   4.382   0.031 -0.1337 -0.1817 -0.2505
19976W        W36824  15.849  11.510  12.568 -0.0604  0.0297 -0.2516
19977W        W36825  13.326  16.959   2.400  0.1290  0.0246 -0.2473
19978W        W36826  10.201   2.815   4.734  0.2676 -0.4126  0.0367
19979W        W36827   8.162   2.726   1.116 -0.0729 -0.5965 -0.0851
19980W        W36828  10.458   3.567   2.443  0.2210 -0.1592 -0.1169
19981W        W36829  14.612  12.842  12.634  0.0209  0.1491 -0.2470
19982W        W36830   4.623  10.103  16.173  0.2649 -0.1094 -0.0544
19983W        W36831  11.980  16.117   1.544  0.2170  0.0918  0.0392
19984W        W36832   4.328   9.433  14.050  0.1379  0.1293 -0.2999
19985W        W36833   9.268  15.941   5.203  0.0807 -0.1882 -0.0507
19986W        W36834   1.650  14.961   3.649  0.1821 -0.2289 -0.0831
19987W        W36835   4.408  15.017   4.761  0.1198  0.2009 -0.3380
19988W        W36836   0.493  11.239  15.257  0.3049  0.2923 -0.2076
19989W        W36837  11.475  11.611   2.797  0.3389  0.0970  0.0647
19990W        W36838   7.196  13.988   0.117  0.3444  0.0395 -0.0730
19991W        W36839  17.534  17.147   3.015  0.0502 -0.0448  0.4244
19992W        W36840   5.650  14.288  14.555 -0.0208 -0.1078 -0.1366
19993W        W36841  10.895  10.901  10.405 -0.1894 -0.0403 -0.0182
19994W        W36842   7.105  15.632  14.421  0.2445 -0.3410  0.3590
19995W        W36843   6.452   1.403   2.878  0.0095  0.0175  0.2390
19996W        W36844   1.896   9.477  14.588 -0.1653  0.2340  0.0153
19997W        W36845  17.431  17.764  14.150 -0.0050  0.2262 -0.1962
19998W        W36846   7.748   8.854   1.177 -0.2106 -0.3213  0.0583
19999W        W36847   0.129   8.848  14.825 -0.1893  0.0488 -0.0461
20000W        W36848  15.693   0.189   2.384 -0.1398 -0.1460 -0.1385
20001W        W36849   5.689  12.256   0.543 -0.1099  0.0164  0.3120
20002W        W36850  15.479   9.377   4.504 -0.2262  0.2140  0.1109
20003W        W36851   2.748   4.107   5.279 -0.4484 -0.4147 -0.1976
20004W        W36852  14.850   8.686   3.083  0.3472 -0.0464 -0.0249
20005W        W36853  13.488  11.190  14.109 -0.0311 -0.3075  0.3765
20006W        W36854  14.029   1.114   0.306  0.0363 -0.2795 -0.0588
20007W        W36855   8.835   6.790   5.564 -0.0808 -0.1535 -0.1713
20008W        W36856  17.515  17.683   0.614  0.0950  0.3743  0.0699
20009W        W36857   7.979  13.280   3.305 -0.1590 -0.1514  0.0004
20010W        W36858   9.413  17.705   3.045 -0.1640  0.0192  0.2465
20011W        W36859   9.456  13.736  15.704 -0.0320 -0.2038 -0.2127
20012W        W36860  15.962   3.682  12.764  0.0122 -0.3203 -0.2212
20013W        W36861   7.670  13.537  11.789 -0.0334 -0.0452 -0.1827
20014W        W36862   3.553  11.750  13.471 -0.3327  0.0873  0.0686
20015W        W36863  14.886   5.633   4.541 -0.4303 -0.1808 -0.0914
20016W        W36864   5.221   6.113   3.418  0.0367  0.0389 -0.0610
20017W        W36865   0.162  17.546  15.511 -0.0151 -0.1631 -0.0521
20018W        W36866   0.266   1.302   1.591  0.1177 -0.1265 -0.0534
20019W        W36867   8.489   2.687  16.200 -0.2581 -0.2032  0.1669
20020W        W36868  17.329   7.240   3.615 -0.1462  0.0493  0.1250
20021W        W36869  14.965  16.575  11.940  0.0651  0.0888 -0.3920
20022W        W36870  11.936   5.154  14.593 -0.1431 -0.3593 -0.2152
20023W        W36871  12.886  10.292   5.908  0.4595  0.1417  0.4146
20024W        W36872   5.715  16.735   3.531  0.2649  0.0789  0.1090
20025W        W36873   0.235  17.115   4.206 -0.0438 -0.0792  0.3815
20026W        W36874   0.193  12.666   1.449 -0.1301  0.1139  0.1011
20027W        W36875   1.493   1.763   2.351 -0.0878  0.3540  0.0447
20028W        W36876   8.117   2.019  12.550 -0.0009  0.3052  0.0534
20029W        W36877  12.334   7.674   4.450  0.1385 -0.0798  0.0635
20030W        W36878  10.704   2.244  13.817  0.2482  0.0804 -0.0381
20031W        W36879  15.725   9.104   3.415 -0.0578  0.0841  0.3356
20032W        W36880   3.921  11.780   1.882  0.0225  0.2424 -0.0245
20033W        W36881   1.389   4.004  16.269 -0.1286 -0.1320  0.0196
20034W        W36882   1.482  15.557   0.011 -0.5323 -0.0741  0.2808
20035W        W36883   7.586  17.325  12.104  0.3377  0.0102  0.1635
20036W        W36884  14.983  10.504   6.046 -0.0637 -0.0686 -0.0130
20037W        W36885  14.859   7.212  11.974 -0.1497 -0.0400 -0.0426
20038W        W36886   8.900  17.567  12.380  0.1662 -0.1248 -0.1381
20039W        W36887  10.820   3.326  10.817 -0.3318 -0.1057  0.4491
20040W        W36888   7.285  13.851   2.566  0.0522 -0.1011  0.0639
20041W        W36889   3.449   8.212   1.896 -0.2876 -0.0667 -0.0703
20042W        W36890  15.425   0.280   1.898  0.2068 -0.1753 -0.0280
20043W        W36891  16.802   5.662  14.336 -0.0186  0.2001  0.0621
20044W        W36892  15.176  10.287   3.171 -0.2202  0.0904  0.0249
20045W        W36893   2.329   4.417  13.177 -0.4989  0.2468 -0.0046
20046W        W36894   9.167   5.174   3.551 -0.0820  0.5838  0.1430
20047W        W36895  14.887  16.214   0.113  0.1095  0.0762  0.3344
20048W        W36896  11.143  15.391  11.865 -0.2063 -0.0315 -0.0018
20049W        W36897   6.014   3.018  15.764 -0.2869 -0.2444 -0.2278
20050W        W36898  12.970  10.486   5.048  0.0435  0.1847  0.0335
20051W        W36899  17.312  16.205   5.581 -0.0138  0.1873  0.1268
20052W        W36900   9.281   5.451  15.456 -0.1009 -0.3307  0.1019
20053W        W36901  17.248  16.411  14.149  0.4002 -0.2171  0.1586
20054W        W36902  13.278   4.419  15.297  0.0424  0.1843  0.1389
20055W        W36903  11.183  15.951   5.111 -0.0162  0.0083 -0.1210
20056W        W36904   5.894   7.609  15.059  0.1597 -0.1503  0.0357
20057W        W36905   9.224   9.568  12.755  0.0273 -0.2848 -0.1595
20058W        W36906  17.683  15.304   0.334  0.1831 -0.0402  0.1644
20059W        W36907   5.236  14.955  12.159 -0.0462  0.2165 -0.2827
20060W        W36908  13.767   0.697  13.792  0.0654 -0.2821 -0.2077
20061W        W36909   7.622  15.487   4.832 -0.1365  0.0212 -0.0462
20062W        W36910   9.511   8.040   2.952  0.0793  0.0294 -0.0506
20063W        W36911  13.173  17.996   0.463 -0.0327 -0.1892  0.0812
20064W        W36912  14.153   7.132   1.463  0.0058  0.1598  0.1271
20065W        W36913  17.992   1.485  15.783 -0.0491  0.0996  0.1448
20066W        W36914  16.230  16.344  15.128 -0.0620  0.2802  0.1903
20067W        W36915  12.226  10.295   4.917 -0.1352 -0.0783 -0.0165
20068W        W36916  14.453   9.815  13.154 -0.1507  0.3016 -0.0049
20069W        W36917  17.851  13.011  11.785  0.0971 -0.0256 -0.0248
20070W        W36918  15.083  12.191   2.224 -0.4377  0.3150 -0.2166
20071W        W36919  10.086  11.453  12.921 -0.1466 -0.0883  0.1139
20072W        W36920  16.430  16.034   6.018  0.3824 -0.2105  0.1841
20073W        W36921   9.475   2.940  15.324 -0.1809 -0.2868 -0.1289
20074W        W36922  11.160   0.322  11.950 -0.2433  0.0918 -0.2255
20075W        W36923   8.084  10.460   5.215 -0.1108  0.2751  0.0605
20076W        W36924   8.006   3.320   4.904 -0.0617 -0.1090  0.0738
20077W        W36925  17.422   2.050  12.812  0.1447 -0.0194  0.1121
20078W        W36926   3.068  15.794   0.890  0.3466 -0.0413 -0.1814
20079W        W36927   4.166  12.726   2.770 -0.3035  0.2599 -0.0440
20080W        W36928   3.028  13.012  14.327  0.1824  0.1861 -0.0980
20081W        W36929   3.793  12.986   2.246 -0.1868  0.0008 -0.0063
20082W        W36930  11.839  17.362  13.238  0.0177 -0.0719 -0.1610
20083W        W36931  16.884   8.078   3.897  0.0985  0.2400  0.0704
20084W        W36932   3.127  14.824  15.403 -0.0337  0.1325  0.5416
20085W        W36933   1.657   1.066  13.640 -0.3678 -0.0009 -0.4619
20086W        W36934   6.545   6.720  14.408 -0.2287 -0.0443  0.2109
20087W        W36935   4.097   7.931   4.566  0.1245  0.2452  0.0284
20088W        W36936  12.265   9.548  13.405 -0.1875 -0.1523  0.0095
20089W        W36937  10.030  10.104   0.615 -0.1122  0.0518  0.3286
20090W        W36938  12.583   7.459   0.289  0.0361  0.1829  0.3742
20091W        W36939   5.995  10.214  15.029 -0.1871 -0.0353  0.0893
20092W        W36940  14.702  17.128   2.948  0.0311 -0.1906 -0.0963
20093W        W36941   9.342  14.160  10.358 -0.1765 -0.2847  0.4379
20094W        W36942   2.992   6.262   4.040 -0.0247  0.4283 -0.0896
20095W        W36943  14.613   7.248   3.456  0.2623 -0.2546 -0.0336
20096W        W36944  15.661   3.053   1.819 -0.3752 -0.1302  0.0979
20097W        W36945   8.682   7.868  16.237 -0.0528 -0.1969 -0.3101
20098W        W36946  14.046  11.597   0.567  0.2895 -0.0667  0.0631
20099W        W36947   0.795   5.216   4.598 -0.0835 -0.1807  0.6148
20100W        W36948   5.574  17.013  11.658  0.3306  0.0467 -0.0514
20101W        W36949  12.492  16.608  15.292 -0.0239  0.2247  0.0124
20102W        W36950   4.348  13.894  16.072 -0.1601  0.2161 -0.1016
20103W        W36951  13.912   4.754  13.187  0.0180  0.1571  0.1633
20104W        W36952   0.805   0.506  15.283 -0.0720 -0.0678 -0.4369
20105W        W36953   9.262   2.306  15.990  0.1722 -0.1964  0.3844
20106W        W36954   5.551   4.344  12.855 -0.0961  0.2267 -0.2882
20107W        W36955   7.114  12.358  11.626 -0.1157  0.1902  0.1061
20108W        W36956  12.094  12.828   1.367  0.3414  0.2568  0.3347
20109W        W36957  12.125  15.862  15.764  0.2114  0.1557  0.2150
20110W        W36958  17.715  13.778   2.252  0.2566  0.0280 -0.1387
20111W        W36959   4.962   6.059  10.757 -0.0507 -0.0506  0.0496
20112W        W36960   9.255  16.299  12.149  0.1392  0.0833  0.0713
20113W        W36961  18.012  14.247  16.187  0.1347 -0.0986 -0.0516
20114W        W36962   1.355  17.695  16.170 -0.3328 -0.0189  0.1171
20115W        W36963  16.803  15.326   0.656  0.5701  0.2420  0.0386
20116W        W36964   2.297   9.512   0.078 -0.1866  0.0503 -0.1702
20117W        W36965   8.522   7.104  16.319 -0.2139  0.0466  0.3213
20118W        W36966   3.599  11.340  16.168 -0.2226  0.1655 -0.0068
20119W        W36967  11.484   8.343  10.939 -0.3226 -0.1581 -0.0174
20120W        W36968   6.445  15.182   3.735 -0.1863  0.1168  0.1491
20121W        W36969   4.733  15.848   1.029 -0.0432  0.1624  0.1216
20122W        W36970   0.762  16.154   2.052 -0.1586 -0.4398  0.0779
20123W        W36971   1.254  14.820   1.763  0.0331  0.3001 -0.0399
20124W        W36972  16.235   5.031  11.567 -0.4691 -0.1788  0.1134
20125W        W36973  11.726   7.421  11.227 -0.0729  0.0906 -0.1424
20126W        W36974   4.408   6.568  11.142  0.2417  0.2215  0.0439
20127W        W36975   4.801   6.915  16.251 -0.0871 -0.1275  0.0049
20128W        W36976  15.162   5.645   3.743  0.0789  0.4036  0.0786
20129W        W36977  17.434   3.458   1.254  0.3534 -0.1425 -0.0097
20130W        W36978   3.422  13.047   4.446 -0.0150  0.0204 -0.0604
20131W        W36979   8.135  11.428  15.085 -0.0235  0.1025 -0.0374
20132W        W36980  11.825   2.957  11.377 -0.2179  0.1518 -0.2163
20133W        W36981   1.123   4.796   0.745  0.1791 -0.1676 -0.0000
20134W        W36982   6.999   7.302   1.341  0.1601 -0.0704 -0.1175
20135W        W36983   8.876   4.908  13.104 -0.1289 -0.3048  0.0113
20136W        W36984  16.974   5.795  13.259 -0.1691  0.2494  0.0948
20137W        W36985  12.241   5.230   2.128 -0.1743 -0.0873  0.1403
20138W        W36986   4.260   0.545   1.522 -0.0260 -0.1408  0.0273
20139W        W36987   2.006   3.649   3.447 -0.2877 -0.2571 -0.2063
20140W        W36988   7.743   5.667   3.810  0.3206  0.2263 -0.1102
20141W        W36989   2.423   5.490  13.219  0.0102  0.0305 -0.0081
20142W        W36990   2.121   6.684  14.236 -0.3580 -0.2106 -0.1137
20143W        W36991   9.975   0.943   2.800  0.1490 -0.1064 -0.1849
20144W        W36992  12.628   1.533  12.074  0.0528  0.2108 -0.1965
20145W        W36993  10.193  17.991   0.028  0.1027 -0.2201 -0.2258
20146W        W36994  16.527  14.752  14.119 -0.0935 -0.1826 -0.3256
20147W        W36995  13.914   9.507  14.480  0.2207  0.2726  0.2115
20148W        W36996  13.144   3.091  16.308 -0.4339  0.0342 -0.1343
20149W        W36997  14.529  15.842   0.677  0.1605 -0.0951 -0.3421
20150W        W36998   8.261  11.387  14.117  0.1135  0.3872 -0.0109
20151W        W36999  17.759  15.005  15.747 -0.2580  0.1980  0.1245
20152W        W37000   3.956   9.925   4.555 -0.1099 -0.1880 -0.0670
20153W        W37001   0.887   8.973  14.625  0.0885  0.0108  0.0003
20154W        W37002  17.247   6.682   6.233  0.3014  0.2767 -0.0684
20155W        W37003   8.696  14.475  11.465  0.0610 -0.1409 -0.2192
20156W        W37004  16.296   7.193  14.531 -0.0324 -0.1526 -0.0089
20157W        W37005   6.034   0.574   4.933  0.0141  0.0867 -0.0448
20158W        W37006  11.849  12.765   2.951 -0.1962 -0.1347 -0.0063
20159W        W37007   5.743  17.720  13.734 -0.2376 -0.0503  0.3062
20160W        W37008   5.780   8.745   1.403 -0.1337 -0.0773 -0.1893
20161W        W37009  17.725   9.115  15.043  0.0581  0.2613  0.0567
20162W        W37010  15.350   3.810   0.414  0.2427  0.1780  0.1042
20163W        W37011  10.622  17.657  11.234  0.2388 -0.3230  0.1190
20164W        W37012   2.384   8.322  12.045  0.0226  0.0596 -0.2343
20165W        W37013  11.361  10.618  13.081  0.1675 -0.2272 -0.0830
20166W        W37014   0.435  12.373  10.601 -0.1075 -0.3433  0.0699
20167W        W37015   3.380   6.221  13.908  0.0496  0.1722 -0.0799
20168W        W37016   0.367   0.348   4.861 -0.3081  0.0754  0.0259
20169W        W37017  14.913   4.353  15.777 -0.1650 -0.1626 -0.0254
20170W        W37018  10.003  13.519   2.494 -0.0499 -0.2609  0.1599
20171W        W37019  16.207   3.922   3.213 -0.2147 -0.1918  0.1769
20172W        W37020   3.035   1.116   3.790 -0.2662 -0.3040  0.0864
20173W        W37021   1.572   1.378  14.922 -0.0848 -0.5150  0.1862
20174W        W37022  15.921   0.446   1.947 -0.2055  0.2104 -0.0223
20175W        W37023  13.332  12.626  11.258  0.4364  0.0150 -0.2739
20176W        W37024   7.501  15.325  12.380 -0.1556 -0.0894  0.0641
20177W        W37025   2.805   7.155  15.301 -0.0187 -0.0017  0.0548
20178W        W37026   2.550  14.298  12.275  0.1724 -0.2593 -0.2065
20179W        W37027  10.633   0.869   4.473 -0.1351  0.1054 -0.1427
20180W        W37028  10.373  12.689   3.675 -0.3335 -0.0981  0.0905
20181W        W37029  17.777   1.537   2.685  0.0155  0.2110 -0.1239
20182W        W37030  18.062   0.006   4.910  0.2518  0.2722 -0.3911
20183W        W37031  11.094   6.798  12.622  0.2409 -0.3334 -0.1193
20184W        W37032   3.435  13.120  12.058 -0.3012  0.1572 -0.0264
20185W        W37033  13.814   5.727   0.128 -0.4256 -0.3004 -0.3006
20186W        W37034  16.407   1.333   4.759  0.3177 -0.3386  0.1067
20187W        W37035   5.141   0.838  15.460 -0.0008  0.0956  0.0942
20188W        W37036   7.003   6.868  12.046 -0.0360  0.2306  0.2008
20189W        W37037  18.014   8.695  12.961  0.2225  0.0018 -0.1750
20190W        W37038   3.676  11.911  15.350  0.2226 -0.3196 -0.2097
20191W        W37039   2.473  13.094   0.593 -0.0122 -0.3071  0.0305
20192W        W37040   1.147  10.045   5.541 -0.3710  0.0803 -0.0928
20193W        W37041   1.293  16.934   4.828  0.0438 -0.2934 -0.1401
20194W        W37042   2.132   0.164  13.302  0.0646  0.0750  0.0690
20195W        W37043   4.524  10.221   3.631 -0.1462  0.1376 -0.0251
20196W        W37044  15.103   4.118   0.758 -0.0944 -0.3345 -0.0955
20197W        W37045  16.327  17.372  13.378 -0.1652 -0.0289 -0.5274
20198W        W37046   0.176   9.250   2.044 -0.0793  0.0214  0.0801
20199W        W37047   2.134  11.430  14.806 -0.0535 -0.3760 -0.2617
20200W        W37048  15.130  17.956  10.773 -0.1889  0.2498 -0.0886
20201W        W37049  17.341  16.384   5.104 -0.4900  0.1941  0.1219
20202W        W37050  12.764  16.965  11.522 -0.1929  0.1920  0.2433
20203W        W37051  17.407  12.274  13.458  0.1626  0.1114  0.0731
20204W        W37052  16.099   8.778   2.630 -0.0465  0.0197  0.1810
20205W        W37053   6.252   0.542  13.280  0.0767  0.0253 -0.0506
20206W        W37054   9.923  10.913   2.291  0.0446  0.0853 -0.1397
20207W        W37055  16.877   5.892   0.586  0.0373 -0.1044  0.2071
20208W        W37056  17.940   1.551  14.362 -0.1465  0.0595  0.0661
20209W        W37057  17.153   4.567   2.117 -0.1469  0.0013  0.3702
20210W        W37058   2.558  10.510   3.062 -0.0588 -0.3544 -0.0690
20211W        W37059   0.059  13.275  11.503  0.1815  0.2181  0.0037
20212W        W37060   1.839   6.534  12.873  0.4303 -0.0949  0.2244
20213W        W37061   6.458   0.115  14.905 -0.0670  0.2698 -0.2147
20214W        W37062   8.386   2.832   3.872  0.2282 -0.2003  0.0436
20215W        W37063  10.654  12.502   0.057  0.1875  0.2966 -0.1539
20216W        W37064  14.624   3.545  16.082  0.0652 -0.2108  0.0895
20217W        W37065  14.352  12.053  16.108  0.0694  0.1568 -0.1571
20218W        W37066   6.313   2.876  14.748 -0.0382 -0.0626  0.0557
20219W        W37067  12.367   6.516  11.752 -0.1928  0.0721 -0.2211
20220W        W37068   0.638   2.220   2.018 -0.0393 -0.0097  0.0899
20221W        W37069  12.330  12.157   2.347  0.0086 -0.0542 -0.1089
20222W        W37070   0.362   7.381   5.107 -0.0955 -0.0619 -0.3721
20223W        W37071  15.541  15.662  12.137  0.1149 -0.1811 -0.1636
20224W        W37072   8.954   4.657   2.673  0.1941 -0.0086  0.1606
20225W        W37073   9.732  15.053  15.902 -0.0301 -0.2420  0.0517
20226W        W37074  11.169   6.983  14.598 -0.1231 -0.1291 -0.0588
20227W        W37075  15.416   0.955   1.838  0.0679 -0.0790  0.0123
20228W        W37076   2.937  13.836   0.134 -0.0007 -0.1644 -0.0624
20229W        W37077  10.981  12.793   5.015  0.0292 -0.0374  0.0152
20230W        W37078  14.086  16.483   0.586  0.2155  0.0260  0.1223
20231W        W37079  14.790   6.531   5.043 -0.2360 -0.0493  0.0759
20232W        W37080   0.657   7.861   3.496  0.5114 -0.0201  0.0583
20233W        W37081   3.436   5.748   1.328 -0.1959  0.2084  0.0870
20234W        W37082   6.464  15.446   5.956  0.0768 -0.0134  0.0200
20235W        W37083   1.883   6.360   1.903 -0.0703 -0.1536 -0.0056
20236W        W37084   1.488   6.580   1.063 -0.2274  0.2146  0.1844
20237W        W37085  14.185  12.290  11.882  0.0773 -0.0211  0.1629
20238W        W37086  17.141   4.143  14.873  0.1057 -0.1801 -0.3843
20239W        W37087  12.252  15.541   2.563  0.0406 -0.2460  0.0435
20240W        W37088   5.469  16.348   4.950  0.0194 -0.0018 -0.1144
20241W        W37089  10.243   4.172  12.802  0.0430  0.1324 -0.2501
20242W        W37090   3.343  16.257   0.606 -0.1462  0.0516  0.3232
20243W        W37091   0.855  15.011  11.824  0.1083 -0.2881 -0.0852
20244W        W37092  17.775  17.577   0.187 -0.0507 -0.2225  0.1123
20245W        W37093  12.689  12.812  10.265 -0.0861  0.2799 -0.0296
20246W        W37094  10.104   9.716  12.250  0.1693  0.2656  0.0983
20247W        W37095  13.655   3.743  12.376 -0.1721 -0.0833 -0.1170
20248W        W37096  16.008  10.373   1.543  0.1055  0.1671 -0.1504
20249W        W37097  11.160   1.741  12.063  0.1468 -0.3563 -0.3929
20250W        W37098   1.240   0.228  11.817  0.1410  0.0664 -0.0474
20251W        W37099  15.220   9.094   2.476 -0.0852  0.0278 -0.1213
20252W        W37100   9.460  14.864  13.353 -0.3380 -0.3289  0.0995
20253W        W37101  11.597  17.423  11.404  0.0667  0.4489  0.1832
20254W        W37102   3.600   6.880  14.767 -0.1731 -0.1765  0.0208
20255W        W37103   9.337  15.839  12.379 -0.1294  0.2229  0.0785
20256W        W37104  17.337  14.840   4.822 -0.2963 -0.0518 -0.1233
20257W        W37105   7.377  16.308   2.419 -0.2566  0.1058 -0.3861
20258W        W37106   8.814   9.708  15.355  0.0389  0.0799 -0.2217
20259W        W37107  11.739  11.539  13.231  0.2007 -0.0278  0.1320
20260W        W37108   5.398  16.732  12.935 -0.0455 -0.0633 -0.4099
20261W        W37109  10.209   7.884  12.134 -0.3789 -0.0695  0.1052
20262W        W37110   6.748  12.772   2.225 -0.1302 -0.0092  0.1622
20263W        W37111   9.510   3.855   1.734 -0.2786  0.0305 -0.1376
20264W        W37112   5.384   2.421  14.776 -0.0875  0.0044 -0.4389
20265W        W37113   6.276   1.076  15.274 -0.0164  0.1139 -0.1514
20266W        W37114  10.670   2.199  15.309 -0.0342 -0.0104 -0.1515
20267W        W37115   2.027   2.248   3.190 -0.0119 -0.1110  0.3235
20268W        W37116   7.526   3.284  13.190 -0.1220  0.0924 -0.1421
20269W        W37117  13.701  11.259  14.548  0.0143 -0.1578 -0.3049
20270W        W37118  15.856   3.869   1.130  0.3188  0.1673 -0.0285
20271W        W37119  17.911   5.647  15.869 -0.0553  0.0187 -0.1151
20272W        W37120   4.053  12.360  15.019  0.0282 -0.0757 -0.1073
20273W        W37121  14.421  11.462  11.604  0.2366 -0.1241 -0.0780
20274W        W37122   2.866   6.875   4.842 -0.0804 -0.0669 -0.1850
20275W        W37123   9.406   7.691   4.468  0.2474 -0.1801 -0.0866
20276W        W37124  17.213  15.428  11.455  0.2276 -0.0847 -0.3666
20277W        W37125   6.197   4.929  10.981 -0.1228 -0.2076 -0.4969
20278W        W37126   0.452   2.717  13.712  0.1966 -0.0570 -0.1968
20279W        W37127   7.646   4.967   1.996 -0.0121  0.0263 -0.1623
20280W        W37128   6.522   0.429  12.094 -0.0169 -0.4509 -0.0840
20281W        W37129   9.637   8.783   1.104  0.1682 -0.1964  0.2470
20282W        W37130  10.697   8.214   1.807  0.0524 -0.0808 -0.0784
20283W        W37131   3.502   1.171  12.529 -0.1312  0.1595 -0.1776
20284W        W37132   7.956   1.821   0.084 -0.0094 -0.0129  0.2246
20285W        W37133   7.158  11.316   1.011 -0.0013 -0.0716 -0.0423
20286W        W37134   3.829  17.290   1.944 -0.0397 -0.0100  0.0125
20287W        W37135  14.500  14.140   4.408 -0.1237  0.4639  0.2948
20288W        W37136   1.907   3.456  12.376  0.2546  0.1604  0.0748
20289W        W37137   4.838   2.753  14.878 -0.0848 -0.1771 -0.2173
20290W        W37138   2.091   8.248   0.393  0.0393  0.0324  0.0629
20291W        W37139   1.282  15.189  15.418 -0.3301  0.1256 -0.2873
20292W        W37140   4.917   2.776   3.391 -0.0264  0.0763 -0.0911
20293W        W37141   9.212   4.931  15.541  0.0436  0.1255  0.0054
20294W        W37142  10.965   6.172  14.454 -0.2642 -0.0624 -0.0060
20295W        W37143   2.032   3.107   3.603  0.0737  0.0214  0.0797
20296W        W37144   6.496  17.316  12.820 -0.3073 -0.1172 -0.1566
20297W        W37145  13.081   9.872  15.088  0.1780  0.0110  0.3727
20298W        W37146  10.554  15.016   1.531  0.0698 -0.2823 -0.2565
20299W        W37147  11.404  17.410   4.485  0.0491  0.0947  0.1262
20300W        W37148  13.279   3.635  10.946 -0.0286  0.0302  0.2738
20301W        W37149   3.761   1.157   3.838 -0.0852 -0.2357 -0.1076
20302W        W37150  15.964  11.947   2.937 -0.1414  0.1856 -0.1387
20303W        W37151  15.274   2.840   2.065  0.1409 -0.0202 -0.1789
20304W        W37152   3.705   5.856   2.336 -0.1193 -0.2140  0.3737
20305W        W37153  11.791  15.015   2.860 -0.1111  0.3327 -0.0937
20306W        W37154  17.980  16.987   1.160  0.2175  0.1497 -0.3600
20307W        W37155  15.091  15.248   0.010 -0.0679 -0.0428 -0.0809
20308W        W37156  14.317   0.976  11.009 -0.0987 -0.1000 -0.1211
20309W        W37157  17.816  15.260   4.643 -0.0987  0.1053 -0.1371
20310W        W37158   1.982  10.600  14.369 -0.2379 -0.1122  0.3689
20311W        W37159  17.923   4.644   4.290  0.3001  0.1490 -0.3257
20312W        W37160  12.395   1.386   4.039  0.4518  0.1956 -0.0174
20313W        W37161   5.618   3.267  15.253  0.4256  0.4100  0.2693
20314W        W37162   2.782   8.500   4.738 -0.4411 -0.1405  0.1756
20315W        W37163   4.680   9.522   1.508  0.5609  0.1233 -0.3043
20316W        W37164   0.493   3.710   1.245  0.2273  0.1929  0.0460
20317W        W37165   2.577   9.449   4.713 -0.1191  0.0357  0.1473
20318W        W37166   2.419   1.406  16.100 -0.0274 -0.1040  0.0578
20319W        W37167  13.557  18.004  13.612 -0.2401  0.1141  0.0159
20320W        W37168  16.153   3.265   0.508  0.1060  0.0522 -0.1801
20321W        W37169   9.959   7.181   2.841  0.1001 -0.2976  0.2655
20322W        W37170   7.802  11.872   2.416 -0.1754 -0.0703 -0.0195
20323W        W37171   9.613  17.208   0.970 -0.1503 -0.1662 -0.0226
20324W        W37172  13.684  17.104   3.282 -0.0254  0.1053 -0.0493
20325W        W37173   1.897  16.723  11.608 -0.1874 -0.2200  0.0600
20326W        W37174  13.497   8.142  13.722  0.1603  0.1262  0.1283
20327W        W37175   4.568   4.610   1.171  0.0037  0.1071  0.0290
20328W        W37176  13.875   2.782  12.812 -0.0375 -0.0943  0.2715
20329W        W37177   4.209   6.194   1.507 -0.0672 -0.0157 -0.0022
20330W        W37178   0.772  18.004   0.077 -0.0662 -0.0658 -0.1477
20331W        W37179   5.511   1.484  14.217  0.1041 -0.2902  0.1636
20332W        W37180  15.582  16.350   6.314 -0.0595  0.1607  0.2150
20333W        W37181  12.931   9.054  12.648  0.1342  0.5843  0.1253
20334W        W37182   6.678   0.295  13.154 -0.0803 -0.1700  0.0534
20335W        W37183   2.326  11.981   5.850 -0.0268  0.0507 -0.0952
20336W        W37184   2.865  10.119   5.274 -0.3234  0.2084  0.1551
20337W        W37185   1.255  14.491  12.536  0.3215 -0.3397 -0.0693
20338W        W37186   1.304  16.855  16.115 -0.3837  0.2073 -0.1873
20339W        W37187  10.476  13.685  12.799  0.0566 -0.1475 -0.1321
20340W        W37188  12.316   0.205   5.064 -0.0202 -0.1530 -0.2958
20341W        W37189  12.616  12.218   0.289 -0.0262 -0.0223 -0.1990
20342W        W37190   2.078   7.692  16.242  0.1876 -0.1104  0.2228
20343W        W37191   0.969  11.191  15.486 -0.1316 -0.1411  0.1251
20344W        W37192   2.075  15.040   3.337 -0.1892 -0.0171 -0.2595
20345W        W37193  14.090   6.974   4.009 -0.1409 -0.0394 -0.0149
20346W        W37194   4.144   4.630   0.170  0.0910 -0.2506 -0.0377
20347W        W37195  11.676  10.844  11.257 -0.2242 -0.2019 -0.1889
20348W        W37196   2.823   3.078  11.981  0.1813 -0.1388 -0.1027
20349W        W37197  17.993   9.148   0.067 -0.0423 -0.0473  0.1330
20350W        W37198   5.271  10.105  13.351  0.0322  0.4814 -0.0021
20351W        W37199  15.738  13.743  11.640  0.2978 -0.0910 -0.1621
20352W        W37200   6.029  10.427  10.827 -0.3070 -0.0280  0.1059
20353W        W37201   1.462   4.074   1.876  0.2777  0.2966 -0.0480
20354W        W37202  13.023   3.304  12.290  0.0247  0.4254  0.0121
20355W        W37203   3.250   7.398  12.625  0.0782  0.1783  0.2027
20356W        W37204  10.889  16.790  16.273  0.0402  0.1314 -0.1585
20357W        W37205   4.958  11.352  11.683 -0.0737 -0.2106 -0.0413
20358W        W37206  13.121   8.722   4.360 -0.2887  0.1479 -0.3235
20359W        W37207   1.106   9.757  12.291  0.0571 -0.1282 -0.1232
20360W        W37208  13.131   6.177  13.282 -0.2376 -0.0572 -0.3239
20361W        W37209  11.057  12.241   2.046 -0.2551 -0.0348 -0.0927
20362W        W37210  12.932  11.483  15.876  0.0496  0.3600  0.2992
20363W        W37211  14.495   3.674  14.540  0.0194  0.1427  0.0234
20364W        W37212  16.816  17.340  13.110  0.2299  0.0370 -0.2279
20365W        W37213  15.483  14.692  13.466  0.0228  0.0372 -0.0516
20366W        W37214  16.575   0.510   0.800 -0.2099 -0.0801 -0.0313
20367W        W37215  10.552   6.583  13.289  0.1594 -0.3284 -0.2407
20368W        W37216   4.850   8.626   5.433 -0.0367  0.1127  0.1146
20369W        W37217  15.831  15.211  14.838  0.1375 -0.2556  0.2364
20370W        W37218   9.358  12.381   5.738 -0.1625  0.1661  0.0874
20371W        W37219   7.071  14.861  15.157 -0.0376  0.1515  0.0783
20372W        W37220   5.380  10.974  14.175 -0.0651  0.2258 -0.0396
20373W        W37221   3.307   0.396   1.691  0.3199 -0.1626 -0.0045
20374W        W37222  15.253   1.497  15.294  0.0576  0.0574  0.0384
20375W        W37223   1.808   7.762   3.698 -0.0442  0.1314 -0.0086
20376W        W37224  11.492   9.080   1.832  0.1005  0.1606 -0.0411
20377W        W37225  12.577  15.307   1.563 -0.0184 -0.0338 -0.1805
20378W        W37226  11.990  17.045  10.720  0.1287  0.0346 -0.0854
20379W        W37227   9.519   0.127   4.662 -0.0475 -0.2013 -0.1542
20380W        W37228   8.337   5.470   1.918  0.3233 -0.0433  0.2439
20381W        W37229  12.910  16.655  14.128 -0.1792 -0.5194  0.3853
20382W        W37230   6.919  14.896   2.697 -0.0105 -0.0844  0.2610
20383W        W37231  10.223  16.103   3.651  0.1819 -0.1346 -0.1109
20384W        W37232  11.979  11.656  12.717  0.0418 -0.1370  0.1491
20385W        W37233  13.405   5.243   4.546  0.0676 -0.0255  0.1979
20386W        W37234   3.236   7.487   0.087 -0.3126 -0.0831  0.1659
20387W        W37235   0.014  13.290  13.139 -0.0664 -0.0197  0.2839
20388W        W37236   7.699   8.297   1.075 -0.1353 -0.2678  0.0149
20389W        W37237   2.903  11.308   2.039 -0.2557  0.0081  0.1181
20390W        W37238  15.437   1.510   2.949 -0.1964 -0.0721 -0.2073
20391W        W37239  15.426   3.009   5.004 -0.1813  0.0184 -0.3405
20392W        W37240  17.930   4.146  13.864 -0.1498 -0.1526  0.2159
20393W        W37241  17.281   3.949   1.549 -0.1066 -0.0308  0.3729
20394W        W37242   8.286   2.903  12.761  0.0591 -0.0324  0.1029
20395W        W37243   7.406   9.890  11.619  0.2511 -0.2435  0.3406
20396W        W37244   2.221   1.370   0.570 -0.1427  0.2369 -0.2751
20397W        W37245   1.898   5.185  11.093  0.2362 -0.1248 -0.2632
20398W        W37246   4.695   8.045  14.566 -0.2622 -0.1101  0.0689
20399W        W37247  13.256  17.739  13.293  0.0207 -0.4554  0.3935
20400W        W37248   5.183  10.568  12.933  0.0793  0.1509  0.0926
20401W        W37249   6.470   8.073  14.350 -0.2630 -0.0513  0.0535
20402W        W37250  14.715  10.436   0.771  0.0344  0.1231  0.0628
20403W        W37251   0.760  12.138  14.718  0.1076 -0.0100 -0.3353
20404W        W37252   5.787  16.874  13.233 -0.2999 -0.0174  0.1187
20405W        W37253   1.580  14.389  13.345  0.1811 -0.0901  0.1401
20406W        W37254   5.513   3.776  11.895 -0.1080 -0.0976  0.0278
20407W        W37255  17.003   0.412  10.739  0.1111  0.1006  0.0919
20408W        W37256  15.478   3.419   3.651 -0.2427  0.3675  0.1809
20409W        W37257   4.399   2.061  13.254 -0.0904 -0.0032  0.0432
20410W        W37258   7.399  14.340  13.451 -0.2430  0.0256 -0.0851
20411W        W37259   5.884  15.054   2.681  0.1186 -0.2289 -0.1773
20412W        W37260  13.800   8.010  16.253  0.1387  0.1583 -0.1337
20413W        W37261   1.800   9.893   4.565 -0.3965 -0.0998 -0.0493
20414W        W37262  14.827   0.581   2.187  0.0535  0.3545  0.3400
20415W        W37263   6.896  11.518  16.330 -0.1465  0.2513 -0.1350
20416W        W37264   0.726  11.978  13.436 -0.1480  0.2332  0.1240
20417W        W37265   0.075   9.390  15.087 -0.1140 -0.1319 -0.1586
20418W        W37266   5.750  11.254   2.220  0.2237  0.1540  0.0127
20419W        W37267   0.742   7.942  12.940  0.0408  0.0483 -0.0405
20420W        W37268   4.374   5.836  14.651 -0.1729 -0.3554 -0.1973
20421W        W37269   1.985   9.431   4.275  0.1424 -0.2366 -0.1403
20422W        W37270   1.137   3.636   1.866 -0.1026  0.1809 -0.0187
20423W        W37271   7.672  10.426  15.967 -0.5480  0.1853 -0.3320
20424W        W37272  13.353   4.369   4.607 -0.0311 -0.0552  0.0269
20425W        W37273  17.322  15.825  12.714  0.1632 -0.0836  0.0860
20426W        W37274  18.076  14.853  12.068 -0.1124  0.1527  0.0166
20427W        W37275   9.122  10.849   2.124  0.1493  0.2029 -0.0999
20428W        W37276   6.841   8.943  14.697 -0.3606  0.1177  0.0450
20429W        W37277   4.458  14.265  14.203 -0.0462 -0.1501  0.3116
20430W        W37278  13.740   1.920  16.289 -0.1760  0.1497 -0.1237
20431W        W37279   5.987   0.102  13.674  0.1842  0.0137 -0.1155
20432W        W37280   0.493  11.753  15.976 -0.0245  0.4185  0.1233
20433W        W37281   7.249   4.330   2.007 -0.2103 -0.2810  0.0753
20434W        W37282  16.204  16.391   5.530 -0.0219 -0.5136  0.2341
20435W        W37283   3.615   8.044  14.267  0.0615 -0.1660  0.0707
20436W        W37284  14.467  14.431   2.816  0.0009  0.0819 -0.0615
20437W        W37285   9.412  14.869  12.249  0.1959  0.2592  0.1650
20438W        W37286  15.462   3.943  14.358 -0.1877 -0.1373  0.0623
20439W        W37287   4.282   5.605  14.072  0.0123 -0.0777  0.0249
20440W        W37288  17.272   4.719   4.602 -0.2511 -0.0949 -0.0407
20441W        W37289  16.955   7.186   1.521 -0.1941  0.0896 -0.3873
20442W        W37290  16.799   7.979  16.164 -0.1383  0.0140 -0.4436
20443W        W37291  10.497  12.395  12.632 -0.3642 -0.1807  0.1032
20444W        W37292   4.847   3.433   1.993  0.2589  0.3175  0.1956
20445W        W37293  13.863  14.379   4.974 -0.0473 -0.1638 -0.3655
20446W        W37294   3.174   5.381  13.617 -0.0422  0.1955 -0.0778
20447W        W37295   0.923   5.626  11.195 -0.1940 -0.1606 -0.2088
20448W        W37296   2.528   1.281  15.589 -0.2801 -0.0269  0.1963
20449W        W37297  14.624  15.729   2.195 -0.1008  0.0603 -0.0653
20450W        W37298   8.660  12.040   3.850  0.0350 -0.1661 -0.3706
20451W        W37299   8.785   9.951   2.214 -0.1014 -0.1619  0.1481
20452W        W37300  11.739   5.071  10.258 -0.3837 -0.0684  0.1869
20453W        W37301   4.082  12.121   1.516  0.0190  0.6095  0.1792
20454W        W37302   6.571   8.451   4.389 -0.3637 -0.1470  0.1120
20455W        W37303   1.498  10.658   2.194  0.1621  0.1649 -0.2022
20456W        W37304   1.958   5.450   4.103 -0.2490 -0.2833  0.0632
20457W        W37305   1.115   5.924   1.598  0.1682  0.1238  0.0316
20458W        W37306   2.017   3.985  13.193 -0.1345  0.1746 -0.0072
20459W        W37307  14.485  14.997  14.988 -0.1285 -0.1782  0.0664
20460W        W37308  11.886   4.899   5.061 -0.0883 -0.3730  0.1426
20461W        W37309  10.176  11.547   4.636  0.0292  0.2562 -0.0857
20462W        W37310   8.628  13.724  11.819 -0.0827  0.1600 -0.2805
20463W        W37311   4.204   4.168  15.747  0.3278  0.2944 -0.0104
20464W        W37312   3.495  16.023  10.767 -0.0761 -0.2151  0.0587
20465W        W37313   9.581   7.886  13.472 -0.1936  0.0071 -0.1377
20466W        W37314  13.823   6.024   4.817  0.2140  0.1077  0.0717
20467W        W37315   3.609   5.469  14.586 -0.3312  0.0665 -0.0299
20468W        W37316   3.615   2.238  13.373 -0.0835  0.4353 -0.0735
20469W        W37317   3.989   8.282   0.229 -0.0914 -0.0370 -0.3316
20470W        W37318  16.112  17.019  15.326 -0.0111  0.1740  0.0363
20471W        W37319   6.102   5.293  13.898 -0.0389  0.2137 -0.0065
20472W        W37320  17.249   0.411   4.803 -0.0228 -0.1415 -0.0805
20473W        W37321   5.777   0.152   3.938  0.1783 -0.0295 -0.0311
20474W        W37322  12.348  10.771  13.372  0.1561 -0.1184 -0.0069
20475W        W37323  15.727  17.175  12.405  0.1726  0.1763 -0.0960
20476W        W37324   7.536  15.923   3.250 -0.0282  0.0085 -0.0972
20477W        W37325   9.071  11.813  13.274 -0.2691 -0.2336 -0.0887
20478W        W37326  10.100   2.221  11.139  0.1012  0.1024 -0.3422
20479W        W37327  14.740  15.380   0.648  0.3368 -0.1520  0.2705
20480W        W37328  14.624   6.606  13.893 -0.0068  0.0601 -0.3336
20481W        W37329  16.215   7.432   0.332  0.1468 -0.0591 -0.0311
20482W        W37330   9.058   9.238  15.177 -0.1330 -0.1779 -0.1310
20483W        W37331   0.269   0.035  13.306  0.1260 -0.0043 -0.0394
20484W        W37332  13.112  17.393  12.897  0.0658 -0.2990  0.3309
20485W        W37333   0.146   9.870   2.750  0.1125 -0.0024  0.1536
20486W        W37334  11.623   0.482   4.964 -0.0038 -0.1628  0.0069
20487W        W37335   8.294   3.355   3.811  0.1559 -0.3747 -0.0319
20488W        W37336   6.926  14.133  14.767  0.0832 -0.1024 -0.1374
20489W        W37337  10.460  15.145  14.285  0.2715 -0.0512  0.1062
20490W        W37338   7.476  13.094  10.970  0.0652  0.0303  0.1003
20491W        W37339  15.917  17.009   1.147 -0.2066 -0.0104 -0.2273
20492W        W37340  17.139  10.948   0.668 -0.2763 -0.2159  0.1649
20493W        W37341   9.002   6.311  12.112  0.1571  0.1750  0.0644
20494W        W37342   9.672  17.225   3.261 -0.3272  0.2915 -0.2165
20495W        W37343  13.560  11.840   1.523  0.0496  0.1377 -0.1639
20496W        W37344   5.812   4.104   0.345  0.1925  0.0466 -0.3589
20497W        W37345   9.041   7.089  11.728 -0.1577  0.0114 -0.2772
20498W        W37346   0.108  12.528   2.989 -0.2229 -0.1731  0.2398
20499W        W37347   6.089   8.251  13.409 -0.0037 -0.0171  0.1023
20500W        W37348  14.904   0.211  12.827 -0.1319  0.2876  0.0138
20501W        W37349  13.740  13.511   2.158  0.2070  0.0411  0.1248
20502W        W37350   1.970   3.187  15.837  0.1797 -0.2107  0.2914
20503W        W37351  10.220   0.620   4.735 -0.1360  0.2881 -0.4179
20504W        W37352   3.430  13.621  12.851  0.0024  0.0015 -0.0962
20505W        W37353  16.206   5.879  12.585 -0.1925 -0.0807  0.1676
20506W        W37354   4.526   0.926   1.354  0.1340 -0.3554  0.1522
20507W        W37355   1.057  11.785  15.996  0.0914  0.0899  0.0440
20508W        W37356  14.420   2.545   3.965  0.0667 -0.1260 -0.0060
20509W        W37357   8.593  13.051  15.060 -0.2901 -0.2028 -0.1005
20510W        W37358   9.316   4.921   1.036  0.0874 -0.3693 -0.3994
20511W        W37359  12.571   9.541   3.096 -0.2109  0.1062  0.0961
20512W        W37360   6.043   4.094   3.904 -0.2765  0.3142 -0.0189
20513W        W37361   3.226   3.356   2.861 -0.2244  0.2608  0.2690
20514W        W37362  10.728  17.678  15.767  0.0388  0.1329 -0.2397
20515W        W37363  13.231  13.198   3.239 -0.1271  0.3292 -0.4248
20516W        W37364  13.463  15.843   4.893  0.0946  0.0061  0.0803
20517W        W37365   5.173   8.507  11.012  0.2113 -0.2329  0.0455
20518W        W37366   6.318   1.772  12.313 -0.0439  0.3090 -0.1848
20519W        W37367  14.294  16.827  15.404 -0.0425  0.1976 -0.1590
20520W        W37368  11.056  14.684   2.913 -0.0394 -0.2218 -0.0273
20521W        W37369   9.034  12.487  14.943  0.0603  0.0883  0.2776
20522W        W37370  17.433   3.308   4.424 -0.0227  0.2701  0.1330
20523W        W37371  17.997  11.180  13.460 -0.3906  0.0980 -0.0792
20524W        W37372  11.962  16.775   3.047 -0.0178  0.1445 -0.1678
20525W        W37373   4.518  10.594  13.062 -0.1455 -0.0431  0.5651
20526W        W37374   7.082   9.212   0.312  0.0279  0.3416  0.1600
20527W        W37375  13.022   4.583   3.645 -0.0610  0.0525  0.0729
20528W        W37376   8.242   0.398   0.072 -0.2895  0.2965  0.1030
20529W        W37377   9.791   3.334  13.784  0.0376  0.1927  0.6094
20530W        W37378   5.933   9.177   4.601 -0.0842 -0.1613  0.0329
20531W        W37379   4.497   2.326   1.277  0.0960 -0.0199  0.2465
20532W        W37380   0.282   8.861  12.625  0.1159 -0.2472 -0.1508
20533W        W37381   6.116   4.135  13.183 -0.3119 -0.0518  0.1814
20534W        W37382   6.154  14.899  15.118  0.0335  0.3936 -0.0234
20535W        W37383  14.205  12.699   1.148 -0.1930 -0.2256 -0.1379
20536W        W37384   8.640   6.906   1.069 -0.1425 -0.1943 -0.0967
20537W        W37385  13.151  11.653   4.524  0.1134 -0.0086  0.2881
20538W        W37386   6.577  13.546  13.435 -0.0074  0.0415  0.1771
20539W        W37387   7.958  14.021  13.292  0.0545 -0.0606 -0.2770
20540W        W37388   5.823   3.731  15.951 -0.0340  0.1653  0.3028
20541W        W37389  14.356   1.570  15.716  0.1598  0.2700  0.0089
20542W        W37390   5.019  18.016  13.297  0.3050  0.1994 -0.0811
20543W        W37391   0.786  17.182   4.248  0.0610 -0.0504  0.2242
20544W        W37392  16.983   9.278  12.385  0.0449  0.2498  0.0371
20545W        W37393  17.701   2.546  12.100 -0.2267 -0.1881  0.1933
20546W        W37394   9.260   3.729   2.961  0.1010  0.1491 -0.1078
20547W        W37395   4.976   3.263  14.584 -0.1793  0.2601 -0.1302
20548W        W37396  10.368   7.953  15.398  0.1089  0.0258 -0.2137
20549W        W37397  14.382   5.405  15.084 -0.0518 -0.4062 -0.0131
20550W        W37398   1.659  12.454   1.948  0.1512 -0.3199 -0.1843
20551W        W37399   5.344   4.127  16.107 -0.1403 -0.0664  0.3123
20552W        W37400  11.576  11.039   3.437  0.1905 -0.4324  0.1780
20553W        W37401   1.302  15.816  11.404  0.0144 -0.0864 -0.0789
20554W        W37402  13.606   9.876  10.392  0.1681  0.2426  0.3241
20555W        W37403   4.742  16.543  14.613 -0.2876 -0.3119  0.1448
20556W        W37404   1.897   8.402  11.608 -0.3011  0.0002  0.2233
20557W        W37405   5.496   2.326  15.298 -0.0964 -0.0070  0.1847
20558W        W37406   5.493   0.691   5.005  0.5231  0.0140 -0.1544
20559W        W37407   6.571   8.264  15.772 -0.0501 -0.0670 -0.0433
20560W        W37408   1.689  12.574  15.065  0.0180  0.1911 -0.0914
20561W        W37409   0.643   5.812   1.643 -0.2599 -0.3756 -0.1144
20562W        W37410  13.132   6.141   2.929  0.0320 -0.1188 -0.0888
20563W        W37411   2.122  13.757  15.765 -0.0477 -0.1012 -0.3369
20564W        W37412   6.320   5.216   1.529  0.0650 -0.1669 -0.2766
20565W        W37413   9.694  18.062   0.850 -0.2253 -0.0273 -0.0760
20566W        W37414   0.225  10.771  12.404 -0.0725 -0.0311  0.1357
20567W        W37415   6.826   8.883  15.738  0.3751  0.0172  0.0061
20568W        W37416  17.381   0.812  13.300  0.1832 -0.1906  0.0789
20569W        W37417   4.345   7.164   5.036 -0.1541  0.0462  0.2269
20570W        W37418   6.523  14.929  14.480  0.0052 -0.1177 -0.3331
20571W        W37419   6.893   7.638   1.752  0.0889  0.2016  0.1529
20572W        W37420   7.062   6.215  15.744 -0.3756  0.0150  0.2560
20573W        W37421  14.205   0.442  14.411  0.0360  0.1603  0.0159
20574W        W37422   1.763  14.104   1.518  0.1328  0.0046  0.1243
20575W        W37423  13.019   4.573  13.265 -0.3318 -0.0938  0.1721
20576W        W37424  13.057   5.966   0.759  0.4783  0.1514 -0.0696
20577W        W37425  16.043  14.059  11.879 -0.0576 -0.0010 -0.0572
20578W        W37426   5.729  16.515   0.693  0.0647  0.0888  0.0131
20579W        W37427  17.876   1.618  11.573 -0.2370  0.0479 -0.0993
20580W        W37428   5.662  12.142  11.651  0.0358 -0.0139 -0.0878
20581W        W37429   9.979  15.764  12.398  0.1074 -0.0450  0.1300
20582W        W37430   5.218   3.798  13.022  0.0410  0.2058  0.0979
20583W        W37431  13.117  16.693  12.259  0.1114 -0.0432 -0.0367
20584W        W37432  17.620   1.281  15.544 -0.0904  0.1155  0.0927
20585W        W37433  15.753   3.925  15.351 -0.1722  0.1716 -0.1118
20586W        W37434   9.338   0.722   2.250 -0.0358 -0.4182 -0.0506
20587W        W37435   3.296  17.037   5.908 -0.1219 -0.1659 -0.0203
20588W        W37436   2.691   9.948   6.016  0.2308 -0.0031 -0.2671
20589W        W37437   5.663   5.678  12.442 -0.0056 -0.2304 -0.1867
20590W        W37438   7.662  16.970   1.801  0.0899  0.0395  0.3036
20591W        W37439   4.058  10.069   3.619  0.0829  0.1724  0.0570
20592W        W37440  10.767   0.184  12.581  0.1952 -0.0352 -0.2190
20593W        W37441   8.466   1.046  16.268  0.2668  0.1557  0.3113
20594W        W37442  10.141   4.680  13.552  0.3283 -0.2194  0.1931
20595W        W37443  14.481   7.393  13.972  0.1362 -0.0335 -0.0221
20596W        W37444   9.833   8.105   2.576  0.0034 -0.3108 -0.1111
20597W        W37445  12.767   6.433   2.065 -0.1088 -0.0663  0.2776
20598W        W37446  12.180   9.517  12.921 -0.1723 -0.1464  0.0742
20599W        W37447   3.769  12.332   1.833 -0.0908 -0.2322 -0.1484
20600W        W37448   1.918   9.869   0.041  0.1620  0.0238  0.3261
20601W        W37449  12.410  12.159  16.184 -0.1556  0.1402 -0.0784
20602W        W37450  17.366  17.841  11.361 -0.0946  0.2065  0.0460
20603W        W37451   3.951   4.135   3.315 -0.2056 -0.1520 -0.2321
20604W        W37452   9.203  14.640   5.131 -0.2018  0.1556  0.3277
20605W        W37453   5.453  15.404  12.290 -0.2031  0.1953 -0.0911
20606W        W37454  15.753  11.510  13.948  0.2394 -0.0547  0.0380
20607W        W37455   0.862   0.629  11.831 -0.0260 -0.1500  0.0119
20608W        W37456  16.616  13.944  10.988 -0.0700 -0.2314  0.1146
20609W        W37457   4.684   4.967  15.187  0.3798 -0.1600 -0.0398
20610W        W37458  14.514  12.564  13.781 -0.0087  0.0451 -0.0553
20611W        W37459   4.588   1.898   1.608 -0.2688 -0.0495  0.0556
20612W        W37460   0.418  10.937   4.311 -0.0490  0.0203  0.0804
20613W        W37461  15.217  11.372   5.658  0.1340  0.2822  0.1950
20614W        W37462   0.927   9.013   0.554 -0.1539  0.1003  0.1423
20615W        W37463  16.535   9.490  12.253 -0.1522  0.1544 -0.0330
20616W        W37464   9.769  13.039  12.736 -0.2776 -0.1188  0.2944
20617W        W37465   7.118  13.103  13.107 -0.0815 -0.1287 -0.2020
20618W        W37466  10.443  17.920  15.199  0.3711  0.2129  0.0043
20619W        W37467  14.715   5.590  16.003  0.2833 -0.1121  0.0400
20620W        W37468  11.462  15.507  11.447  0.0647 -0.0797 -0.1246
20621W        W37469  16.356   6.485  14.397 -0.2591  0.1286 -0.0022
20622W        W37470  12.664   7.872  15.229  0.2448 -0.1858  0.2497
20623W        W37471   9.766   4.464  12.876  0.1952  0.0793  0.2405
20624W        W37472  16.134   6.835   3.940  0.0056  0.0590  0.0950
20625W        W37473   3.412  10.757   5.433 -0.0148 -0.0795  0.0733
20626W        W37474   3.744   0.784  15.623 -0.2785  0.0705 -0.1233
20627W        W37475  16.899   9.055  14.376  0.1540  0.1099 -0.2918
20628W        W37476   2.388   4.065  11.495 -0.1936  0.1954  0.6334
20629W        W37477   9.707  16.215  11.907 -0.1423 -0.1872 -0.0795
20630W        W37478  16.127   1.265  11.799  0.2225 -0.0770 -0.0971
20631W        W37479   8.522  10.121  14.575  0.1716  0.2987 -0.0349
20632W        W37480   6.267  16.211   4.554 -0.0447  0.2715  0.0094
20633W        W37481   6.305  12.706  11.673 -0.1630  0.1061 -0.3545
20634W        W37482  13.511  15.624   3.101  0.1770  0.2474 -0.2253
20635W        W37483   2.802   5.762   0.768 -0.0613 -0.0787 -0.2741
20636W        W37484  14.817   3.678   2.619 -0.3146  0.0204 -0.2533
20637W        W37485   2.512  14.477   3.907  0.0770 -0.0335  0.0890
20638W        W37486   2.431  14.140  11.826  0.1334 -0.1805  0.1416
20639W        W37487   2.130   5.919  16.111 -0.0123 -0.3752 -0.0712
20640W        W37488  11.431   4.931   4.115 -0.0713 -0.2355 -0.0676
20641W        W37489  14.229   7.180  12.203  0.0057  0.1447  0.0084
20642W        W37490  16.249  11.310  13.528  0.0520  0.1494 -0.2286
20643W        W37491  13.747   8.418   0.706 -0.0435 -0.3380  0.0654
20644W        W37492   3.228   5.620  12.570  0.0468 -0.2292 -0.1518
20645W        W37493   2.514   4.799   2.207 -0.3621 -0.0700 -0.3046
20646W        W37494   0.939   2.060  15.100  0.0611  0.1239  0.0653
20647W        W37495   0.870  11.894  11.746  0.0291  0.1045 -0.6245
20648W        W37496   6.808   0.695   4.935  0.4514  0.1400 -0.4708
20649W        W37497   7.123  14.037  13.146 -0.3314  0.1170  0.1105
20650W        W37498  10.130  15.127   1.843 -0.1688  0.0927  0.3508
20651W        W37499  17.292  14.408   0.273  0.0943 -0.0115 -0.1513
20652W        W37500  15.625  12.243  14.334 -0.0166 -0.2465  0.1284
20653W        W37501  17.195  15.643   0.272 -0.0800  0.0136 -0.0584
20654W        W37502   3.631  13.272   3.101 -0.0271 -0.0692 -0.1137
20655W        W37503  13.102  14.354   4.073 -0.3870  0.4349 -0.0460
20656W        W37504   8.049  13.304   2.480  0.3830 -0.0116 -0.1285
20657W        W37505  14.800   1.861  12.186  0.1907  0.0466  0.0868
20658W        W37506  13.353  15.698  15.485  0.0246 -0.0400 -0.3075
20659W        W37507  10.178  11.510  12.417  0.0560 -0.3840  0.0870
20660W        W37508   2.618  17.509   4.848 -0.1105 -0.0296 -0.2263
20661W        W37509  15.629   3.071   4.567 -0.5773 -0.2391 -0.1693
20662W        W37510   7.397  16.481   5.405  0.2326 -0.0247 -0.0231
20663W        W37511  10.987   5.468  13.019 -0.2731 -0.1029 -0.1472
20664W        W37512  12.741   4.965  15.700  0.0485 -0.3308  0.1281
20665W        W37513   8.110   4.871  12.920  0.3397 -0.0003 -0.2275
20666W        W37514  15.948   8.706   4.560 -0.0201 -0.0404  0.1880
20667W        W37515   3.536  13.752  11.198 -0.0417 -0.4409  0.0225
20668W        W37516  14.947   5.178  13.776 -0.1128 -0.0011 -0.0817
20669W        W37517   1.137  11.561  12.039 -0.0121 -0.0005 -0.0111
20670W        W37518  12.883   8.137   0.907  0.1775  0.2830 -0.0763
20671W        W37519  14.664   1.947   4.767 -0.0600 -0.3274 -0.0025
20672W        W37520   1.517  11.297  12.914 -0.1035 -0.0483  0.0141
20673W        W37521  13.408  10.244   4.779 -0.0515  0.2087 -0.0667
20674W        W37522  17.934  12.844   2.249 -0.0477 -0.1069 -0.1999
20675W        W37523  14.984  13.047  14.328 -0.3138  0.0282  0.1152
20676W        W37524   5.288  10.856   1.591 -0.1585  0.1345  0.2098
20677W        W37525  11.714  10.811   1.351  0.1313  0.0277  0.1416
20678W        W37526   1.993   7.753   3.132 -0.2769  0.2236 -0.0218
20679W        W37527  13.863   5.796  11.291  0.0981  0.1399 -0.0777
20680W        W37528   1.770  12.998  15.350  0.1173 -0.1393  0.1620
20681W        W37529   9.808  11.726  14.687 -0.1285  0.3328  0.2456
20682W        W37530   6.810   8.254  11.414 -0.0913 -0.0999 -0.0436
20683W        W37531   0.917   2.256  16.187  0.1666  0.3264 -0.1439
20684W        W37532   5.243   2.657   1.332 -0.3350  0.1101 -0.0139
20685W        W37533   9.430   2.090  12.231 -0.0477 -0.0727 -0.0592
20686W        W37534   5.177   0.979  12.024 -0.0940 -0.2693 -0.1155
20687W        W37535   3.256   3.597   0.073  0.0843  0.3407  0.2082
20688W        W37536  16.874   1.993  13.133  0.0558 -0.2209 -0.0384
20689W        W37537  14.343   3.734   1.987  0.1896  0.0372  0.0630
20690W        W37538   1.243  14.815  15.815  0.2470  0.2819 -0.0876
20691W        W37539  15.477   6.750   2.149  0.0079 -0.0211  0.1526
20692W        W37540   2.501   8.705   2.856  0.1012 -0.1463 -0.0228
20693W        W37541   6.887  14.136   4.759 -0.0217 -0.4183 -0.2184
20694W        W37542   6.184   8.466  12.042 -0.3316 -0.1148 -0.1681
20695W        W37543  12.039   0.338   1.264 -0.0420 -0.2539 -0.0071
20696W        W37544  15.586   3.765   4.639 -0.1896  0.1867 -0.3621
20697W        W37545   7.920   6.416  16.195 -0.2475 -0.3341  0.1097
20698W        W37546   2.792  10.349  12.532  0.3151 -0.2795  0.0386
20699W        W37547   9.159   4.145   4.358  0.2225  0.1670 -0.1199
20700W        W37548   8.351   0.186   5.560  0.4370  0.4489 -0.1022
20701W        W37549   3.582   9.305   2.972  0.2529  0.4346  0.1175
20702W        W37550  14.108  10.704  15.575  0.0299 -0.0885  0.0457
20703W        W37551  17.299   5.982  11.147 -0.1315 -0.0355 -0.0258
20704W        W37552  15.916  12.588  12.369  0.2842  0.2561 -0.1553
20705W        W37553   3.312  14.889   4.022 -0.5490 -0.2400 -0.1470
20706W        W37554   3.485  17.788   2.961 -0.3296 -0.2113  0.3743
20707W        W37555  17.071   8.414  13.954 -0.3315  0.1042  0.2657
20708W        W37556   7.469   7.844   3.026  0.1832 -0.2353 -0.1720
20709W        W37557  17.956  16.544   2.242 -0.0395 -0.0887 -0.1570
20710W        W37558  17.549   0.782  15.626  0.0490 -0.1629  0.0495
20711W        W37559   0.762  11.977   1.105  0.4016  0.1324  0.1375
20712W        W37560   3.271   1.762   4.908 -0.1948  0.2459  0.2422
20713W        W37561   9.329   0.430   0.724 -0.5517 -0.0538 -0.0066
20714W        W37562   6.743   3.261  16.005 -0.1414 -0.2267  0.0947
20715W        W37563  14.081  16.356   1.087 -0.1605 -0.0947 -0.0195
20716W        W37564  14.343  17.722   1.066 -0.1100  0.3192 -0.3172
20717W        W37565  13.462  13.242  14.230 -0.0557  0.0459  0.0997
20718W        W37566  13.639   5.248   6.182  0.1093 -0.0453 -0.2309
20719W        W37567  13.814   8.812   3.110 -0.0961 -0.2071  0.2239
20720W        W37568   0.848   0.197   3.122  0.0926  0.2047 -0.0072
20721W        W37569  11.138   3.816   0.421  0.1231 -0.1799 -0.2181
20722W        W37570   4.107   6.365  14.089 -0.2348  0.3552 -0.1534
20723W        W37571  13.924  13.917   3.815 -0.1066  0.0868  0.0491
20724W        W37572  11.182   1.141  15.947  0.0460 -0.1309  0.2848
20725W        W37573   7.954  12.510  11.424  0.3060 -0.1483 -0.0878
20726W        W37574   2.062   3.192   0.078  0.1158  0.2252  0.0937
20727W        W37575  15.006   8.376  12.378  0.0070  0.3645  0.1017
20728W        W37576  14.673   7.876   1.910  0.1115 -0.0058  0.1059
20729W        W37577   8.990   6.436   0.060  0.0850 -0.0780 -0.1090
20730W        W37578  13.612   0.015  10.944 -0.0214  0.1307 -0.0199
20731W        W37579   6.745   4.572  15.996 -0.1400 -0.0181  0.4116
20732W        W37580  17.491   6.420  15.300  0.2791  0.0326  0.0156
20733W        W37581  13.770  16.156   1.399  0.0132  0.3917  0.0126
20734W        W37582  11.103  10.880   3.409 -0.1584 -0.0245  0.0456
20735W        W37583  16.279   2.783   2.481 -0.3520 -0.3168 -0.2112
20736W        W37584  16.306  11.819  11.848 -0.0382  0.1263  0.0538
20737W        W37585  11.768  17.911  10.744  0.1556  0.3085 -0.0234
20738W        W37586   6.362  17.190   1.684 -0.0405 -0.0350  0.0051
20739W        W37587  15.028   0.037  15.476  0.4038  0.2636 -0.1312
20740W        W37588  17.552   1.323  15.039  0.2154 -0.1953 -0.1439
20741W        W37589  12.472  17.989  11.481 -0.2210  0.4024  0.2027
20742W        W37590  13.150   0.011   4.458 -0.1837 -0.3227 -0.3971
20743W        W37591  10.347   6.442   3.687 -0.0042  0.0927  0.1424
20744W        W37592  15.284   0.390   2.659 -0.2746  0.0859 -0.2173
20745W        W37593  11.204  11.481   0.366 -0.0552 -0.0759  0.2980
20746W        W37594  14.185  14.212   2.164  0.2398 -0.0078 -0.1573
20747W        W37595  10.242  11.613  11.354 -0.0731  0.0677 -0.1614
20748W        W37596  15.493  17.309  15.599  0.1615  0.0391 -0.1013
20749W        W37597  11.057   4.942   1.461  0.1032  0.1641  0.0447
20750W        W37598   2.819  12.706   4.364 -0.1353  0.0163 -0.0362
20751W        W37599   4.489   7.302   3.192  0.1719  0.2278  0.0126
20752W        W37600   7.667  14.111   1.102 -0.0471 -0.3003 -0.1649
20753W        W37601   5.082  17.335  16.335 -0.0781 -0.1510 -0.0243
20754W        W37602  16.660  17.162   3.525  0.1517 -0.2587 -0.0120
20755W        W37603  13.640  10.497   2.432 -0.2450  0.1041  0.0699
20756W        W37604   5.075   4.363  12.149  0.1114  0.1087 -0.2303
20757W        W37605  10.192   3.540  13.569 -0.1630  0.2385  0.1177
20758W        W37606  16.707   5.364  14.963 -0.2201 -0.1147 -0.0620
20759W        W37607  12.281  10.519   3.088 -0.1926  0.2078  0.1141
20760W        W37608  11.822   5.802  11.384 -0.3035  0.0670  0.1582
20761W        W37609  13.273  13.374  12.026  0.1082  0.0476 -0.1068
20762W        W37610   9.387   1.928   1.906 -0.0362 -0.1397  0.0775
20763W        W37611  11.655   3.416  12.026 -0.2377 -0.2384 -0.2648
20764W        W37612  10.794  16.357   5.149  0.0717 -0.0143 -0.1396
20765W        W37613   0.022   3.717   2.966  0.3423 -0.1657 -0.0424
20766W        W37614  12.970  14.624   4.526  0.0436 -0.1869  0.3707
20767W        W37615  12.088   4.049  14.561 -0.1288  0.0549  0.0475
20768W        W37616   2.146   0.257   0.746  0.0699  0.1990 -0.1380
20769W        W37617  12.507   6.962   2.771 -0.0141 -0.2688  0.1589
20770W        W37618   3.727   2.640  13.096  0.2501  0.3264  0.1924
20771W        W37619  15.676   3.532  12.265 -0.3413  0.0956  0.3800
20772W        W37620  16.514  14.552  14.591  0.1028 -0.1123  0.3696
20773W        W37621  14.967   9.582   4.936  0.0399 -0.0752 -0.0215
20774W        W37622   5.342   5.783  14.224  0.3269 -0.2258 -0.1911
20775W        W37623  13.258  15.303   3.933 -0.0754 -0.2731  0.2761
20776W        W37624   5.033   5.520   2.421 -0.1283  0.0207  0.1211
20777W        W37625   3.284   1.434  11.075 -0.0071 -0.0866  0.0040
20778W        W37626   2.786   7.243   2.494  0.3981  0.0192  0.1802
20779W        W37627   2.145   3.653   0.283  0.2099 -0.1230  0.0303
20780W        W37628   0.104   4.247  15.696 -0.1826  0.0607  0.1131
20781W        W37629  14.381  15.339   5.753 -0.1078 -0.4744  0.1120
20782W        W37630   8.230   1.126   4.696 -0.3032 -0.1201  0.1322
20783W        W37631  17.072   2.864  15.037 -0.1544  0.1197 -0.0121
20784W        W37632   0.838   7.404  12.369  0.1430  0.2013  0.1767
20785W        W37633  12.487  11.877  14.364 -0.1496  0.0650 -0.0754
20786W        W37634   4.485  16.246  15.584 -0.3257  0.0510 -0.1534
20787W        W37635  12.690   8.937  15.098  0.3845 -0.0611 -0.0534
20788W        W37636   9.552  15.427  13.772  0.0848  0.1723 -0.1491
20789W        W37637   1.039   1.954   4.917 -0.0166 -0.2300  0.1202
20790W        W37638  17.983   8.182  15.397 -0.0376 -0.3184 -0.0389
20791W        W37639   3.080   8.240  14.730  0.0179  0.2921 -0.5575
20792W        W37640   0.633  17.698  12.401 -0.0001 -0.0729  0.1765
20793W        W37641   6.369   4.055   4.281 -0.1762 -0.1485  0.3699
20794W        W37642   2.499   3.798   0.589 -0.0967 -0.2616 -0.0840
20795W        W37643  12.800   1.954   1.887  0.0894 -0.0370  0.5626
20796W        W37644   3.129  16.214  14.499 -0.1762  0.0072  0.2399
20797W        W37645   3.569  16.916  13.461 -0.3860 -0.2897  0.3926
20798W        W37646   9.780   6.234   4.700 -0.0115  0.0858  0.1504
20799W        W37647  12.044   9.073  13.644 -0.1787  0.2754  0.0240
20800W        W37648  10.696   9.100  13.739  0.0935 -0.1284 -0.2386
20801W        W37649   0.608   9.446  13.163 -0.1564  0.0670 -0.0434
20802W        W37650  17.540   0.935   1.168  0.0321 -0.2198 -0.2387
20803W        W37651   7.438  13.104   3.754  0.4277 -0.0689 -0.1290
20804W        W37652   2.073  12.106   0.137  0.2202 -0.2656  0.0928
20805W        W37653  10.837  11.795  13.093 -0.3422 -0.0642  0.3155
20806W        W37654   6.060   3.459  10.177 -0.0132  0.0010 -0.0609
20807W        W37655  11.140   8.284  13.181  0.1125 -0.2719  0.0734
20808W        W37656  17.273   0.061   3.160  0.0306  0.2029 -0.1078
20809W        W37657   9.704  13.852   5.693 -0.1846  0.0297 -0.2358
20810W        W37658  14.361   5.759   2.103  0.0149  0.2690 -0.1635
20811W        W37659  10.225  17.895  13.084 -0.0462  0.0823 -0.0571
20812W        W37660   7.729   8.709  15.394  0.2643  0.0610  0.1451
20813W        W37661   2.105   0.097  12.348 -0.1470 -0.0777 -0.2429
20814W        W37662   8.700  13.396   3.831 -0.2441  0.1656  0.1521
20815W        W37663  11.833   4.450   0.571 -0.0762 -0.3855 -0.1871
20816W        W37664   5.230   6.178  14.821  0.0880 -0.0441 -0.3731
20817W        W37665  11.569  13.371  13.632 -0.1085 -0.0303 -0.2427
20818W        W37666  11.324   8.525   5.775  0.0164  0.2394  0.3026
20819W        W37667  15.908   4.493  14.001 -0.2626  0.0777  0.3014
20820W        W37668  15.047   8.421  15.552 -0.1515  0.1596  0.0233
20821W        W37669  15.508   1.470   0.771 -0.2823  0.2835  0.1469
20822W        W37670  16.752  16.191   0.357 -0.1911 -0.1217 -0.0071
20823W        W37671  14.815   9.702  13.544  0.0540  0.6103  0.0329
20824W        W37672   4.298  13.278   1.974  0.1609 -0.2412  0.1513
20825W        W37673  10.617   4.009  14.765 -0.1012  0.0646  0.1277
20826W        W37674   6.612   2.508  15.081 -0.1291 -0.0975 -0.1297
20827W        W37675  16.816   0.632   1.253  0.1623 -0.0613 -0.0236
20828W        W37676  10.404   9.834  15.632 -0.0032  0.1511 -0.1522
20829W        W37677   6.529  13.079   2.570  0.0879 -0.1704 -0.2439
20830W        W37678   6.537  15.967  12.442  0.1819  0.2226  0.1649
20831W        W37679  14.997   7.489   4.566  0.0502 -0.1864  0.2454
20832W        W37680   9.228  10.364   2.484  0.0056 -0.1024  0.3620
20833W        W37681   0.920   4.833  14.171  0.0546 -0.2118  0.1210
20834W        W37682   5.559   8.155   1.628 -0.1837  0.0963 -0.0777
20835W        W37683   2.497   7.118   5.261  0.0984 -0.2068  0.0776
20836W        W37684   9.919  16.123   2.810 -0.0786 -0.0128 -0.2114
20837W        W37685  12.516  10.532  14.321 -0.0943  0.3020  0.0816
20838W        W37686  16.531  12.844   2.264 -0.0622 -0.1227 -0.2665
20839W        W37687  11.632   9.927   1.326 -0.2617 -0.0356  0.1170
20840W        W37688  15.165   1.096   1.446 -0.2361 -0.2009  0.3975
20841W        W37689  16.177  17.681  16.031  0.1871 -0.0567  0.0051
20842W        W37690   6.013  15.234   1.717  0.0200 -0.0437 -0.1981
20843W        W37691  17.707   8.018  14.212  0.0054  0.2914  0.0952
20844W        W37692   6.798  13.971  15.253  0.0843  0.2821 -0.0827
20845W        W37693   1.926  17.348   4.226  0.0370  0.2143 -0.1221
20846W        W37694  15.906  15.105   2.143  0.1240  0.1492 -0.1840
20847W        W37695  10.493  16.978   0.788  0.3718 -0.1758  0.1319
20848W        W37696   4.960   8.986   1.844 -0.1518  0.0109  0.4518
20849W        W37697   1.560  10.450   4.596 -0.0998  0.1173  0.3113
20850W        W37698   8.150   7.172  13.516 -0.0442  0.0376  0.0043
20851W        W37699   4.312   3.968  10.614  0.0005  0.1461 -0.2054
20852W        W37700   7.353   7.409   3.316  0.0516 -0.1051  0.0409
20853W        W37701   4.915   9.939   3.765  0.1386 -0.2263 -0.4362
20854W        W37702  14.202  12.687   3.889  0.0655 -0.1983  0.0766
20855W        W37703   0.949   0.349   3.586  0.0099 -0.0621  0.0139
20856W        W37704  10.002   2.152  11.677 -0.0093  0.2584 -0.0908
20857W        W37705  12.014  16.801   2.430 -0.3359  0.2388  0.2030
20858W        W37706  17.844   7.701   2.055  0.4336  0.1242  0.1792
20859W        W37707   2.482  16.403   2.593 -0.2393  0.0541  0.2630
20860W        W37708   5.528  17.835  14.301 -0.0815 -0.2286  0.1223
20861W        W37709  15.180  10.673   3.479  0.0259 -0.0518  0.2789
20862W        W37710  17.286   0.810   5.035 -0.4282 -0.0102 -0.2094
20863W        W37711   5.244  16.956   0.893  0.2973  0.3023  0.1071
20864W        W37712  16.739   9.872  15.253  0.2255  0.2349  0.0261
20865W        W37713  15.048  11.926   2.742  0.4145  0.1853  0.0675
20866W        W37714   0.116   8.410  15.855 -0.1125  0.2191 -0.1507
20867W        W37715   4.232  17.767   1.215  0.0889  0.1918  0.0611
20868W        W37716  14.141  14.582   5.431  0.2486  0.3054  0.1802
20869W        W37717   3.911   7.630   2.096  0.1253 -0.2158  0.0255
20870W        W37718  12.832   2.026  16.217 -0.0576  0.1970 -0.0918
20871W        W37719   3.310   9.685  10.822 -0.0134 -0.1564 -0.0947
20872W        W37720  17.013   8.916  12.789 -0.0230 -0.3339  0.1813
20873W        W37721  15.972   2.762  14.116  0.1651  0.1170 -0.1528
20874W        W37722   8.474  12.469  14.504 -0.0808  0.3314 -0.0869
20875W        W37723  17.657  11.629   4.034  0.1790 -0.1621  0.0054
20876W        W37724   6.790   9.699  15.201 -0.1343 -0.2189 -0.3159
20877W        W37725  15.061  12.206  12.500  0.1366 -0.0390  0.0383
20878W        W37726  17.588  15.932  15.912  0.0054 -0.1623 -0.2834
20879W        W37727  10.470   8.130  12.481 -0.1637 -0.0284  0.0486
20880W        W37728   2.290  10.944   0.960  0.0000  0.0034  0.0490
20881W        W37729   5.019   4.174  15.710  0.0808  0.0302  0.0634
20882W        W37730   9.670  12.984   0.749  0.2038 -0.0602  0.0428
20883W        W37731  15.700  13.048   2.920 -0.0801  0.1238 -0.2520
20884W        W37732   9.764  16.415   2.407 -0.2417  0.1962 -0.1335
20885W        W37733   1.150   3.153   0.586 -0.1218  0.4021  0.0064
20886W        W37734   5.896  14.186  15.785  0.1176  0.1479  0.0514
20887W        W37735  13.865   7.780  15.772 -0.1167  0.0418 -0.0567
20888W        W37736  13.773  15.449   5.166  0.2723 -0.1654  0.1320
20889W        W37737   5.530   7.505  14.195  0.2522  0.1876 -0.1308
20890W        W37738   6.773   7.406  11.726 -0.2391  0.0304  0.1968
20891W        W37739  11.242   8.683  15.450 -0.0061  0.0607  0.0915
20892W        W37740  16.911   0.961  12.169 -0.0018 -0.1515  0.1634
20893W        W37741  12.481   5.715   3.418  0.0474  0.0295  0.1033
20894W        W37742   5.407   6.475   0.670 -0.1848  0.0204 -0.0189
20895W        W37743   6.940   6.687  15.155  0.0367 -0.0002 -0.0480
20896W        W37744   7.282  16.010  11.063 -0.1529  0.1966 -0.0620
20897W        W37745   2.047  11.340  13.632  0.0052 -0.0076  0.0845
20898W        W37746   9.585   7.223   3.661  0.1225  0.3489  0.1238
20899W        W37747  13.383   1.117  13.736  0.0317 -0.2207  0.5238
20900W        W37748  12.856   6.050  15.838  0.3172 -0.4234 -0.0911
20901W        W37749   4.887   1.389  12.443 -0.0107  0.4479  0.1299
20902W        W37750  13.370  13.374   2.574  0.2262 -0.0060 -0.0101
20903W        W37751   7.253   9.029  13.013 -0.2429 -0.0446 -0.4331
20904W        W37752   8.037   2.654   4.243 -0.3772  0.1640  0.2884
20905W        W37753  11.888  16.947  15.773 -0.0551 -0.1802 -0.2074
20906W        W37754  12.845  12.835  15.163 -0.3065 -0.0889 -0.0173
20907W        W37755   9.702  10.500  13.998  0.2560  0.2297 -0.1017
20908W        W37756   2.952  16.361  12.229 -0.2612  0.0938  0.3593
20909W        W37757   4.138  17.733   5.757 -0.2464  0.0535  0.0462
20910W        W37758  13.261  11.474   5.414 -0.2169  0.0399  0.0071
20911W        W37759   2.144  14.498   0.942 -0.0029 -0.0491  0.2780
20912W        W37760  15.772   7.420   0.652  0.1172 -0.0074  0.0221
20913W        W37761  14.555   3.975  15.782  0.1041  0.2350  0.4252
20914W        W37762   6.793   9.326   1.572  0.0972  0.3586 -0.3002
20915W        W37763   8.985  13.250   2.645 -0.0444  0.2504 -0.0473
20916W        W37764   5.034  11.704   4.811 -0.0545  0.3084 -0.0985
20917W        W37765  12.384  12.897  11.581  0.0494  0.2442 -0.1928
20918W        W37766   7.744   4.416  16.035  0.2346  0.1121 -0.0448
20919W        W37767  16.899  14.045  13.548 -0.1078 -0.0043 -0.0166
20920W        W37768   8.557   1.872  13.103  0.0980 -0.4161  0.1159
20921W        W37769  11.799  13.098   4.404  0.1626  0.1117 -0.1901
20922W        W37770  10.507   1.885  12.755 -0.3600 -0.2199  0.0249
20923W        W37771   7.672   2.058   3.188  0.0276  0.1650  0.0452
20924W        W37772  10.099   6.554   4.494 -0.1946 -0.3311 -0.2457
20925W        W37773   7.828  11.570  15.896 -0.0955  0.1727  0.1017
20926W        W37774  12.341  16.303  10.812 -0.1702 -0.0673  0.1502
20927W        W37775   7.192   4.848   2.138  0.0072 -0.4874 -0.2303
20928W        W37776   1.693   5.386  11.480  0.0384 -0.0260  0.0965
20929W        W37777   8.046   2.071   5.256 -0.1693  0.2988  0.0724
20930W        W37778   1.903   9.546   3.611  0.1273  0.1041  0.0803
20931W        W37779   4.661  17.833   2.001 -0.4897  0.1298 -0.1720
20932W        W37780   7.978   5.884   1.074  0.1536 -0.0795  0.1922
20933W        W37781   8.370   1.777   1.142 -0.0211  0.0196  0.1963
20934W        W37782  11.863  15.370   1.984  0.2618 -0.2315  0.3006
20935W        W37783  11.611  15.654   1.580 -0.1769 -0.2122  0.4120
20936W        W37784   5.453   1.145  13.364  0.3950 -0.0285  0.3900
20937W        W37785   1.515   9.306  14.268 -0.0795  0.2591 -0.0116
20938W        W37786  12.280  17.974   1.076  0.2523 -0.2606  0.3151
20939W        W37787  10.920   2.320  11.244 -0.0917 -0.1470  0.2952
20940W        W37788   7.772   2.692   0.531 -0.1651 -0.0199  0.1035
20941W        W37789  17.204   6.025  14.205  0.1438  0.0450  0.0014
20942W        W37790  13.862  13.175   3.211 -0.0558 -0.0495 -0.0031
20943W        W37791   2.251   3.651  11.770  0.4229 -0.0778 -0.1240
20944W        W37792   3.599   6.514   0.925  0.0185  0.0755 -0.0252
20945W        W37793  17.495  10.752  15.317  0.0359 -0.4574  0.1008
20946W        W37794  13.751  14.918  15.487 -0.2075 -0.2717  0.1947
20947W        W37795   1.961   9.142  14.939 -0.1642 -0.0655  0.0629
20948W        W37796  14.691   5.499  11.383  0.0614  0.0082  0.1528
20949W        W37797   5.713  14.472  11.744 -0.1329 -0.1727 -0.2456
20950W        W37798  10.870   6.982  13.129 -0.0268  0.1584 -0.2164
20951W        W37799   7.423   1.781   0.993  0.0445 -0.3526 -0.2786
20952W        W37800  12.578  13.445   0.658 -0.2558 -0.1101  0.1132
20953W        W37801   8.706  17.411   2.320  0.2962  0.2533 -0.0093
20954W        W37802  14.611   6.971   1.461 -0.0564  0.1505 -0.4467
20955W        W37803   4.827  10.431   5.434  0.2666  0.0103  0.1340
20956W        W37804   5.873  12.039   2.503  0.1356 -0.1559  0.2770
20957W        W37805  10.462  14.395  15.003  0.1703  0.1627  0.0745
20958W        W37806  10.443   4.885   0.077  0.1920  0.0553 -0.1203
20959W        W37807   1.663  16.721  15.722 -0.0437  0.0630  0.0942
20960W        W37808   1.541   1.400   1.413 -0.0706 -0.0180  0.3247
20961W        W37809   4.977  16.524  15.425  0.2501  0.2171  0.0465
20962W        W37810  16.247  10.954  15.591  0.1452 -0.0899 -0.4577
20963W        W37811  12.221  12.456  11.157 -0.2046 -0.2473  0.0924
20964W        W37812   7.561   7.415  15.000  0.0545 -0.5280  0.1018
20965W        W37813  10.345   9.791   0.992 -0.3573 -0.0935 -0.1004
20966W        W37814  17.029   1.078   1.135  0.0313 -0.4875  0.1911
20967W        W37815   8.677  14.463   6.417  0.0933 -0.1670 -0.1818
20968W        W37816   4.704  13.193  12.059  0.0543  0.2874  0.0088
20969W        W37817  11.021  16.660  15.634 -0.1109 -0.0575 -0.0238
20970W        W37818  14.886   8.197   2.277  0.3175 -0.0253  0.3999
20971W        W37819   7.596  13.916  15.580  0.1907  0.1059 -0.0037
20972W        W37820  14.155   1.785   3.093 -0.0065  0.0594 -0.1520
20973W        W37821   8.124   3.671  13.907 -0.0521  0.1550 -0.0971
20974W        W37822  11.902  17.517  15.075  0.2245 -0.0426  0.2148
20975W        W37823   2.337   9.585   3.966 -0.1570 -0.0194 -0.0947
20976W        W37824  18.011   7.599  14.607 -0.1280 -0.1136  0.0612
20977W        W37825   7.142  14.826   2.146 -0.1235  0.3144  0.1716
20978W        W37826  17.013  12.553  13.253 -0.1347 -0.0045  0.0370
20979W        W37827   8.708   4.753  15.734 -0.0643 -0.0590 -0.3022
20980W        W37828  12.407  12.452  12.405  0.1975 -0.1435  0.4565
20981W        W37829   9.531   5.048   4.124 -0.0206 -0.2890  0.0368
20982W        W37830  16.335   7.889   0.073  0.0424  0.1373  0.1444
20983W        W37831   1.227   2.942   4.567  0.0987 -0.0601  0.2176
20984W        W37832  15.969  11.044   5.491  0.0631  0.0093 -0.0932
20985W        W37833   2.531  15.266  15.887 -0.0661 -0.1481 -0.0539
20986W        W37834   7.832   3.590   2.148  0.1776  0.1951 -0.0104
20987W        W37835   7.227   7.698  11.883 -0.0259  0.0380 -0.2662
20988W        W37836   8.207  17.359   2.957 -0.1844  0.0531 -0.0082
20989W        W37837   9.652  17.378  12.677 -0.2545  0.0918 -0.0175
20990W        W37838  17.651  11.373   5.318  0.3280  0.1986  0.0575
20991W        W37839   1.202   1.119  13.769  0.1985  0.1625  0.2141
20992W        W37840  17.458  15.519  16.260 -0.0463 -0.0608 -0.1349
20993W        W37841   6.643   3.641   3.409  0.1786 -0.2984  0.0579
20994W        W37842  13.744   1.455   4.666 -0.1408  0.1182  0.3490
20995W        W37843  12.715  10.711   6.094 -0.0739 -0.0342 -0.0746
20996W        W37844  13.013   2.973   2.286  0.4889 -0.1008  0.0044
20997W        W37845  11.661   5.797  14.964 -0.1427  0.1538  0.2402
20998W        W37846   8.645   8.316   3.443  0.0003 -0.2328  0.2318
20999W        W37847   7.273   8.557  13.051 -0.0325 -0.1043  0.1053
21000W        W37848  12.831  14.196   1.400 -0.2693  0.2613  0.2057
21001W        W37849   7.429   7.161   4.274  0.2346 -0.0931  0.2220
21002W        W37850  17.591   5.112   0.585  0.0019 -0.0203  0.2186
21003W        W37851   8.459   5.713  15.514  0.0506  0.0264  0.0863
21004W        W37852  17.373  17.350   0.944 -0.1724  0.3443  0.1533
21005W        W37853  13.619   5.470   3.600 -0.0377 -0.1988 -0.2117
21006W        W37854  14.978  16.797   5.050  0.1249  0.2594 -0.1017
21007W        W37855   3.059   4.820  11.667  0.0025  0.1086 -0.0870
21008W        W37856  11.013   8.472  15.929 -0.1430  0.3429 -0.1198
21009W        W37857   2.808   9.674  11.916 -0.3614  0.1654 -0.0506
21010W        W37858   0.144   2.939   4.854  0.2652  0.2498 -0.2747
21011W        W37859   4.228   1.837  15.884  0.0556  0.2605  0.1982
21012W        W37860   4.569  10.564   2.776  0.0001  0.1188  0.1139
21013W        W37861  10.173   7.521   2.500  0.2270  0.2338 -0.3606
21014W        W37862   6.308  16.403  15.258 -0.0456 -0.0107  0.0730
21015W        W37863  10.328  17.359  11.544  0.0910  0.3450  0.3729
21016W        W37864  11.888   0.780   1.412  0.0560 -0.2374 -0.0462
21017W        W37865   5.212  15.549   3.135  0.2614 -0.0719  0.2725
21018W        W37866   1.199   0.414  15.682  0.2422 -0.2894 -0.1192
21019W        W37867   9.609  10.919   3.610  0.0367  0.3939  0.0022
21020W        W37868   4.910  16.054  15.498 -0.3018 -0.0474  0.0557
21021W        W37869  16.481   3.486   5.132 -0.3055  0.3633 -0.1965
21022W        W37870   2.481   1.396   3.078  0.0573  0.1717  0.0375
21023W        W37871  13.896   5.459  15.108 -0.2528 -0.0124 -0.1434
21024W        W37872   8.821   8.243  12.224  0.0776  0.0680 -0.0760
21025W        W37873   5.802   8.259  12.247  0.1501 -0.0604  0.0586
21026W        W37874  14.105  12.450  15.970 -0.1119 -0.0342  0.1356
21027W        W37875   2.451   4.469   5.131  0.2127 -0.2727  0.1604
21028W        W37876   0.485   2.991  15.728  0.2066 -0.1857 -0.1236
21029W        W37877  10.074  10.410  11.181  0.0134 -0.1412 -0.1991
21030W        W37878  12.009   4.567   2.906  0.0174  0.3900 -0.0120
21031W        W37879  13.864   9.768  15.398  0.1409 -0.2058 -0.0776
21032W        W37880  16.440   9.946   0.144  0.1676  0.0762 -0.3032
21033W        W37881   9.699  17.199  13.398 -0.0598 -0.1898  0.5032
21034W        W37882   9.496  10.732   0.230 -0.1188 -0.0236 -0.2596
21035W        W37883  11.849  14.708  16.326 -0.2443  0.4005  0.0232
21036W        W37884   8.669   1.426   4.553 -0.1380 -0.3196 -0.1352
21037W        W37885   7.918  14.618  16.154 -0.0948  0.2498 -0.1273
21038W        W37886   1.871   7.593  14.352 -0.1506 -0.0039  0.3470
21039W        W37887   4.270  12.041  14.544  0.1595 -0.2542 -0.0612
21040W        W37888  15.942  11.580  13.188 -0.1664  0.3166  0.1737
21041W        W37889  13.979   8.428   0.235  0.3875  0.1883 -0.1501
21042W        W37890   3.175   4.437   0.245  0.4011  0.1975 -0.1254
21043W        W37891  15.132   4.933   2.914 -0.0917 -0.0950 -0.3702
21044W        W37892   1.976  10.454   1.212 -0.1009  0.0944  0.2836
21045W        W37893   9.285  16.369   2.288  0.2198  0.0606 -0.0687
21046W        W37894  13.317   6.110  12.515 -0.2251 -0.2556  0.1810
21047W        W37895  13.353  14.870  15.119 -0.1197  0.0532 -0.0840
21048W        W37896   5.792   5.816   2.699 -0.0957 -0.0733  0.1175
21049W        W37897  10.233   1.019  12.764 -0.0032 -0.0807  0.1742
21050W        W37898   1.747  10.226  13.941  0.2013  0.0507  0.3191
21051W        W37899   9.034   6.360   5.471  0.0838 -0.0729  0.1279
21052W        W37900   9.858   4.225   3.245  0.0086  0.1518  0.2230
21053W        W37901  10.428  15.974   1.065 -0.0237 -0.0596  0.0385
21054W        W37902   4.508  11.492   5.118 -0.2488  0.0312  0.0825
21055W        W37903   4.705  11.965  14.726  0.0537 -0.2034 -0.1325
21056W        W37904   7.543   0.133  12.973 -0.1959 -0.2316  0.1733
21057W        W37905   9.202   0.437  12.856  0.2525  0.3445 -0.0577
21058W        W37906  14.060  12.949  15.818  0.1004  0.0229 -0.2623
21059W        W37907   3.895  13.761   2.966 -0.0812  0.0058 -0.0936
21060W        W37908   4.630  14.122   1.728 -0.5207 -0.0102  0.1815
21061W        W37909   0.149  11.492   2.129  0.2462  0.3357 -0.5235
21062W        W37910  17.394  12.825  11.857  0.0757  0.0699 -0.0884
21063W        W37911   0.640   5.744  12.294  0.0277 -0.0066 -0.1265
21064W        W37912   4.893   8.844   3.431 -0.1659 -0.1404 -0.1811
21065W        W37913   9.856  16.705  13.494  0.1281 -0.1858 -0.2227
21066W        W37914   5.749  17.563   5.021 -0.2327 -0.0583  0.2751
21067W        W37915  15.333   7.617   1.347  0.1163  0.1007  0.0761
21068W        W37916  11.741   4.490   3.848 -0.3599 -0.1422  0.1299
21069W        W37917  14.707   6.500  14.394  0.0313 -0.0303 -0.0910
21070W        W37918   0.866  15.275  13.181 -0.4262 -0.1265 -0.1221
21071W        W37919  16.209   5.706   4.536 -0.0361  0.1030 -0.0309
21072W        W37920  17.338  10.850   1.531  0.0455 -0.1444 -0.1392
21073W        W37921  11.392   9.337   0.314  0.1444  0.0107  0.3053
21074W        W37922  12.294  15.183  12.922 -0.0495 -0.0868 -0.0338
21075W        W37923   0.514  16.693   4.321  0.0883 -0.1889 -0.0333
21076W        W37924   5.890   0.799   0.939  0.0914  0.0185 -0.0662
21077W        W37925  11.531  14.741  12.118 -0.0982 -0.1453 -0.0284
21078W        W37926   9.601   8.743  15.884  0.3480 -0.1299  0.2901
21079W        W37927  12.449  17.427  14.781  0.0656 -0.0249  0.1406
21080W        W37928   4.849  13.928   2.576 -0.0671 -0.0922  0.0458
21081W        W37929  17.491  14.874   5.318  0.3272 -0.2362  0.0350
21082W        W37930   9.507  13.100   2.757 -0.1568 -0.2465 -0.0285
21083W        W37931   8.254   3.900  11.210  0.2173 -0.2350 -0.0654
21084W        W37932  13.619   7.788  14.021  0.1868 -0.1591 -0.0598
21085W        W37933  11.851   2.085   6.047  0.3479 -0.3001 -0.0189
21086W        W37934   9.428  12.953   3.667 -0.2273 -0.0030  0.2060
21087W        W37935   7.773  14.481   2.872 -0.2575 -0.1246  0.1436
21088W        W37936   6.016   3.818  13.958 -0.1624 -0.3902 -0.0915
21089W        W37937   8.563   7.250  14.593 -0.2474 -0.1067 -0.2417
21090W        W37938   6.596  11.625  12.375 -0.1595 -0.3299  0.1634
21091W        W37939  12.937   8.776   0.098  0.1110  0.1077  0.1415
21092W        W37940  16.781  10.949  11.248  0.0674 -0.0774  0.5779
21093W        W37941   4.228   6.575   2.355  0.2259  0.1929 -0.2153
21094W        W37942   3.426   8.523  15.204 -0.1667  0.1440  0.0766
21095W        W37943   3.333  10.193   1.588  0.1354  0.1155 -0.0187
21096W        W37944  13.344  10.388  11.743 -0.0920 -0.0224  0.1708
21097W        W37945   4.355  10.230   0.463  0.0311  0.3855 -0.1355
21098W        W37946   2.331   6.022  13.075 -0.2108  0.2355 -0.0159
21099W        W37947   5.012  10.975   3.664  0.1868 -0.0865  0.0997
21100W        W37948  11.329   0.438   0.360  0.1212 -0.0442  0.1305
21101W        W37949  12.539  11.101   1.845  0.1564  0.0916  0.0647
21102W        W37950   7.534  10.889  11.146  0.3506 -0.0147  0.0112
21103W        W37951   2.167  16.722  12.988  0.3937 -0.2662  0.3256
21104W        W37952   8.647  17.161  13.794  0.0827  0.0603  0.1051
21105W        W37953  14.062   1.970  14.926 -0.0172 -0.2484 -0.2809
21106W        W37954   3.496  15.298   4.300  0.0373 -0.0230  0.0930
21107W        W37955  14.161   3.828  16.126  0.1509  0.1306 -0.0028
21108W        W37956   6.974   9.566   3.838  0.3702  0.0872  0.0071
21109W        W37957  12.188   9.309  15.895 -0.1641  0.0563 -0.1974
21110W        W37958   8.799   0.351   0.822 -0.1249  0.0974 -0.2014
21111W        W37959  16.291   7.986   3.508 -0.0269 -0.1675 -0.3044
21112W        W37960   2.395  11.814   0.821 -0.0477 -0.0929 -0.1686
21113W        W37961  15.617   2.081  13.711 -0.0841 -0.2782  0.2452
21114W        W37962  12.223  11.923   6.102 -0.0201  0.3056  0.0530
21115W        W37963  15.119  12.120   4.585 -0.0784  0.1070 -0.0388
21116W        W37964   3.838   4.153   0.954 -0.2010  0.1505  0.0292
21117W        W37965   2.933  16.674   2.745 -0.0206  0.0240 -0.0980
21118W        W37966  16.408   8.639   3.063  0.2706  0.0904 -0.0336
21119W        W37967   1.072   1.916  15.563 -0.1558  0.1321  0.0333
21120W        W37968  12.894  17.854   1.583  0.0721 -0.3377  0.0324
21121W        W37969   4.634  12.590   3.650  0.3534  0.0397  0.4685
21122W        W37970  15.154   7.863  12.171 -0.0507  0.0731 -0.4710
21123W        W37971   4.782  15.087  12.868 -0.1174  0.0280  0.1974
21124W        W37972  15.482   3.807  12.625  0.0016  0.3154 -0.1306
21125W        W37973  14.069  10.431   5.082  0.2037  0.0067 -0.4411
21126W        W37974   5.114  15.719  12.103 -0.2066 -0.1993 -0.1784
21127W        W37975   3.016   7.551  11.088 -0.0081  0.1332 -0.0111
21128W        W37976   9.725   3.167  14.730  0.1476  0.0809 -0.1234
21129W        W37977   4.937  15.156   6.392  0.1554 -0.3339 -0.0577
21130W        W37978   9.491   5.889   3.456  0.1591 -0.2092  0.2612
21131W        W37979  13.035   7.937  12.763  0.0569 -0.0715  0.0808
21132W        W37980  16.718   2.338  10.339  0.0668  0.0867  0.5246
21133W        W37981   0.912  16.155   6.323 -0.1424  0.0571 -0.0280
21134W        W37982  17.717   4.363  11.412 -0.3095 -0.2557 -0.2674
21135W        W37983   6.211   7.914  12.004  0.0633 -0.0291 -0.0829
21136W        W37984  13.989  14.913   3.924 -0.1316  0.0225  0.1393
21137W        W37985  12.499  12.921   4.534  0.2074 -0.1465  0.4126
21138W        W37986  12.576   7.761  14.287 -0.1372 -0.0442 -0.1292
21139W        W37987   2.849  11.010  10.912 -0.0348 -0.0352  0.1456
21140W        W37988  12.054   9.865  14.583  0.0935 -0.0466  0.1958
21141W        W37989   0.113  13.858   6.128 -0.2342 -0.1828  0.0837
21142W        W37990   6.433  10.520   2.386  0.0008 -0.3054  0.2115
21143W        W37991   9.350  15.667   3.267 -0.2877 -0.1162 -0.1222
21144W        W37992   3.873  13.570  13.184 -0.0545  0.0680 -0.0978
21145W        W37993  10.268  15.782  16.334  0.0890 -0.4177  0.0543
21146W        W37994  17.655  10.184  15.230 -0.4090  0.2872 -0.0768
21147W        W37995   1.364   5.698  13.846  0.4021  0.0938 -0.1829
21148W        W37996  10.132   7.057   2.294 -0.0435 -0.0825  0.2441
21149W        W37997  15.809  16.268   2.771  0.0303  0.1215 -0.1510
21150W        W37998  17.557  10.724   0.469  0.0071  0.1601  0.1124
21151W        W37999   9.131   7.124   3.877 -0.0734 -0.1870 -0.0338
21152W        W38000  11.510   2.047  14.409 -0.0425 -0.1509 -0.0935
21153W        W38001  13.591   5.115  11.667  0.0092  0.0031 -0.0888
21154W        W38002   7.946   8.338  11.842 -0.3026 -0.0124  0.0515
21155W        W38003   6.219  14.470   4.456 -0.0969  0.0723 -0.0185
21156W        W38004  12.903   1.674   3.536  0.3190 -0.0120  0.0630
21157W        W38005  12.226   0.383   3.541 -0.0441  0.0103 -0.1480
21158W        W38006  12.063   3.340   1.264 -0.0259  0.1831 -0.2229
21159W        W38007  16.196   0.314  15.232  0.3686  0.1261  0.1763
21160W        W38008   2.220  15.800   1.051 -0.3553 -0.1092 -0.2323
21161W        W38009  11.599   4.362  12.923  0.2244 -0.2045 -0.2461
21162W        W38010   2.965  11.016   5.494  0.3874  0.5280 -0.0659
21163W        W38011  13.087   0.179   1.254 -0.0496 -0.1904  0.0406
21164W        W38012  15.301  10.502   2.732 -0.2553  0.0789  0.2174
21165W        W38013  11.995   6.217  15.392 -0.0657  0.1002 -0.2771
21166W        W38014   9.341  14.990  12.855 -0.2351 -0.1570  0.1498
21167W        W38015  17.990   2.784  12.578  0.2845 -0.0060  0.2342
21168W        W38016  14.110  14.406   4.036  0.2065  0.0201 -0.1188
21169W        W38017  16.764   6.822   4.115 -0.2758 -0.0836 -0.3359
21170W        W38018   6.195   9.633  10.674  0.3369  0.2461  0.2891
21171W        W38019   3.943  17.680  11.816  0.2661 -0.1548 -0.1055
21172W        W38020  14.993   4.689  13.365  0.2108 -0.0339 -0.1158
21173W        W38021   2.995  10.615  11.189 -0.1225  0.1200 -0.2920
21174W        W38022  16.673   7.757  14.410 -0.1732  0.0551  0.3277
21175W        W38023  15.670   0.352  15.196 -0.1499  0.0675  0.2376
21176W        W38024   2.452   3.083  15.904 -0.2813  0.2485 -0.0746
21177W        W38025  12.906  10.433  11.471 -0.1698 -0.1195  0.1892
21178W        W38026  10.432   0.204   4.398  0.1433  0.0893 -0.3213
21179W        W38027   6.861   8.474  14.398  0.1740  0.0337  0.0380
21180W        W38028   2.748   2.279   2.425 -0.2143 -0.0893 -0.2464
21181W        W38029  10.052  12.122  14.142 -0.0497  0.1638  0.1864
21182W        W38030  14.189   3.039   3.122 -0.0816 -0.1774 -0.3374
21183W        W38031  12.781   4.709  14.453  0.3186 -0.0304 -0.1633
21184W        W38032  14.433   0.586   1.053  0.2457 -0.0210  0.0651
21185W        W38033  10.304   5.384  14.540  0.1740  0.0296 -0.0390
21186W        W38034   6.841   7.737  15.912  0.0155 -0.2055 -0.3612
21187W        W38035   3.350  11.996  16.110 -0.0795  0.2416 -0.1661
21188W        W38036  15.997  12.174   6.312 -0.2731  0.4124  0.1372
21189W        W38037   6.861   1.022  13.401  0.0080 -0.1214  0.0698
21190W        W38038  14.323  14.560   3.595  0.1524  0.4303 -0.1300
21191W        W38039   1.600  10.198  16.292  0.0367 -0.0526  0.2119
21192W        W38040  15.580  15.470  11.259 -0.1309 -0.0919 -0.2371
21193W        W38041  17.777   1.617  11.120 -0.0162  0.1767  0.2933
21194W        W38042  15.653  17.148  12.965  0.0702 -0.1789 -0.3323
21195W        W38043   2.720  10.272   4.365 -0.0442 -0.2349  0.1892
21196W        W38044  15.686   2.313   3.627  0.1411 -0.2199 -0.3582
21197W        W38045  11.641   3.833  14.221 -0.2100  0.1754 -0.0223
21198W        W38046  12.681  16.177   3.057  0.1732 -0.0053  0.2981
21199W        W38047   0.153   5.608  12.179  0.0477  0.0036 -0.0797
21200W        W38048  12.554   6.792   0.284  0.3750 -0.2639  0.0559
21201W        W38049   2.342  14.640   0.252 -0.3027 -0.2141  0.0438
21202W        W38050  10.640  12.167  13.966 -0.3801  0.1773 -0.0655
21203W        W38051   4.743   1.543  13.062 -0.2523  0.0831  0.1049
21204W        W38052   1.638   3.606   4.413  0.2771 -0.1351  0.2775
21205W        W38053   8.233  14.581   1.591  0.0489 -0.1529 -0.0496
21206W        W38054  14.984   2.042   0.286 -0.1599 -0.0362 -0.1619
21207W        W38055   7.403   0.735  16.130 -0.2947 -0.0902  0.1329
21208W        W38056  12.842  14.834  15.419  0.1702  0.0229 -0.0742
21209W        W38057  10.472  11.975  15.819 -0.4239  0.1007 -0.0853
21210W        W38058  13.254   4.048   3.775  0.2244 -0.0279  0.1418
21211W        W38059   8.617  15.972  14.235 -0.0621 -0.2740 -0.4306
21212W        W38060   5.193   0.354  15.789 -0.0205 -0.0151  0.0316
21213W        W38061   3.810   3.597  13.891  0.2538 -0.0609  0.2918
21214W        W38062   1.902   4.007   1.431  0.0590  0.3952  0.1886
21215W        W38063   5.067   9.883   1.970  0.2164 -0.2663  0.3451
21216W        W38064  11.611   6.937  11.252 -0.1042  0.2287 -0.0918
21217W        W38065   3.103  15.753   5.957  0.1145  0.1313  0.0714
21218W        W38066  17.680   1.238  10.758  0.2599  0.1503  0.2327
21219W        W38067  15.281  13.977   4.904 -0.1646 -0.1328  0.0357
21220W        W38068  11.535  10.966   0.332 -0.0705 -0.0941 -0.1871
21221W        W38069  17.881   5.458  11.407  0.0952 -0.0745  0.1428
21222W        W38070   8.872  12.196   5.696 -0.0841  0.0533 -0.2002
21223W        W38071   7.058  17.549  11.416  0.0410  0.1309 -0.0807
21224W        W38072  17.588   8.240   4.436  0.0411 -0.1480  0.0555
21225W        W38073   7.686   9.628   3.235  0.2202 -0.1693 -0.3819
21226W        W38074   6.386   1.813  13.352 -0.1320  0.3262  0.3469
21227W        W38075  11.737   6.923   1.429 -0.0932 -0.0638  0.3333
21228W        W38076  11.599   5.594  10.370 -0.0675 -0.1201 -0.4210
21229W        W38077   9.759   4.688  15.799 -0.1881 -0.0661 -0.2620
21230W        W38078   3.689   1.749   0.316 -0.1430  0.0338  0.3624
21231W        W38079   9.775  14.521  13.818 -0.1215 -0.1666  0.3148
21232W        W38080  15.396  13.186   0.884 -0.0850  0.1698 -0.0251
21233W        W38081   7.955  10.325   3.340  0.2562 -0.2493  0.0086
21234W        W38082  14.835   7.347   0.181  0.1284  0.1976  0.2114
21235W        W38083   5.403   9.288   2.504  0.1821  0.1070 -0.1718
21236W        W38084  16.792  13.747   4.664 -0.0127 -0.0370  0.0418
21237W        W38085   9.450   9.615   4.368  0.2537  0.1096 -0.2763
21238W        W38086   7.147  13.218  14.059 -0.1282 -0.1764 -0.2376
21239W        W38087  16.530   7.313   4.285  0.5238 -0.1128  0.1229
21240W        W38088   3.150   3.706  12.599 -0.1590  0.3284 -0.1147
21241W        W38089   0.506  10.196  16.277 -0.0122  0.4120 -0.0697
21242W        W38090  14.678   6.841  15.305  0.0656 -0.0020  0.0128
21243W        W38091   1.966   8.987   5.402  0.0296  0.0525  0.1183
21244W        W38092   7.175   8.562  15.501  0.0259  0.0668 -0.1816
21245W        W38093  10.760  13.995  14.707  0.1026 -0.0318  0.0499
21246W        W38094  15.479  11.465   4.690 -0.0843 -0.1378  0.3951
21247W        W38095   9.098  17.413   3.261 -0.2631  0.0946 -0.2289
21248W        W38096   9.729   1.598  14.384 -0.1289  0.0127  0.0804
21249W        W38097   9.501   9.148   2.608 -0.3828  0.1023  0.1154
21250W        W38098   6.739   2.570   1.608 -0.3389  0.4144  0.1742
21251W        W38099  10.245  17.760   3.701 -0.0195 -0.1793  0.0882
21252W        W38100   9.785  12.329  12.909  0.0827  0.2271 -0.3487
21253W        W38101   7.307   7.938   1.577 -0.0895  0.2541  0.1180
21254W        W38102   3.581   8.371  13.837 -0.5911 -0.0800  0.0836
21255W        W38103  13.756   2.254   0.986  0.5358  0.0882  0.1681
21256W        W38104  14.288   5.589  16.290  0.0921  0.0727 -0.1331
21257W        W38105  15.367  17.436   1.722 -0.1767 -0.0691 -0.3055
21258W        W38106  17.655  14.803   0.540 -0.2856  0.1692  0.2402
21259W        W38107  15.046   1.135  11.693 -0.0643  0.1630  0.0244
21260W        W38108  16.905  12.525  12.232 -0.1024 -0.1272  0.1681
21261W        W38109   9.689  13.872   0.463  0.2011  0.1053  0.1034
21262W        W38110  17.963  16.952  14.427  0.1327 -0.1630 -0.0797
21263W        W38111  16.579  16.168  14.762 -0.0464  0.1639  0.0008
21264W        W38112   7.565   5.220  11.311 -0.0931 -0.3464 -0.3910
21265W        W38113   1.217  17.976  12.957  0.0997  0.1910 -0.2857
21266W        W38114  14.799  16.201   4.978 -0.1165 -0.1085  0.1127
21267W        W38115  15.129  17.296  12.792 -0.1894 -0.1483  0.2181
21268W        W38116   0.404  11.761   4.073 -0.0683 -0.0128  0.0748
21269W        W38117  11.260   7.161   5.704  0.1041  0.1006  0.0143
21270W        W38118   9.195  10.521  12.714 -0.2120 -0.0592  0.1848
21271W        W38119  16.044   3.510  15.510  0.2180  0.1586 -0.0433
21272W        W38120  15.083   2.684  11.709  0.1069 -0.1541 -0.0948
21273W        W38121  10.738   7.079   0.409 -0.2035 -0.2932 -0.3795
21274W        W38122   4.851   0.389  14.016  0.0021 -0.0299  0.1472
21275W        W38123  13.162  14.521  10.528  0.1736  0.1891 -0.3584
21276W        W38124   9.515   4.797  16.280 -0.0435  0.0804  0.1137
21277W        W38125   8.060  14.891  13.848 -0.0714 -0.2286  0.0169
21278W        W38126  11.746   7.131  12.444  0.4940 -0.0478 -0.4481
21279W        W38127  14.566  16.228   1.967  0.0133 -0.0640  0.1146
21280W        W38128  14.388  15.278  12.783 -0.0173  0.0505 -0.0106
21281W        W38129   9.915   3.254  14.260 -0.0742  0.0474  0.1453
21282W        W38130   6.928   1.948   4.820  0.2174 -0.1450  0.2964
21283W        W38131  11.196  13.168  14.778 -0.0044 -0.0896  0.2410
21284W        W38132  16.004   8.267   4.342 -0.0025 -0.1905  0.1583
21285W        W38133   6.030  18.000   1.551 -0.1189  0.0514 -0.1338
21286W        W38134   4.894  16.884  12.986 -0.0892 -0.1686  0.1518
21287W        W38135   6.779   0.280   1.234 -0.2307  0.1634  0.0553
21288W        W38136  16.754   8.535   3.859  0.0742 -0.2170 -0.2146
21289W        W38137  14.307  14.976   0.595  0.0810  0.0775  0.1861
21290W        W38138  16.300  15.511  11.001 -0.1962  0.0037 -0.1881
21291W        W38139  15.085   7.736   0.047  0.1368  0.1101  0.3351
21292W        W38140   8.517  14.305   4.787 -0.1959 -0.2083  0.0417
21293W        W38141   1.908  12.804  11.855  0.1209  0.0784  0.4040
21294W        W38142   0.021   2.879  15.716  0.2252 -0.0211  0.0073
21295W        W38143  12.709   9.772   3.504 -0.4725 -0.2135 -0.2977
21296W        W38144   9.943   7.570   1.361  0.0755  0.0537  0.3625
21297W        W38145  14.054  12.224  12.435  0.1982 -0.0596  0.1263
21298W        W38146  10.381   6.328  12.849 -0.0149 -0.1978 -0.1125
21299W        W38147   2.388   9.513   2.524  0.1380  0.1563  0.0715
21300W        W38148   4.362   0.743   2.381  0.1093 -0.1994 -0.3078
21301W        W38149   5.955   9.242   2.348  0.2620 -0.1050 -0.3018
21302W        W38150   1.876   7.890  14.884  0.0218 -0.3311 -0.0671
21303W        W38151  15.948  17.791  12.512  0.3493 -0.4548  0.1514
21304W        W38152   3.692  14.740  13.500  0.2322  0.3441 -0.0070
21305W        W38153   0.644   2.020   3.572  0.4157 -0.0526 -0.1632
21306W        W38154  17.421   0.019  12.830 -0.0806  0.2553  0.4645
21307W        W38155   1.695  15.108   0.338  0.0412  0.1100 -0.1730
21308W        W38156  16.709   0.869   5.195  0.0895 -0.0256  0.0083
21309W        W38157  12.665   4.496   2.293  0.5843  0.2338 -0.0091
21310W        W38158   6.543   8.458  14.878  0.2083 -0.0083 -0.0239
21311W        W38159   2.756  13.379   0.181 -0.1609 -0.1067  0.1949
21312W        W38160  15.961   2.257  15.366 -0.0809 -0.5141  0.0627
21313W        W38161   7.283   2.164   4.174  0.0034 -0.1112 -0.2448
21314W        W38162   8.620  13.802  12.738 -0.1196  0.0409 -0.0734
21315W        W38163  13.109  11.586  11.763 -0.0813 -0.0450  0.3370
21316W        W38164   9.540   1.408  13.718  0.2778 -0.3030 -0.1810
21317W        W38165  15.651  10.361  14.017  0.0028 -0.5077  0.1990
21318W        W38166  15.669  12.729   1.867  0.0300  0.0620 -0.0490
21319W        W38167  13.163   8.249  14.661 -0.0649  0.2902 -0.2230
21320W        W38168   7.221  17.680  12.315 -0.0633 -0.0921  0.0144
21321W        W38169  17.464   8.833  15.336 -0.0806  0.0987  0.1955
21322W        W38170  11.538   4.686   3.207  0.0390 -0.0819 -0.1537
21323W        W38171  11.744   9.037  11.391 -0.1313 -0.3753  0.2185
21324W        W38172  10.826   4.769  11.381 -0.1753  0.0789  0.0046
21325W        W38173  12.409  13.921   2.463 -0.1671  0.0372 -0.0656
21326W        W38174   9.938   3.633   5.326  0.2616 -0.0491 -0.2372
21327W        W38175  15.824  14.017   1.124 -0.2143 -0.1061 -0.2593
21328W        W38176   5.554  15.529   0.863  0.4264 -0.0069 -0.2319
21329W        W38177  15.022  15.841   0.774 -0.1741  0.1390 -0.1499
21330W        W38178   8.383   5.562   1.001  0.1682  0.3065 -0.2170
21331W        W38179   2.000  12.658   2.352  0.1899  0.4154  0.1619
21332W        W38180  10.359   7.736  10.670  0.2850  0.1645  0.1264
21333W        W38181   4.152  10.430   4.598  0.0827  0.3237  0.0886
21334W        W38182   0.281   9.028  13.234 -0.1627  0.3550 -0.1360
21335W        W38183   2.096  17.883  10.791 -0.0265  0.2620  0.0225
21336W        W38184  10.698   0.449   3.931  0.1476 -0.0362  0.1749
21337W        W38185  15.287   4.909  11.973 -0.0200 -0.0130 -0.1663
21338W        W38186  16.952   6.683   1.839  0.2586 -0.3222  0.3253
21339W        W38187  15.895  11.355   3.789  0.0929 -0.2293 -0.0219
21340W        W38188  10.285  15.239   3.192 -0.0360 -0.0522 -0.0207
21341W        W38189   8.220   2.582  15.750  0.2551 -0.1066  0.0543
21342W        W38190   6.717   0.785  11.464  0.1588 -0.3485 -0.2545
21343W        W38191   7.481   8.139   4.028  0.1077 -0.3394 -0.1533
21344W        W38192   6.872  17.446  14.402 -0.1344  0.1854 -0.0384
21345W        W38193   9.685   2.985   2.312  0.0571  0.0367 -0.0187
21346W        W38194   3.969  11.289   2.768 -0.0184  0.1780  0.0271
21347W        W38195   2.302   8.177   2.896  0.1888  0.1788 -0.0176
21348W        W38196   9.518  15.985   2.510  0.2549 -0.1482 -0.2332
21349W        W38197  12.304   4.247  15.574  0.2123  0.0934 -0.2996
21350W        W38198   9.160   3.153   5.444 -0.0867 -0.1200 -0.2491
21351W        W38199  17.164   9.728   5.166 -0.1176 -0.2288 -0.2331
21352W        W38200   0.982   2.515   3.777  0.0057 -0.1094  0.1099
21353W        W38201  11.273  15.586   2.860  0.2224 -0.1560  0.1015
21354W        W38202   8.951   1.573  13.835  0.2913 -0.0205 -0.2158
21355W        W38203  14.534  11.147   3.048  0.1238 -0.1920  0.3196
21356W        W38204  14.905  12.022  13.182  0.0802 -0.0448 -0.1878
21357W        W38205   4.179  10.496   2.468  0.0081 -0.0365  0.3017
21358W        W38206   7.710   1.522  16.164  0.1738 -0.2423 -0.1365
21359W        W38207  16.467  17.589   2.494  0.1029  0.1412 -0.4409
21360W        W38208   3.323   2.938  14.831  0.0141  0.1104  0.0706
21361W        W38209   7.285   7.074  15.222  0.0013  0.0751 -0.1080
21362W        W38210  13.675   0.821   0.577 -0.1044 -0.1079  0.0042
21363W        W38211   2.772   5.899  14.908 -0.1658  0.0780 -0.1646
21364W        W38212   4.028  14.157   0.071 -0.0837  0.1314 -0.3153
21365W        W38213  12.951   8.834  15.972 -0.0663 -0.2577 -0.3441
21366W        W38214  13.621  10.157  10.818  0.0469  0.2216  0.1253
21367W        W38215  11.991  12.688  13.175  0.2291  0.0140  0.3493
21368W        W38216   8.620   3.169   5.152  0.3045 -0.0116  0.0180
21369W        W38217  15.837   5.642   5.320  0.1366  0.1358 -0.1106
21370W        W38218   9.210   5.281  14.196 -0.0991  0.2228  0.0443
21371W        W38219  14.557  15.349   1.710  0.1355  0.1019 -0.2559
21372W        W38220   2.815   7.125  13.537  0.2143 -0.1935  0.0159
21373W        W38221  14.426  12.689   2.874 -0.3420 -0.0711  0.0656
21374W        W38222   6.775   1.437   4.046  0.1411 -0.1932 -0.1022
21375W        W38223  12.019  14.931   3.400  0.0406  0.2267 -0.2819
21376W        W38224   0.520  14.959   3.039  0.1903 -0.4279 -0.2346
21377W        W38225  13.373  12.243  16.123 -0.0700  0.0545  0.0104
21378W        W38226   5.477   6.695   2.885 -0.2772  0.0113 -0.1854
21379W        W38227  14.666  11.831  11.983  0.0494  0.0414  0.0703
21380W        W38228   8.292  16.193   0.561  0.1187 -0.0998 -0.4869
21381W        W38229   0.155  16.845   2.581 -0.1836  0.0886 -0.2101
21382W        W38230  16.577  10.305  15.106  0.0449  0.2236  0.2427
21383W        W38231   5.514  11.714   4.143  0.2111 -0.4008 -0.3446
21384W        W38232  13.340  17.614  13.796 -0.0678  0.1368 -0.1316
21385W        W38233  10.058   8.529  16.055 -0.1802 -0.1581 -0.0653
21386W        W38234  15.469   4.788  14.960  0.3886 -0.0029  0.2636
21387W        W38235   7.522   8.872  11.268  0.1550 -0.0890  0.0792
21388W        W38236   9.763  10.108   2.218  0.0576 -0.0472 -0.0868
21389W        W38237  13.453  14.468   4.487  0.0284  0.0511 -0.1031
21390W        W38238  17.857  12.927  15.976 -0.1424  0.1527  0.0671
21391W        W38239   5.795  13.199   0.625  0.0796  0.2028  0.1029
21392W        W38240  14.753   2.321  15.278  0.1439  0.2300 -0.0812
21393W        W38241   9.599  12.971   1.447  0.2518  0.0211  0.2573
21394W        W38242   7.744   6.982  14.827 -0.2726 -0.1648  0.1973
21395W        W38243  12.852  14.690   2.643 -0.1256 -0.0869 -0.0072
21396W        W38244   0.588  12.804   0.505  0.0158  0.0625 -0.1333
21397W        W38245   2.848   7.809   0.003 -0.3362 -0.2367  0.1444
21398W        W38246  15.906   5.694  14.745  0.0127 -0.1054 -0.0191
21399W        W38247   7.142   6.259  14.370 -0.0517 -0.0820 -0.3235
21400W        W38248  14.758  13.394  13.181  0.1659 -0.0663 -0.2711
21401W        W38249   4.578   1.101   2.588  0.0480  0.1632 -0.2453
21402W        W38250   8.676   0.806   2.382 -0.0398 -0.0272 -0.3417
21403W        W38251  14.411   5.843   3.822 -0.1048 -0.0006 -0.0064
21404W        W38252   6.138  10.433   3.116 -0.0208  0.3349  0.1454
21405W        W38253  13.909  14.143   4.504  0.0903 -0.1721 -0.1877
21406W        W38254   3.176   5.670  11.831  0.1726 -0.1827 -0.1529
21407W        W38255  16.471   1.866  11.674 -0.0711 -0.2818 -0.2675
21408W        W38256  10.693   2.823   4.630  0.3590 -0.1593 -0.2942
21409W        W38257  11.359   3.953  13.312  0.2828 -0.0665 -0.1630
21410W        W38258  16.131   1.648   5.023  0.0918 -0.0690 -0.2313
21411W        W38259   9.669   3.511   4.230 -0.2755  0.1392 -0.1836
21412W        W38260  10.888   7.743   0.793  0.0617  0.1636 -0.1894
21413W        W38261  16.259   8.338   2.675 -0.1473  0.2634 -0.1788
21414W        W38262   4.466   0.310  15.228 -0.0858 -0.0789  0.2969
21415W        W38263   5.097   8.339  13.635  0.1674  0.0054 -0.1332
21416W        W38264  16.184  16.129  13.507  0.0389  0.2822  0.3098
21417W        W38265  16.697  16.527  15.222 -0.1336  0.1122  0.0768
21418W        W38266   2.862   1.754   2.301 -0.1428 -0.5479 -0.1081
21419W        W38267  17.117  14.933  14.408 -0.2071 -0.2730 -0.0144
21420W        W38268   6.138   2.006  11.859  0.2767  0.1112 -0.0347
21421W        W38269   8.563  11.960  15.815  0.2823 -0.2444  0.1034
21422W        W38270  15.447  15.039  16.019 -0.2138  0.0065 -0.2373
21423W        W38271   3.534  14.409   1.063 -0.1927 -0.0005  0.1360
21424W        W38272  14.396  14.122   3.220  0.3993  0.0453 -0.3267
21425W        W38273   9.065  15.278  12.407  0.1994 -0.0483  0.1594
21426W        W38274   8.660  12.960   2.307  0.0366 -0.4779 -0.1674
21427W        W38275  12.757  11.417   5.441  0.0672 -0.0875 -0.0521
21428W        W38276  11.247   1.119  14.281 -0.1672  0.2258  0.3884
21429W        W38277  10.757   7.270  14.612 -0.0002  0.1193  0.0968
21430W        W38278  13.269  10.752   4.721  0.1043 -0.0355 -0.1163
21431W        W38279  13.372   7.847  11.392  0.0502  0.0090  0.1267
21432W        W38280  12.398   3.886   0.722  0.2631 -0.1956 -0.0853
21433W        W38281  12.323  14.349   1.217 -0.0043 -0.0507  0.1597
21434W        W38282  12.767   1.319   1.607  0.1481 -0.1790  0.2693
21435W        W38283  17.097   5.101   0.351 -0.2604  0.0547 -0.1376
21436W        W38284   6.664  11.708   2.503  0.0324 -0.2084  0.0360
21437W        W38285  14.182  13.141  15.384  0.0096 -0.0757 -0.3321
21438W        W38286   9.069  17.749  13.201 -0.1106  0.2438 -0.0879
21439W        W38287   4.973   5.740   3.131  0.0275  0.0207  0.3396
21440W        W38288  12.599  17.728  13.714 -0.1616  0.2962  0.2149
21441W        W38289   0.554   8.376   4.479 -0.1089  0.2501 -0.0874
21442W        W38290   0.258  17.330  11.709 -0.1859 -0.2114  0.0775
21443W        W38291  15.977  12.909  15.422  0.2301  0.0311 -0.0578
21444W        W38292   8.169   3.533  15.920  0.0003 -0.2501 -0.0045
21445W        W38293   4.913   7.233  11.503  0.0237 -0.3544  0.1947
21446W        W38294  13.030   1.881  15.785 -0.1193  0.0671  0.0406
21447W        W38295  10.026   7.486  14.323 -0.1302 -0.3441 -0.0734
21448W        W38296   5.070  14.130  13.864 -0.1840 -0.1438 -0.0561
21449W        W38297  15.077   8.893  12.464 -0.0923  0.1505 -0.0057
21450W        W38298  17.364   3.856   2.337  0.1313  0.1760  0.0237
21451W        W38299  13.620   0.435  15.981 -0.2722  0.1131  0.0716
21452W        W38300  14.712  10.038   4.902  0.1050 -0.1835 -0.1610
21453W        W38301  12.336   7.725  12.480 -0.1196 -0.1397 -0.2818
21454W        W38302  17.263   9.852  15.056 -0.0396  0.2456 -0.0880
21455W        W38303   6.149  15.983  16.277  0.0507  0.3758  0.0040
21456W        W38304   8.742   5.121   1.059 -0.0695  0.1359  0.1747
21457W        W38305  13.355  11.786  15.950 -0.1370  0.3500 -0.2482
21458W        W38306   2.755   0.910  15.801  0.0930  0.3597  0.0030
21459W        W38307   6.608  17.505   4.330  0.0284 -0.1579 -0.0827
21460W        W38308  14.349   8.080  14.624  0.0255  0.1626  0.0331
21461W        W38309  12.839   1.072   2.449 -0.2589  0.3442 -0.0275
21462W        W38310  16.172   2.248  14.491  0.0071 -0.1263  0.3737
21463W        W38311  13.650  17.115   2.013 -0.0276 -0.1306 -0.2479
21464W        W38312   4.186   3.725   3.635 -0.0102 -0.1922  0.0619
21465W        W38313   5.288   1.408  11.744  0.3146  0.2075  0.1070
21466W        W38314  14.782  17.767   2.282  0.1286  0.0839  0.1897
21467W        W38315   1.673   6.638  14.437 -0.0162  0.0654 -0.1743
21468W        W38316  15.841   9.064   0.247  0.2900 -0.3122 -0.0802
21469W        W38317  15.866  14.529   3.225  0.1868  0.0781  0.0414
21470W        W38318   9.145   7.727   3.682 -0.1329  0.0905  0.2795
21471W        W38319   3.840   8.350   4.589 -0.2091 -0.0479 -0.1307
21472W        W38320   4.356   9.875   0.848  0.0024  0.3438  0.3080
21473W        W38321   4.869   3.453  15.081  0.0139 -0.2842  0.0338
21474W        W38322   7.551   3.618  11.496 -0.0087  0.0324 -0.0527
21475W        W38323   1.587  16.992   3.285 -0.0722  0.0313 -0.1546
21476W        W38324   6.648   6.519   1.310  0.0527  0.0515  0.0451
21477W        W38325   8.290  12.925   1.998 -0.1465 -0.0418  0.0152
21478W        W38326   1.949  15.405   5.466 -0.1680 -0.0730 -0.0481
21479W        W38327   7.989   4.912   4.341 -0.1534 -0.3072  0.0034
21480W        W38328   2.023   5.135   4.513  0.0341 -0.3111 -0.0150
21481W        W38329  10.002  12.383  12.422 -0.2404  0.0839 -0.2560
21482W        W38330  10.171   1.554  12.896 -0.0359  0.1591 -0.3052
21483W        W38331   4.358   0.364   2.716  0.2063 -0.0276  0.1159
21484W        W38332  17.145   2.895   1.225  0.0661 -0.3637  0.1394
21485W        W38333   6.457   6.090  14.876 -0.0206 -0.1573  0.3890
21486W        W38334   8.394   0.504   4.047 -0.1146 -0.2056  0.1092
21487W        W38335   7.694  11.757   3.779  0.0938  0.2161 -0.1173
21488W        W38336  11.002  17.025   0.530 -0.1911 -0.0665 -0.0834
21489W        W38337   2.819  14.253  13.227 -0.1945  0.1140  0.0238
21490W        W38338  16.761   0.017  16.302  0.0094 -0.1520  0.0037
21491W        W38339   9.028  15.572  16.212  0.0776  0.1022  0.2362
21492W        W38340  10.515  11.108   4.159  0.0330  0.0564 -0.0156
21493W        W38341  11.376  17.459  15.094  0.0322  0.0879 -0.0524
21494W        W38342   5.834   8.680   2.231  0.1023 -0.3028  0.0164
21495W        W38343  16.228   5.476   4.098  0.1559 -0.0575  0.1410
21496W        W38344  12.106  16.980  15.317 -0.3023 -0.0034 -0.1905
21497W        W38345  15.616   5.964   0.018  0.1689  0.0483 -0.2378
21498W        W38346   0.639  13.592  13.466 -0.0321 -0.1819  0.1124
21499W        W38347  14.078   4.817  15.953 -0.2903 -0.1284  0.4334
21500W        W38348  14.858  11.999  14.824 -0.0539 -0.3174  0.0611
21501W        W38349   4.385   8.796  11.867  0.2583 -0.0195  0.0404
21502W        W38350   7.457   3.030  13.670 -0.2657  0.0971  0.2290
21503W        W38351   1.889  17.373   1.197 -0.0546 -0.1183 -0.0690
21504W        W38352   8.368  15.557  15.051  0.3456 -0.0132  0.0582
21505W        W38353   2.610   8.282   0.071 -0.0757  0.1699  0.1624
21506W        W38354   1.234  17.596  14.111 -0.0804  0.1345  0.0567
21507W        W38355   3.168   8.544  13.447 -0.3109 -0.1382 -0.0132
21508W        W38356   6.776  12.666  11.315 -0.0946 -0.0738 -0.2065
21509W        W38357  13.632  17.916   1.846  0.0430 -0.0545 -0.2231
21510W        W38358   6.652   1.519  13.619  0.2456  0.0643 -0.0905
21511W        W38359   9.699   3.956   0.024  0.0071 -0.0465 -0.0859
21512W        W38360  11.830   5.229  11.159  0.0524  0.0381  0.5092
21513W        W38361  14.081  13.707   4.421 -0.0513 -0.0498  0.3138
21514W        W38362  12.726  11.205  10.684 -0.1831 -0.1861  0.3288
21515W        W38363   8.546  16.458   0.211  0.3039 -0.0003 -0.0772
21516W        W38364  12.185  12.600   2.170  0.1717  0.3049 -0.2909
21517W        W38365  11.947  15.014  15.917  0.0006  0.3074 -0.1203
21518W        W38366   9.348  13.134  12.488 -0.2536 -0.2500  0.1544
21519W        W38367  10.411   9.776  14.084  0.0815  0.3189  0.0415
21520W        W38368   0.183   6.321  14.740 -0.4526 -0.3244 -0.2158
21521W        W38369   9.033  13.128   1.335  0.1515  0.1341 -0.2186
21522W        W38370   9.159   4.693   3.829  0.1140  0.0275 -0.1296
21523W        W38371   9.765  11.884   4.061 -0.1114  0.0332  0.1418
21524W        W38372   7.612   2.009  15.155  0.0183  0.2588 -0.0672
21525W        W38373  14.167   2.683   1.853  0.1241 -0.1257  0.0897
21526W        W38374  14.764  15.665   2.690 -0.0405 -0.0445 -0.1346
21527W        W38375  10.334   5.998  14.065  0.0527  0.1429 -0.0478
21528W        W38376  14.350   9.516   3.768  0.1605  0.0841 -0.0209
21529W        W38377   1.377   4.988   3.234  0.1178 -0.2823 -0.2909
21530W        W38378   7.984   2.553   9.993 -0.0595  0.2019 -0.1846
21531W        W38379   3.091   9.332  11.665 -0.1881  0.1383 -0.1051
21532W        W38380   3.816   5.003   4.906  0.3331 -0.1560  0.0834
21533W        W38381   5.902   9.955   0.055  0.2637  0.2764  0.0166
21534W        W38382   0.326  17.928   2.410 -0.1665  0.1690 -0.3615
21535W        W38383   5.347  13.312  14.305 -0.0884  0.0363 -0.3299
21536W        W38384   4.609   4.277   3.074  0.0218  0.1806 -0.1930
21537W        W38385   0.335  14.485   5.473  0.3462 -0.0545 -0.2162
21538W        W38386  14.052  14.768  15.993  0.1397 -0.0890  0.1222
21539W        W38387   3.933   2.365  14.356  0.0129  0.1291  0.1106
21540W        W38388  14.474   7.321  15.262  0.1706 -0.0821  0.2711
21541W        W38389   6.082  10.883   3.964 -0.2348 -0.0219 -0.1982
21542W        W38390   3.411   3.695   4.822 -0.0550  0.2449  0.1688
21543W        W38391  12.941  15.635   4.213 -0.3333  0.0587  0.0074
21544W        W38392   0.492   9.645   1.719 -0.3309 -0.1211  0.1209
21545W        W38393   4.110   5.645  13.593 -0.1329 -0.1377  0.1573
21546W        W38394   9.742   1.116   5.479  0.2247  0.2368  0.1809
21547W        W38395  15.431  12.643   0.381 -0.0190  0.3841 -0.1319
21548W        W38396  11.902   6.647  13.783  0.0854 -0.0776  0.2255
21549W        W38397   9.082  15.066   1.725  0.0227  0.0783  0.0036
21550W        W38398   4.928   3.248  11.469 -0.0173  0.1634 -0.1819
21551W        W38399   2.735   7.330   3.951  0.3012 -0.1940 -0.0447
21552W        W38400   0.205   1.968  12.574 -0.1780  0.1324 -0.0532
21553W        W38401   7.079   1.550   1.786  0.0473 -0.2858  0.1089
21554W        W38402  14.301   9.072  15.926 -0.2660 -0.0780 -0.0778
21555W        W38403   9.109  11.250  14.185 -0.3149  0.0304 -0.1547
21556W        W38404   0.083  11.063  14.328  0.1208 -0.2763 -0.2606
21557W        W38405   4.811   9.894  12.098 -0.1149 -0.0350  0.1028
21558W        W38406  14.690  15.450   3.349  0.0261 -0.2881 -0.0884
21559W        W38407  17.687  11.050   4.084  0.1189  0.0326  0.1280
21560W        W38408   4.976   5.953  13.317 -0.0320  0.2787 -0.0860
21561W        W38409  12.306  13.057   1.877 -0.1001  0.2960 -0.1660
21562W        W38410  17.621  12.973   1.086  0.0088 -0.0059  0.1296
21563W        W38411  15.851  12.371   3.860 -0.1093 -0.2028 -0.1067
21564W        W38412   6.418  17.496   2.716 -0.0796 -0.0374  0.1619
21565W        W38413   7.856  12.379   2.600 -0.1252 -0.1041 -0.2165
21566W        W38414   9.036   5.158   4.000  0.0509 -0.0439  0.2761
21567W        W38415   3.797   2.655  13.659  0.0023 -0.2627  0.1613
21568W        W38416   4.376  16.919   4.270 -0.0182  0.0984 -0.0736
21569W        W38417  16.013   3.244   3.612  0.5255 -0.2720  0.0233
21570W        W38418  11.427  15.161   1.801 -0.0406 -0.1822 -0.2917
21571W        W38419   7.366   8.996  15.669  0.0114 -0.0971  0.0279
21572W        W38420  10.635  16.898   2.940  0.1489  0.0948 -0.2813
21573W        W38421  15.476   3.763   1.443  0.2369 -0.2635  0.1533
21574W        W38422   4.513  14.053   0.202  0.2031  0.0210  0.0756
21575W        W38423   2.461   7.012   6.404  0.0593 -0.1358 -0.4998
21576W        W38424  15.594  13.411   1.714 -0.0541  0.1423 -0.2382
21577W        W38425  12.994   8.257   5.387 -0.1184  0.0515 -0.0745
21578W        W38426  10.547  12.112   4.521  0.0777 -0.0941  0.0342
21579W        W38427   5.198  12.304  11.584  0.0445 -0.1153  0.0896
21580W        W38428   6.408   8.753   5.791  0.0873  0.0658 -0.0379
21581W        W38429   5.584   6.864   4.419 -0.0110  0.0124  0.0623
21582W        W38430  11.689  15.961  16.330 -0.1513  0.2650 -0.1785
21583W        W38431  14.011   9.683   1.447  0.0894  0.0396 -0.2568
21584W        W38432   4.765   0.892   3.172  0.0416 -0.0854 -0.1586
21585W        W38433   4.719  14.341   3.013 -0.0051  0.3146 -0.2946
21586W        W38434  16.095   6.994   1.123  0.1068  0.0596  0.0970
21587W        W38435   3.383   5.322   0.129 -0.0878  0.1323 -0.0501
21588W        W38436  13.470   7.738   3.857 -0.4260 -0.2591 -0.2249
21589W        W38437  13.278   9.040   1.350 -0.2159 -0.1097 -0.2816
21590W        W38438   6.277   2.876   2.261 -0.0334 -0.0193  0.0815
21591W        W38439   2.448  12.471   2.517  0.0636 -0.1571  0.2252
21592W        W38440  11.176  17.843   0.899  0.1510  0.1523 -0.1239
21593W        W38441  16.991  10.096  12.309 -0.0806 -0.1039  0.5163
21594W        W38442   4.146  11.159  12.841  0.2234  0.1316  0.0632
21595W        W38443   6.398  12.702   4.397 -0.1866 -0.0827 -0.3160
21596W        W38444  16.783   9.247   0.722  0.5306  0.1477  0.0649
21597W        W38445  11.970   8.497   4.954 -0.2020  0.3236  0.1220
21598W        W38446   8.219   1.995  14.293  0.1953 -0.3988 -0.0382
21599W        W38447  12.286   9.976   0.034 -0.0868  0.0916 -0.0597
21600W        W38448  11.909   4.361  14.220 -0.0148  0.1583 -0.2105
21601W        W38449   7.294  10.484   2.667 -0.0323  0.0768  0.1478
21602W        W38450  17.467   4.680  11.877  0.2217 -0.1053 -0.0906
21603W        W38451  12.338   8.744  15.831 -0.1586  0.0057  0.3389
21604W        W38452  14.268  16.718   3.488  0.2287  0.0055  0.0052
21605W        W38453  11.793   4.055  14.990  0.1796  0.1127  0.1466
21606W        W38454   1.945  10.071   2.631 -0.2239 -0.1362 -0.1655
21607W        W38455   1.506   4.590  13.211  0.2104  0.2035  0.1787
21608W        W38456   8.697   6.261  16.026 -0.1119 -0.0528  0.2167
21609W        W38457  14.827   2.809   3.810  0.1571  0.0425  0.0181
21610W        W38458   3.077  14.944  14.085 -0.2309 -0.0146  0.2591
21611W        W38459   2.753   6.242   0.603  0.1517  0.0189 -0.1784
21612W        W38460   1.297   6.202   4.099  0.0650  0.0944 -0.2762
21613W        W38461  11.862  10.246   1.615 -0.2376  0.1161  0.0643
21614W        W38462  12.116  14.338   2.558 -0.2788  0.1407 -0.0594
21615W        W38463   7.855   5.959   4.245  0.1120 -0.0674  0.0740
21616W        W38464  11.530  12.682   0.767 -0.2226  0.2466  0.0232
21617W        W38465   0.315   3.093  15.229  0.1541 -0.0556  0.0610
21618W        W38466  14.574  14.080   6.119  0.0894  0.3196  0.1813
21619W        W38467   3.676   3.877   5.710 -0.0328 -0.0549  0.3229
21620W        W38468  12.348  17.144   2.240  0.1352  0.4057 -0.1550
21621W        W38469  17.012  17.116  11.176  0.2936 -0.1520 -0.0314
21622W        W38470   1.531   5.845  16.228  0.0761  0.2872  0.1651
21623W        W38471   3.694  14.493  10.333 -0.1405  0.2218 -0.1105
21624W        W38472   9.484   6.336   3.691  0.0495 -0.0013  0.2453
21625W        W38473   5.358   8.476  14.072 -0.0182  0.1065 -0.2725
21626W        W38474  12.428  16.948  13.519 -0.0248 -0.3324 -0.0160
21627W        W38475  10.019   1.868  16.103  0.0419 -0.0934  0.1075
21628W        W38476   9.677  11.693  12.413 -0.0984  0.0645 -0.1805
21629W        W38477   1.372   6.427  13.239  0.0701 -0.3048  0.0621
21630W        W38478   7.143   4.891   1.609  0.2283  0.1540  0.0240
21631W        W38479   1.191   7.110   1.802 -0.0477  0.0371  0.0699
21632W        W38480  17.116  12.850   4.753  0.0807 -0.1226 -0.0727
21633W        W38481   5.899   7.131  14.042 -0.3635 -0.2442 -0.0337
21634W        W38482   7.466   3.573   3.567  0.3117  0.1956 -0.2016
21635W        W38483   3.284  15.782   3.252  0.1131  0.0270 -0.2491
21636W        W38484  12.776  14.768  16.284  0.1842  0.3348  0.2655
21637W        W38485  10.389  13.980  12.407 -0.0574  0.0304  0.1233
21638W        W38486   0.426   2.498   4.422  0.1512 -0.0031  0.2104
21639W        W38487   1.607   8.126  13.598  0.0023  0.2347  0.2617
21640W        W38488   0.439   0.437   2.804 -0.1759  0.2081  0.2920
21641W        W38489  10.403   7.085  12.301 -0.2631  0.0975 -0.1581
21642W        W38490  11.023   6.268   2.868  0.1860 -0.0061 -0.0807
21643W        W38491  11.411  10.515   3.579  0.1021 -0.1340  0.2369
21644W        W38492  12.473  11.230   1.267 -0.1510 -0.0957 -0.0305
21645W        W38493  15.479   7.982   0.357 -0.3385  0.0116 -0.0283
21646W        W38494  13.570   5.580   2.693 -0.2069  0.1115 -0.1119
21647W        W38495   2.455  10.099   0.035  0.2337 -0.0230  0.0202
21648W        W38496  12.181   7.019  13.993  0.1024  0.1244 -0.0525
21649W        W38497   3.599  12.943   2.695 -0.4808  0.1396  0.4205
21650W        W38498  16.861   2.524  13.934 -0.0648  0.3906 -0.1421
21651W        W38499   8.022  12.392  15.321  0.2881  0.3227 -0.1121
21652W        W38500   0.310   0.910   4.840 -0.0443  0.1496 -0.1321
21653W        W38501  13.074  16.661  16.095  0.0322  0.0408  0.1179
21654W        W38502   8.371   1.622   2.823 -0.2198 -0.1277 -0.0979
21655W        W38503   5.911   9.582   4.874 -0.0505 -0.3697 -0.0941
21656W        W38504   8.725  14.458   2.266  0.4301  0.0974 -0.1477
21657W        W38505   8.211  15.765  12.981  0.1008 -0.3333 -0.0700
21658W        W38506   8.766   9.911   1.698 -0.0849  0.2005  0.2843
21659W        W38507   4.857   8.241   4.117 -0.3369  0.0842 -0.0102
21660W        W38508  14.344   8.785  12.780  0.2685 -0.2362 -0.1997
21661W        W38509   2.698   2.160  11.558 -0.1215  0.0131  0.0985
21662W        W38510   6.451   5.757   2.725  0.1191 -0.3408 -0.3131
21663W        W38511   7.381   8.999   1.708  0.0021  0.0674  0.0820
21664W        W38512  16.142   4.941  14.085  0.0575 -0.1646 -0.0579
21665W        W38513   5.196  14.501   4.657  0.3178 -0.2216 -0.3482
21666W        W38514  12.402  13.146   3.669 -0.1235  0.1703 -0.3647
21667W        W38515   0.475  12.056   3.615 -0.4691  0.3330  0.4083
21668W        W38516  16.942   6.599   3.222 -0.0480  0.1794 -0.1324
21669W        W38517  13.199  14.524  15.523  0.1060  0.4080  0.1887
21670W        W38518  11.382   1.633   1.454 -0.1168 -0.1191  0.1303
21671W        W38519   1.164   9.643  12.762 -0.0052 -0.2147  0.1866
21672W        W38520   3.761   3.417  16.014  0.1269  0.1626  0.1711
21673W        W38521   7.923  15.652  11.603 -0.2508 -0.4203 -0.0699
21674W        W38522  11.781  10.297  12.759 -0.2181 -0.1014 -0.0666
21675W        W38523  17.549   9.834   0.077 -0.0725 -0.1827  0.0906
21676W        W38524  14.372  10.171   2.740  0.0749 -0.1389 -0.0987
21677W        W38525   7.833  13.594  15.995  0.0191  0.0692 -0.1633
21678W        W38526  17.338   9.043  12.062 -0.3002  0.2447 -0.0080
21679W        W38527  11.443  17.165  12.113  0.3340 -0.1382 -0.0670
21680W        W38528  12.582   0.217   1.208  0.1174 -0.7701 -0.1386
21681W        W38529   2.338   3.656   2.144 -0.1023  0.0036 -0.2516
21682W        W38530  15.457   4.345   2.482  0.0544 -0.2920 -0.2151
21683W        W38531   0.050  15.226  11.645 -0.0648  0.1247 -0.0596
21684W        W38532  16.498   5.658  13.772  0.2093 -0.2603 -0.0749
21685W        W38533  16.440   7.501  14.860 -0.0580  0.1303 -0.3520
21686W        W38534  14.557  17.845  15.149 -0.4194 -0.4465  0.1217
21687W        W38535   5.110  12.681   0.344 -0.1795  0.0587  0.2237
21688W        W38536  12.765  13.248   4.877  0.1529  0.2140 -0.0473
21689W        W38537   9.964   4.177  12.361 -0.0589  0.0570  0.0888
21690W        W38538   8.923   4.344   3.064 -0.0287 -0.0420  0.1835
21691W        W38539   2.699  17.521  15.552 -0.1465  0.1944  0.2575
21692W        W38540   7.538  15.814  12.597 -0.0696 -0.1092 -0.1986
21693W        W38541   4.461  12.108  15.185  0.1091  0.0146  0.3229
21694W        W38542   5.337  16.214  16.192 -0.1090 -0.2741  0.0751
21695W        W38543   5.589   4.407  14.448  0.0030 -0.2947  0.0019
21696W        W38544   1.677  17.161   0.600 -0.1779  0.1299  0.0555
21697W        W38545   1.752   0.683  13.953 -0.1617  0.2198  0.0214
21698W        W38546   0.464   7.083  12.445  0.0472  0.1288 -0.2702
21699W        W38547   6.996   9.298  12.617 -0.2122 -0.1891 -0.4120
21700W        W38548  11.252   3.317   2.168  0.0791  0.0709 -0.0241
21701W        W38549   6.502  13.706   0.507  0.1284  0.2800 -0.3134
21702W        W38550   8.854  17.390   0.288  0.0512 -0.4451  0.0466
21703W        W38551  15.343   5.817   4.673  0.0540  0.2349  0.2001
21704W        W38552  10.580   7.248   2.217  0.2593  0.1210  0.0774
21705W        W38553   0.625  16.694  15.119 -0.3356  0.1566  0.2701
21706W        W38554   2.085  13.499  12.385 -0.0562 -0.0060  0.0311
21707W        W38555   2.794  16.255   0.041 -0.0386  0.1873  0.1644
21708W        W38556   0.319   0.148   1.248  0.0517  0.1690 -0.2974
21709W        W38557   5.153   1.146   2.959 -0.4712 -0.1772 -0.1623
21710W        W38558  10.872   0.001  14.986  0.1031  0.0244  0.0509
21711W        W38559  12.518   4.149   1.307  0.1914 -0.0872  0.2737
21712W        W38560   6.878   7.127   2.552  0.0443  0.1205  0.1630
21713W        W38561  16.875   5.348   3.378 -0.0319  0.0577  0.0561
21714W        W38562   5.632   5.875   1.084 -0.2736  0.2472 -0.1692
21715W        W38563  11.871  16.937   1.988  0.2264 -0.0512  0.1189
21716W        W38564  17.256   2.230   1.168 -0.0369 -0.0838  0.1089
21717W        W38565   2.280  12.803   3.776 -0.0521 -0.1705 -0.2772
21718W        W38566   8.211   8.782  11.925 -0.1055 -0.0556  0.0065
21719W        W38567  11.015   6.201  11.566  0.0144  0.0517 -0.2015
21720W        W38568   3.294   3.980  11.488 -0.0084  0.1380 -0.2102
21721W        W38569   3.198  15.632   1.849  0.0226  0.0814 -0.1989
21722W        W38570  13.572   5.396   1.890  0.1513  0.2084  0.1990
21723W        W38571  12.502  11.942   6.644  0.0317 -0.0976  0.0225
21724W        W38572  15.026  17.917  13.998  0.0263 -0.1363  0.2852
21725W        W38573   6.122  12.093  11.373 -0.1684 -0.1352  0.0342
21726W        W38574   2.766   7.642   1.209  0.2388  0.0482  0.0904
21727W        W38575  16.452   5.496   3.609  0.2959  0.1968 -0.3109
21728W        W38576  12.157   0.237   0.350 -0.3287 -0.2164  0.1323
21729W        W38577   1.397  16.107  12.836 -0.3054  0.0981  0.2106
21730W        W38578  15.400  10.923  15.139 -0.1151  0.1112  0.0080
21731W        W38579  17.657   2.709   3.734 -0.0030 -0.0177  0.0426
21732W        W38580   9.141  13.450  16.101 -0.1093  0.1741  0.1440
21733W        W38581   4.901   6.187  11.270 -0.0753  0.1248  0.2157
21734W        W38582  17.112  12.534  11.535  0.0580  0.0620 -0.1048
21735W        W38583   7.002   1.710  11.624 -0.0151  0.0252  0.0932
21736W        W38584   5.822  13.792   2.047 -0.1526  0.0565  0.2379
21737W        W38585   4.531  17.800   2.515  0.0076  0.2149  0.5214
21738W        W38586   2.574   0.961   2.520  0.1039 -0.0822 -0.0881
21739W        W38587   1.260  11.733   5.103 -0.0614 -0.0344  0.2131
21740W        W38588  16.259  18.007   4.022 -0.1302 -0.0446 -0.0542
21741W        W38589   3.674   5.454  13.585  0.0435  0.1023 -0.0170
21742W        W38590  16.625   6.516   4.460 -0.0794 -0.0470 -0.1096
21743W        W38591   1.278  14.570  14.156 -0.2135 -0.1695 -0.3233
21744W        W38592  13.035  11.437  14.002  0.2322  0.0786  0.1137
21745W        W38593   4.988   6.398  15.206 -0.0411 -0.0121  0.1189
21746W        W38594   6.930  10.909   4.335  0.0755 -0.2513  0.0669
21747W        W38595   6.128   5.086   5.594 -0.4506 -0.1712  0.2407
21748W        W38596   4.108   0.441   0.661 -0.0429  0.1631 -0.1689
21749W        W38597  13.161   1.517  12.889  0.1648 -0.2366  0.1932
21750W        W38598   6.481  14.717   3.566  0.1087  0.1358  0.0839
21751W        W38599  14.344  14.666   4.590  0.1073 -0.2385  0.0911
21752W        W38600  12.733  16.605   3.752  0.0237  0.1273 -0.1658
21753W        W38601   1.514  14.099  12.699 -0.1156  0.1918 -0.0934
21754W        W38602  12.019  12.757   5.644 -0.3003  0.1467 -0.1016
21755W        W38603   2.981  14.956   0.391  0.0487  0.0412 -0.0911
21756W        W38604   3.061   4.207   2.329 -0.1215  0.2703 -0.2084
21757W        W38605  15.113  10.314   4.639 -0.0882  0.3259  0.1028
21758W        W38606   4.434  16.989  12.891  0.0032 -0.0237  0.0358
21759W        W38607   8.904   4.861   1.774  0.0895  0.1045 -0.0519
21760W        W38608  11.200  14.799  14.431 -0.3278  0.1804 -0.1484
21761W        W38609   7.397   8.981  14.773 -0.0297 -0.0361 -0.1113
21762W        W38610   2.292   7.773   1.273  0.2145 -0.1090  0.1217
21763W        W38611   6.349   9.026   1.631  0.1322  0.0785  0.0666
21764W        W38612  13.744  14.003  15.719 -0.2066  0.1063  0.0331
21765W        W38613   2.939   3.285   3.366  0.1185 -0.1434 -0.1065
21766W        W38614   9.006   4.101  15.897 -0.1011  0.0882  0.0128
21767W        W38615  18.051   1.208  16.214  0.2268 -0.1938  0.0622
21768W        W38616   3.703   5.153  10.803 -0.1125  0.2359  0.1309
21769W        W38617  11.044  16.842   2.197  0.2208  0.0808 -0.0982
21770W        W38618   7.450  10.261   0.049 -0.1423 -0.1606 -0.2262
21771W        W38619  14.007  12.650  15.327  0.2822 -0.3415  0.1351
21772W        W38620   5.772   3.153   0.972 -0.1205 -0.3647 -0.2645
21773W        W38621  13.428  17.615  14.341 -0.1320  0.0170 -0.2965
21774W        W38622  18.084   8.468   2.529 -0.1273 -0.0521 -0.1323
21775W        W38623   0.398  17.297   2.168 -0.1613  0.0017  0.1502
21776W        W38624  17.793  11.643   0.452 -0.0083  0.1331 -0.0704
21777W        W38625   3.871  17.968   3.272 -0.1089  0.2920  0.0813
21778W        W38626  11.360   6.094   4.076 -0.0493  0.4498 -0.0040
21779W        W38627   8.014   3.995   0.645 -0.3070 -0.0918  0.0983
21780W        W38628  10.678  12.744   2.033 -0.1011  0.1544  0.2609
21781W        W38629   4.741  16.350   3.474 -0.1729 -0.1117 -0.0274
21782W        W38630  16.135  17.880  11.393 -0.0904 -0.2194  0.0063
21783W        W38631  10.763  15.620  15.082 -0.1821  0.3032  0.3672
21784W        W38632   3.083   8.068   3.509 -0.2727  0.0246  0.1774
21785W        W38633  11.203   8.811   3.237  0.0974 -0.1787 -0.0752
21786W        W38634  16.363   0.692   4.353  0.1668  0.0055  0.0635
21787W        W38635  13.100   6.180   3.825  0.2752  0.4048 -0.1055
21788W        W38636  13.735  14.052   3.128 -0.1030 -0.0302  0.1183
21789W        W38637   6.791  17.840  14.103 -0.0399  0.1553 -0.2609
21790W        W38638   4.936   3.642  13.793 -0.1165  0.1144 -0.0214
21791W        W38639  10.794   3.953  11.991  0.0499  0.0872  0.0551
21792W        W38640  11.236  14.812  13.189 -0.2749 -0.0550 -0.3931
21793W        W38641  16.243   1.314   3.391 -0.1154  0.1379 -0.1037
21794W        W38642  11.311   8.669   1.548 -0.0422 -0.0486  0.1293
21795W        W38643  14.537  15.803   5.052 -0.3203 -0.3515  0.2636
21796W        W38644  14.780  15.614  13.594 -0.2059 -0.4916 -0.1471
21797W        W38645   1.879  13.493   3.593 -0.1379  0.0379 -0.3293
21798W        W38646   6.079  11.029  14.878 -0.0285  0.0812  0.0256
21799W        W38647   7.054  15.434   2.935  0.0311  0.0652  0.6119
21800W        W38648  10.163   5.552  13.968  0.1130  0.0688  0.0965
21801W        W38649   0.094   2.635  12.168  0.2072 -0.1139  0.1733
21802W        W38650  12.720  15.488  14.868  0.1312  0.0475 -0.0944
21803W        W38651   0.317   8.636  13.951 -0.0853 -0.2988  0.1727
21804W        W38652  12.203  14.867  13.362  0.0769 -0.0220 -0.2221
21805W        W38653   3.798  17.380  13.413 -0.2522  0.1842  0.0821
21806W        W38654   8.328  15.599   3.488 -0.2710 -0.3302  0.0443
21807W        W38655  15.101   7.820  10.392 -0.0503 -0.1461  0.0139
21808W        W38656   3.235  12.037   4.193  0.5288  0.0515 -0.0520
21809W        W38657   9.759   1.621   1.981  0.4409  0.4483 -0.3449
21810W        W38658  17.164   7.280  15.321  0.0979  0.2903 -0.2491
21811W        W38659  17.553   2.763  15.408 -0.1603 -0.1489  0.1101
21812W        W38660  12.955   6.904  16.280 -0.0904 -0.0607  0.1426
21813W        W38661   6.263   9.134   5.514 -0.0421 -0.0682  0.2676
21814W        W38662  11.509  10.739  12.402 -0.2861 -0.2821 -0.0847
21815W        W38663  11.770   1.401   2.130  0.1640 -0.1676 -0.2784
21816W        W38664   2.978   2.771   0.942 -0.3264 -0.1754  0.2069
21817W        W38665   8.180   8.025  15.922 -0.0511 -0.2860 -0.1920
21818W        W38666   2.521   2.243   3.318 -0.0455 -0.0143  0.4151
21819W        W38667  11.252   9.684   1.144 -0.1470  0.0767  0.0971
21820W        W38668   4.080  14.805   1.972  0.2126 -0.2027  0.1754
21821W        W38669   0.034  14.869  14.836  0.0536 -0.0326  0.2126
21822W        W38670  13.883   7.367  15.333  0.2314  0.2754 -0.2855
21823W        W38671  15.991  14.048   3.403 -0.0637 -0.0469 -0.0904
21824W        W38672   9.437  13.421   1.200  0.2235 -0.0951 -0.3348
21825W        W38673  14.333   1.420  13.797  0.3564 -0.0522 -0.2478
21826W        W38674  11.053   5.822  16.193  0.0166  0.0481 -0.0214
21827W        W38675  17.890   7.561  10.375  0.1248 -0.1309  0.0626
21828W        W38676   4.636   9.890  10.984  0.3569 -0.0820 -0.1874
21829W        W38677  14.641   4.701   2.829  0.1474 -0.1720  0.4732
21830W        W38678   7.794  13.457   3.778 -0.3862 -0.2562  0.3363
21831W        W38679   0.339  17.446   3.193 -0.0270  0.1047  0.0017
21832W        W38680   8.737   7.144   0.609 -0.0975  0.2059 -0.3952
21833W        W38681   1.511  10.917   1.756 -0.2333 -0.0985 -0.0661
21834W        W38682   4.935   0.517   0.692  0.3009  0.0922 -0.2071
21835W        W38683  11.895  15.161  11.556 -0.1829 -0.0845 -0.0918
21836W        W38684  15.975   0.451   3.722 -0.1707 -0.1474 -0.0847
21837W        W38685  16.901  16.734  11.509 -0.5593 -0.3194 -0.3523
21838W        W38686   5.862   2.470  15.669  0.0319 -0.2554 -0.2295
21839W        W38687  17.172   8.067  14.426  0.4591  0.0951  0.0075
21840W        W38688  15.124   6.883  14.506 -0.1440  0.2872  0.0623
21841W        W38689  17.301  10.554  13.373  0.0177 -0.0539  0.1480
21842W        W38690  16.986  14.564  12.669  0.0290 -0.2020 -0.1413
21843W        W38691  16.946   2.957  14.123  0.1341  0.1713 -0.0915
21844W        W38692   1.143   2.443   1.301 -0.0015 -0.1052  0.0192
21845W        W38693  11.425   2.308   1.293  0.1378  0.0368  0.0879
21846W        W38694   9.647   5.307   4.558  0.1049 -0.3274 -0.0227
21847W        W38695   7.340  14.301   4.982  0.0141 -0.1461 -0.2138
21848W        W38696   6.064   9.091   2.915  0.0716  0.2127 -0.2443
21849W        W38697   2.881   3.214  15.608 -0.1888 -0.3474  0.3040
21850W        W38698  15.155   1.532  12.331  0.2859  0.1954 -0.1797
21851W        W38699  11.381   1.793  15.526  0.0299  0.0461  0.3327
21852W        W38700   7.077  10.146  15.119 -0.2206  0.1082 -0.3052
21853W        W38701  10.786   2.161   5.081  0.1638  0.0218 -0.2263
21854W        W38702  11.270  13.010   2.386 -0.2682  0.0641  0.0087
21855W        W38703   0.860   0.893   2.282  0.1270  0.0850  0.0209
21856W        W38704  16.504   8.885   2.026 -0.1792  0.1369 -0.4431
21857W        W38705   6.597  17.612   0.346 -0.0494 -0.0526 -0.0423
21858W        W38706  17.893  16.533  11.434 -0.4814  0.0480  0.1019
21859W        W38707  14.782   6.062   2.213 -0.0794 -0.2298 -0.3063
21860W        W38708   1.572   3.983   0.840 -0.0057  0.2414  0.2104
21861W        W38709   9.102   0.630   3.233 -0.2771 -0.0267  0.2779
21862W        W38710  17.069  11.026  15.267  0.2386  0.1856 -0.0285
21863W        W38711  16.543  10.590   2.786 -0.2286 -0.1020 -0.0921
21864W        W38712  13.413   8.595   1.579  0.0660 -0.2967 -0.0130
21865W        W38713   0.103  11.079   4.657 -0.1214 -0.3477 -0.0684
21866W        W38714   0.740   4.593   3.908  0.0927 -0.0372  0.0075
21867W        W38715  14.952  11.510   3.063 -0.0527  0.3537  0.1329
21868W        W38716  17.700   0.355   2.910 -0.1410 -0.2407 -0.1874
21869W        W38717   4.409   6.800  14.140 -0.3087 -0.1988  0.1982
21870W        W38718  11.505   4.090   3.802  0.1965  0.2075  0.1101
21871W        W38719  16.038   9.561   3.484 -0.0379  0.0506 -0.0756
21872W        W38720   4.646  10.209   1.192  0.2058  0.0036 -0.2514
21873W        W38721   7.513   3.998  16.306  0.1899 -0.0102  0.0872
21874W        W38722   9.759  13.772  14.886  0.2895  0.1401  0.1872
21875W        W38723   0.774  17.166  12.604 -0.1359 -0.0683  0.1280
21876W        W38724   7.065   9.776   0.658  0.1347  0.1678 -0.0599
21877W        W38725   8.548   7.937   1.505  0.2037 -0.3489  0.4167
21878W        W38726   5.309  12.631   3.108  0.3030 -0.0731  0.0618
21879W        W38727   9.615   6.196  12.759  0.1324  0.0071  0.1068
21880W        W38728   7.909  14.945  11.647 -0.0817 -0.2621 -0.2251
21881W        W38729   6.865  14.244  13.686 -0.0065  0.0570 -0.1206
21882W        W38730  13.086  15.263  11.900  0.1155  0.0636 -0.2956
21883W        W38731   0.049   6.556   1.832  0.2408 -0.0413  0.0175
21884W        W38732  17.485  16.025   1.176  0.0959  0.5867 -0.2059
21885W        W38733   6.074  15.923   1.161 -0.1341 -0.2963 -0.0734
21886W        W38734  10.464  10.084  12.510 -0.1490 -0.0512 -0.4046
21887W        W38735  17.108   3.696  15.203 -0.3665 -0.1717 -0.1079
21888W        W38736  11.354  17.840  15.942 -0.1607 -0.1766 -0.5340
21889W        W38737   2.234   3.098  15.415  0.1140 -0.1886  0.1033
21890W        W38738  13.586  10.522   5.097  0.2643  0.0493 -0.0675
21891W        W38739  17.543  16.861   4.685 -0.0009  0.0249 -0.0505
21892W        W38740   3.704   4.387   0.223 -0.3770 -0.0071 -0.3742
21893W        W38741  15.397  11.837  13.984 -0.3392  0.1328  0.1515
21894W        W38742  11.467   5.236   2.782 -0.0384  0.1035  0.2748
21895W        W38743   6.944  16.228  12.300 -0.1433  0.0552  0.1256
21896W        W38744  11.646  15.693  10.959  0.1622  0.1183 -0.0687
21897W        W38745  14.091  15.311  15.160  0.1478  0.0304  0.1157
21898W        W38746   0.569   6.784   1.151  0.0666 -0.1761  0.0467
21899W        W38747   5.417   9.621   4.151 -0.0200 -0.0086 -0.0676
21900W        W38748   7.577  14.165  14.736  0.1052 -0.1938 -0.1480
21901W        W38749   0.788  10.815   3.440 -0.2650 -0.0884  0.0345
21902W        W38750   5.857  13.053   1.142 -0.2939 -0.0688 -0.1180
21903W        W38751  17.819  14.655   3.063 -0.0737 -0.0575 -0.0860
21904W        W38752   0.588  14.361   4.981  0.0880 -0.1904  0.1061
21905W        W38753   1.489  11.521  14.253 -0.2779 -0.0968 -0.0833
21906W        W38754  12.656   4.426   0.940 -0.2537  0.1740  0.3732
21907W        W38755   2.314   4.222   5.572 -0.0074  0.0620 -0.1267
21908W        W38756   3.009   3.365  14.204  0.2778  0.2243 -0.0556
21909W        W38757  16.739  13.841   1.196 -0.2453  0.0794 -0.0365
21910W        W38758   5.601  17.688   3.903 -0.2038 -0.1247  0.0165
21911W        W38759  17.546   3.733  14.148 -0.1291 -0.0066 -0.2834
21912W        W38760  11.456  17.650  13.400 -0.0504 -0.0238  0.1630
21913W        W38761   2.884   3.066   2.109 -0.2361 -0.0006  0.1039
21914W        W38762   9.807   4.950  12.912 -0.1859 -0.0129 -0.0007
21915W        W38763   4.441  13.675  12.686  0.0157  0.2328 -0.1672
21916W        W38764  17.289   8.509   0.509  0.1333 -0.0284  0.1356
21917W        W38765   7.979   6.849   1.501 -0.1634  0.1058 -0.1539
21918W        W38766   3.734   2.223   4.361 -0.0096 -0.2390 -0.1089
21919W        W38767  15.603  13.752  14.416  0.0161 -0.2170 -0.1393
21920W        W38768   4.819  13.942  14.293 -0.0223 -0.1209 -0.2131
21921W        W38769  14.624  17.355   3.991  0.2470  0.1415 -0.2540
21922W        W38770   1.092   9.826   4.172  0.1595 -0.0226 -0.1218
21923W        W38771  10.159   2.884  12.773 -0.1486  0.1553  0.3809
21924W        W38772  16.989   3.909   0.537  0.2477 -0.1663  0.0356
21925W        W38773   2.029   3.290   3.059  0.0477 -0.1729  0.0065
21926W        W38774  13.487   8.407   2.567 -0.1704 -0.0812 -0.1099
21927W        W38775  14.027   8.250  11.597  0.1692 -0.0482 -0.0945
21928W        W38776   9.407  16.738   0.305  0.0728 -0.4326 -0.0554
21929W        W38777   2.762  14.783  14.530  0.0053 -0.3180  0.0749
21930W        W38778   8.092   8.457  16.125  0.0101 -0.0444  0.0810
21931W        W38779   2.733   5.351   0.191 -0.1718 -0.0570  0.2704
21932W        W38780   9.613  16.429   1.468 -0.2329 -0.1084 -0.2015
21933W        W38781   7.346   7.636  16.032 -0.0237  0.3005 -0.3247
21934W        W38782   8.108   9.708   0.521  0.4211  0.1517 -0.1167
21935W        W38783   9.027   0.579  15.172 -0.0986  0.0548  0.0552
21936W        W38784   9.335  11.159   1.285  0.1354  0.1124  0.2954
21937W        W38785   1.387   9.969  13.174 -0.0949 -0.1533  0.0917
21938W        W38786   0.256   0.852   0.695  0.1423  0.0110  0.1119
21939W        W38787   5.556   5.319  12.988 -0.3591 -0.2772 -0.1036
21940W        W38788   5.035   7.786   4.265 -0.0683 -0.1058  0.4040
21941W        W38789   9.034  14.131  14.898  0.0525 -0.0249 -0.2062
21942W        W38790  17.611  16.178  11.763  0.0475  0.0007 -0.2220
21943W        W38791   4.822  12.293   2.037 -0.1076 -0.0067 -0.1132
21944W        W38792   0.249   7.578  15.964 -0.1053  0.1251  0.2319
21945W        W38793   7.768  14.271  15.265 -0.3174  0.0007 -0.0128
21946W        W38794  17.780  11.441  13.819  0.2381  0.1825 -0.1998
21947W        W38795   3.456  14.251  12.143  0.0006  0.0294  0.0185
21948W        W38796   6.425   3.354  14.676 -0.2498  0.0357  0.1476
21949W        W38797  10.570   9.806  15.077 -0.0251 -0.0029 -0.0238
21950W        W38798   4.194  13.311  14.527 -0.0466 -0.0132 -0.3737
21951W        W38799  15.377   7.173  14.127 -0.0289  0.0173 -0.2471
21952W        W38800  14.199   3.771  13.118  0.0141  0.1647  0.3349
21953W        W38801   8.801   6.141  13.776 -0.0251 -0.0086 -0.0895
21954W        W38802  17.263   2.140   1.732 -0.0658 -0.0743 -0.1924
21955W        W38803  10.675  15.180   4.054 -0.1907  0.2287  0.0778
21956W        W38804  14.947   7.455  14.395  0.0289 -0.2642 -0.2705
21957W        W38805   7.809  13.043   0.693  0.1462  0.3638 -0.1603
21958W        W38806  16.205  12.301  13.979 -0.0514 -0.0368 -0.2184
21959W        W38807  12.821  14.097   5.750  0.0033 -0.0872  0.2664
21960W        W38808  16.269   6.163   0.611  0.1336  0.0371 -0.1968
21961W        W38809  14.165   6.344   3.818 -0.0486 -0.2219 -0.0359
21962W        W38810   7.905   5.978   0.515  0.1044  0.3530  0.0775
21963W        W38811  13.107   6.803   2.238 -0.1074  0.0352 -0.1435
21964W        W38812   1.159  15.142   3.524 -0.0643 -0.1118  0.0260
21965W        W38813   8.433  12.336  11.342  0.0148 -0.4739  0.0661
21966W        W38814  10.868   8.337   4.173  0.1585 -0.2409  0.0909
21967W        W38815   3.447   9.866   1.069  0.2262 -0.3549 -0.0295
21968W        W38816  13.368   6.942   1.408 -0.1890  0.1575 -0.0624
21969W        W38817   2.752   8.388  15.953 -0.0559 -0.1308  0.3291
21970W        W38818   3.635   6.299   1.826  0.0287  0.0456 -0.1394
21971W        W38819  15.915   2.133   4.315  0.1340 -0.0063  0.0998
21972W        W38820   8.886  16.526   0.590  0.3128 -0.0083 -0.2667
21973W        W38821  17.103  12.120  13.839 -0.2597 -0.0747  0.0033
21974W        W38822   8.665  11.625   0.368 -0.4124  0.1170 -0.0923
21975W        W38823   5.735   0.115   2.845 -0.1314 -0.2990  0.1513
21976W        W38824   1.354   7.464   2.107  0.5729  0.0361  0.1284
21977W        W38825   4.317   0.862   2.932  0.1471 -0.0343  0.2037
21978W        W38826  13.210   5.731  15.536  0.2464 -0.3206  0.3356
21979W        W38827  17.091   1.578  12.890 -0.1111 -0.1144  0.2129
21980W        W38828  14.405  12.797  15.086  0.4684 -0.0337  0.0751
21981W        W38829  11.800  11.357   3.083 -0.1040  0.2484  0.0583
21982W        W38830   2.078  13.114   4.108  0.1888 -0.0360  0.1543
21983W        W38831   3.087  15.925  13.913  0.0655 -0.0083  0.1575
21984W        W38832   1.769  10.903   3.440 -0.4637 -0.0495 -0.0137
21985W        W38833   3.060  13.083   4.068 -0.1067  0.4560  0.0024
21986W        W38834  15.478   6.133  15.902  0.0272  0.1216  0.0000
21987W        W38835  15.715   4.235  11.721 -0.0384 -0.2416 -0.2395
21988W        W38836  13.816  13.151   1.254  0.3289  0.0541 -0.2045
21989W        W38837   9.347  15.974  16.089  0.3846 -0.0888 -0.1626
21990W        W38838   8.159  12.950  15.349  0.0273  0.4919  0.4920
21991W        W38839  17.247   3.470   0.136 -0.2413  0.1667 -0.2257
21992W        W38840  10.519  10.454   1.223  0.1027  0.3569  0.0939
21993W        W38841  16.832   9.491   2.865 -0.2258  0.1107 -0.1361
21994W        W38842  14.612   5.677   4.978 -0.1182 -0.0657  0.1583
21995W        W38843  15.143   3.038  12.020  0.0284  0.3119 -0.1545
21996W        W38844   0.364  11.524   3.628 -0.2288  0.0944 -0.2543
21997W        W38845  17.783   3.976   4.896  0.0097  0.3407  0.0584
21998W        W38846   3.446   7.215  12.181 -0.0551 -0.0047 -0.0981
21999W        W38847   7.087  12.182  14.925  0.1196 -0.0488 -0.0728
22000W        W38848  15.752   6.130  11.768 -0.3778  0.1752 -0.4701
22001W        W38849  15.395  12.526  15.977  0.0286  0.3197 -0.0731
22002W        W38850  10.974   4.291  13.148  0.0777  0.0562 -0.3408
22003W        W38851   8.146  11.927   3.914  0.1578 -0.0124  0.2136
22004W        W38852   7.399   8.074  13.241 -0.1219  0.1930  0.1118
22005W        W38853   4.646  17.336   5.097 -0.0406 -0.0021 -0.0404
22006W        W38854   0.620   1.686  14.739  0.1893 -0.1295 -0.2379
22007W        W38855  10.857   0.653   2.393 -0.0373 -0.0561  0.0784
22008W        W38856   0.878   5.297  13.516  0.0138  0.1770  0.0080
22009W        W38857  12.508   9.580  13.921 -0.1618 -0.2435  0.2297
22010W        W38858  10.211  15.950   5.199  0.1621 -0.0193  0.1474
22011W        W38859   5.850   8.979  15.562  0.1305 -0.1666 -0.0127
22012W        W38860  17.203   4.138  11.979  0.0604 -0.4989 -0.0141
22013W        W38861   8.855   1.281  11.327  0.1622 -0.1838 -0.3749
22014W        W38862   9.840   2.451  10.290 -0.1074 -0.2439  0.2796
22015W        W38863  16.314   2.080  13.197  0.1314  0.0076 -0.0905
22016W        W38864   3.343  12.329  15.282 -0.1969  0.0989 -0.0031
22017W        W38865   0.781  13.546   4.477 -0.1224 -0.1270  0.1066
22018W        W38866  11.431  11.731  12.820  0.0241  0.1048 -0.0103
22019W        W38867   4.002  15.925  11.414 -0.0972  0.3705 -0.0597
22020W        W38868   7.191   5.504  14.750  0.1574  0.4843 -0.2617
22021W        W38869  11.551   9.006  12.438 -0.0191  0.0050  0.0597
22022W        W38870   3.849   0.942   4.281  0.1881  0.3204 -0.2320
22023W        W38871   1.710   5.848   3.305 -0.3436 -0.1852 -0.0203
22024W        W38872  17.931   6.773  12.113  0.4077 -0.1951  0.0712
22025W        W38873  13.210  16.754   4.830  0.2918 -0.3337 -0.0944
22026W        W38874  11.075  13.688   3.997  0.0123 -0.2866  0.0408
22027W        W38875  10.414  13.047  13.223  0.0866 -0.1294 -0.1782
22028W        W38876   4.175   6.147  12.875  0.1489  0.0560 -0.4313
22029W        W38877  10.202   4.673  13.036  0.1135  0.1084 -0.2106
22030W        W38878  15.547   2.462   0.842  0.3535  0.2612 -0.0132
22031W        W38879  16.035  12.420  12.993 -0.2236  0.1766 -0.1612
22032W        W38880   2.470   7.445  13.787 -0.4729 -0.2982 -0.0767
22033W        W38881  16.567   6.180   1.932  0.3896  0.1564 -0.2776
22034W        W38882  13.749   7.961   1.420 -0.0504  0.1201  0.0506
22035W        W38883  13.492   1.035  12.861 -0.1019 -0.0603  0.0179
22036W        W38884  16.047   9.841  11.946  0.0702 -0.0403 -0.0424
22037W        W38885  13.562  12.472  13.733 -0.4629  0.0603  0.0869
22038W        W38886   7.377  12.445   2.153  0.0414  0.1183  0.2716
22039W        W38887   2.313   2.191  15.726  0.2976  0.1041 -0.1347
22040W        W38888  10.980   6.632   1.589 -0.1042 -0.0938 -0.2827
22041W        W38889  15.375  10.700  13.752 -0.0856 -0.2182 -0.0739
22042W        W38890  14.060  11.608   3.404  0.2710 -0.0233  0.0687
22043W        W38891   6.926  15.539   1.046 -0.1122 -0.2755  0.1989
22044W        W38892   7.899   5.308   1.052  0.0159  0.0500  0.0847
22045W        W38893   9.961   4.804   3.954 -0.2816  0.0397  0.2360
22046W        W38894  14.864  12.942   2.796  0.0796  0.1441 -0.1011
22047W        W38895  12.481   7.056  14.891  0.1155 -0.1336 -0.0538
22048W        W38896  11.942   2.109  10.888 -0.1385  0.1351  0.0125
22049W        W38897  12.189  15.556  11.879 -0.0240  0.0155 -0.0182
22050W        W38898   4.268  14.188   2.672 -0.2293  0.1076  0.0217
22051W        W38899   0.267  13.463   4.820  0.4297 -0.1228  0.2195
22052W        W38900  14.755  16.787  15.521 -0.2593 -0.2218 -0.1073
22053W        W38901   4.849   7.732   0.929 -0.0900 -0.0732  0.1104
22054W        W38902   0.625  16.255   4.494  0.0131  0.0608 -0.2555
22055W        W38903   4.526  13.538   1.523 -0.0752  0.1612 -0.2911
22056W        W38904   4.316  17.051  15.159 -0.0730 -0.0137  0.3439
22057W        W38905  16.306   4.657  13.660 -0.3682  0.0003 -0.2217
22058W        W38906   3.317   1.895   1.959 -0.2972  0.0410 -0.2438
22059W        W38907  14.453   4.493  13.177  0.2115  0.2442  0.3325
22060W        W38908   1.116  17.337   0.530  0.0638  0.0569 -0.0674
22061W        W38909   1.544   6.757   1.906  0.1379 -0.2567  0.1141
22062W        W38910   9.705   3.749  14.928  0.3128 -0.1848 -0.0937
22063W        W38911   6.052  10.091   6.128  0.0149  0.1626  0.0392
22064W        W38912  17.868   8.722  12.467 -0.0368  0.2008  0.4790
22065W        W38913  15.372  12.294  11.425  0.1668  0.0171 -0.0454
22066W        W38914   4.541   8.484  16.078 -0.1201 -0.0488  0.0654
22067W        W38915   4.138  12.314   3.083  0.0749 -0.1226 -0.3769
22068W        W38916   0.279  15.040   0.049  0.3530 -0.3111  0.1964
22069W        W38917  12.537  13.261  15.196  0.0650  0.1232 -0.1353
22070W        W38918   9.097  14.865  13.692 -0.1486 -0.1010 -0.2937
22071W        W38919  13.867  15.645  11.537  0.1762  0.0024 -0.3616
22072W        W38920   1.888   9.172  15.702  0.0361 -0.0406  0.2419
22073W        W38921  18.021  15.012   5.478  0.0813  0.0172 -0.2379
22074W        W38922   0.068   1.735  14.757 -0.0386  0.1581 -0.0554
22075W        W38923  10.798  18.017   4.747  0.1810 -0.1350  0.1809
22076W        W38924   7.697   1.619   5.523 -0.1050 -0.1930 -0.1614
22077W        W38925   2.437   7.152   2.862 -0.0920  0.2435 -0.0250
22078W        W38926  16.960  11.435  13.152 -0.2385  0.0041 -0.0834
22079W        W38927   6.083   6.354  13.643  0.2813  0.0860 -0.0170
22080W        W38928   5.328   6.324  15.648  0.0684 -0.0202  0.0676
22081W        W38929   7.888  11.106  12.068 -0.0179 -0.2620  0.0101
22082W        W38930  10.173  14.459   3.295  0.3035  0.1912 -0.1099
22083W        W38931  10.305  12.742  14.969 -0.0409 -0.1857  0.1234
22084W        W38932   9.316   9.871   2.370  0.1715 -0.1643 -0.3883
22085W        W38933   9.221  15.626  14.746 -0.0367  0.0353 -0.0515
22086W        W38934  13.161   2.453   1.124  0.1295  0.0038  0.1554
22087W        W38935   7.392   2.366   1.741 -0.1247  0.2349 -0.3149
22088W        W38936  14.565  16.674   1.482 -0.2535 -0.2303  0.1655
22089W        W38937   8.062   8.807  10.576  0.2142 -0.0617 -0.1180
22090W        W38938   1.425  13.167   3.954 -0.2239 -0.2036  0.2490
22091W        W38939   3.028  12.800  11.908 -0.1255  0.1334  0.0858
22092W        W38940   1.770   5.948  14.788 -0.1791  0.0327 -0.1779
22093W        W38941   0.917  10.588   2.322  0.3036  0.0382 -0.0768
22094W        W38942   7.539  12.845   6.053 -0.0517 -0.4031  0.1022
22095W        W38943   9.344  12.353  15.312  0.1787  0.2822  0.0604
22096W        W38944  15.661  11.586   2.563 -0.0887  0.0037  0.2047
22097W        W38945  12.937   1.571   1.017  0.1667 -0.1073  0.2469
22098W        W38946   5.303   5.017  14.638  0.1412 -0.1227 -0.1712
22099W        W38947  11.741  12.993   1.713 -0.2928 -0.5146  0.1611
22100W        W38948   0.110   3.268   3.944 -0.1522 -0.2100 -0.3801
22101W        W38949   8.142  14.182   4.188  0.0550 -0.1244  0.1976
22102W        W38950   1.207   9.872   1.814 -0.2721 -0.1262 -0.1256
22103W        W38951  12.987  10.810   4.197  0.1673  0.0857  0.2738
22104W        W38952   7.377   7.074  13.123 -0.0719  0.1377  0.0189
22105W        W38953   9.979   8.355  11.280  0.0354  0.1981 -0.2346
22106W        W38954  12.064   7.579   1.930  0.2562 -0.1218 -0.0963
22107W        W38955  18.089  11.454   3.210 -0.1694  0.0198 -0.0965
22108W        W38956  16.507  16.037  11.022  0.3780 -0.4532  0.0268
22109W        W38957   1.976  16.752  14.686  0.1023 -0.0357  0.0022
22110W        W38958   9.579   2.522   4.758 -0.0317  0.0183 -0.2577
22111W        W38959  16.066   3.002  13.597 -0.3313 -0.2382  0.0371
22112W        W38960   0.395  13.902   4.617  0.1641 -0.1955  0.2423
22113W        W38961   8.086   8.315  10.779  0.3711  0.2984 -0.1704
22114W        W38962  15.638  10.737   2.297 -0.1378 -0.0035 -0.0564
22115W        W38963  17.962  12.724   0.754 -0.1274 -0.0777 -0.2027
22116W        W38964   4.626  12.275  11.128  0.1876 -0.2123  0.0486
22117W        W38965  11.030   0.114  15.973  0.0250 -0.0396  0.0629
22118W        W38966   4.578   3.119   3.363 -0.0281  0.1201 -0.2146
22119W        W38967   1.549  10.299   1.770 -0.0184 -0.0845  0.0437
22120W        W38968  10.473   9.081  12.766  0.1463 -0.1924 -0.0981
22121W        W38969  11.560   0.256   2.732 -0.2840  0.1303  0.0674
22122W        W38970  15.058   6.205  13.087 -0.3447  0.2728  0.3156
22123W        W38971   3.380  12.276  13.626 -0.2287  0.3477 -0.3316
22124W        W38972  16.848   3.156   4.946 -0.2958 -0.1119 -0.0912
22125W        W38973   3.704   7.537  15.375  0.1772 -0.0676  0.5251
22126W        W38974   0.991  17.818   3.104  0.1894  0.0127 -0.0379
22127W        W38975  14.524  13.334  12.414  0.1430  0.4628 -0.0407
22128W        W38976  13.844   8.980  14.652  0.2011  0.2259 -0.1039
22129W        W38977   9.763   8.048  12.095  0.0021 -0.0531  0.1597
22130W        W38978  11.667   6.044  12.684 -0.1670 -0.1135 -0.2660
22131W        W38979  17.684  12.178  15.692 -0.2210  0.3420 -0.0231
22132W        W38980  12.585  16.385   0.707  0.0305 -0.0255 -0.2636
22133W        W38981   0.664   6.003   2.434  0.1867 -0.3300 -0.2653
22134W        W38982  11.863   2.139   4.280  0.0534  0.2015 -0.3901
22135W        W38983   2.528   0.550  15.555  0.3035 -0.0963  0.3091
22136W        W38984  12.015   7.221  11.639 -0.0166  0.3838 -0.1395
22137W        W38985  13.238   6.735  13.108 -0.3739 -0.4626  0.1652
22138W        W38986   9.998   3.084  16.182 -0.1484  0.0219  0.3160
22139W        W38987  13.112   5.726  13.936  0.1377 -0.1934  0.3126
22140W        W38988  13.842   3.098   3.509 -0.1618  0.1516  0.1556
22141W        W38989  13.195   0.170  12.580 -0.2164 -0.1192 -0.0797
22142W        W38990   2.607   0.526   4.992  0.0925 -0.0701 -0.0526
22143W        W38991   4.622   3.435  12.384  0.1107  0.1705 -0.0571
22144W        W38992   1.142   7.954   5.234 -0.0470  0.0928 -0.3565
22145W        W38993  15.229  17.121   0.356 -0.1917 -0.0110 -0.0161
22146W        W38994   5.327   3.626   2.736 -0.3077  0.3445 -0.1137
22147W        W38995  11.569  15.263   4.760  0.0919  0.1288  0.0977
22148W        W38996  10.363   6.592  15.561 -0.1122  0.2733  0.0066
22149W        W38997   9.471  10.932   0.730  0.0153 -0.3406  0.3161
22150W        W38998   2.666   1.840  15.875 -0.2311 -0.1726 -0.0022
22151W        W38999  17.404   9.948  13.483  0.0015  0.3032  0.0932
22152W        W39000  12.155  16.684  16.165  0.2490 -0.1388 -0.2266
22153W        W39001  10.266   2.258   3.507  0.2139  0.1975 -0.1044
22154W        W39002   6.581   2.146   1.350 -0.1479 -0.2454 -0.0407
22155W        W39003   5.513  11.867   4.678  0.1942  0.0743 -0.0653
22156W        W39004   9.399   7.040  14.708 -0.0066  0.1302  0.2819
22157W        W39005  16.417   7.428  14.103  0.0459  0.2702 -0.1169
22158W        W39006   3.771   1.768  12.023  0.4806 -0.2140 -0.3087
22159W        W39007  12.021  12.474  16.185 -0.0144  0.1790 -0.2161
22160W        W39008   8.023  12.912   1.578  0.0194  0.1208 -0.1905
22161W        W39009  14.665   9.560  11.400 -0.5781  0.1552  0.0987
22162W        W39010  11.379  11.182   1.276 -0.1149  0.2467  0.1960
22163W        W39011   7.926   6.094  11.582 -0.3382  0.0333 -0.1066
22164W        W39012   5.326   6.725  15.358  0.5235  0.0093  0.2343
22165W        W39013  16.963   8.409  12.980 -0.1884 -0.1825 -0.0247
22166W        W39014   1.778   0.197  13.865  0.0927  0.2223  0.3516
22167W        W39015   3.662   8.657  11.969  0.0600 -0.1017  0.0526
22168W        W39016   5.357  15.032   4.556 -0.2659  0.1708  0.0591
22169W        W39017  11.525   2.424   4.641 -0.1199 -0.0820 -0.2538
22170W        W39018   9.880   5.554  16.149 -0.1986 -0.0537  0.1845
22171W        W39019   5.889  12.850  16.191  0.1358 -0.1480  0.0891
22172W        W39020   6.324   8.223  15.321  0.2429 -0.4269  0.0888
22173W        W39021  15.184   9.525  14.143  0.1268  0.2148  0.0122
22174W        W39022   5.624  17.038   0.509  0.3518 -0.0211  0.2894
22175W        W39023  10.463   6.425  16.142 -0.0927 -0.0729 -0.2118
22176W        W39024  17.297   4.203   4.630 -0.3660  0.0834  0.3370
22177W        W39025   4.168   3.273  14.113 -0.0049 -0.0812  0.1762
22178W        W39026  17.259  10.992  15.696 -0.1214  0.1464 -0.0898
22179W        W39027   2.230  10.450  16.054 -0.2113 -0.0931  0.4405
22180W        W39028   3.625  17.784   1.016 -0.2706  0.1569  0.3962
22181W        W39029   7.100   5.098  11.200  0.1944  0.2255  0.0898
22182W        W39030  13.941   8.767   3.804 -0.3019  0.0346  0.1170
22183W        W39031  17.972   0.843  13.077  0.0734  0.0549 -0.1539
22184W        W39032   8.480   6.316  11.940  0.1629  0.0117  0.3284
22185W        W39033  13.137   7.683   1.711 -0.1605 -0.0035 -0.1252
22186W        W39034  12.193   0.459   2.229  0.2401  0.2671 -0.3526
22187W        W39035   2.997  13.541   1.858  0.0597  0.1815 -0.3292
22188W        W39036   8.538   3.432   4.692  0.1316 -0.0304 -0.0560
22189W        W39037  12.566  14.664  14.618  0.1530 -0.2094  0.1770
22190W        W39038  12.582   0.679  11.329 -0.0325 -0.3820 -0.0651
22191W        W39039  13.687  12.581  15.711  0.1393 -0.1546  0.4048
22192W        W39040  11.909  17.253  12.687 -0.0153 -0.1534  0.0381
22193W        W39041   4.452   7.095   0.531 -0.0139 -0.2993 -0.4140
22194W        W39042  18.013  16.597   0.803 -0.1763 -0.0492 -0.1312
22195W        W39043  15.675   8.677  14.380 -0.0483 -0.0069  0.0858
22196W        W39044   2.229  10.925  15.198  0.0356 -0.0475  0.0355
22197W        W39045   0.759   4.674  13.752 -0.0171  0.4064 -0.0661
22198W        W39046  10.084  14.969   0.584  0.1001  0.0571 -0.1628
22199W        W39047  11.752   9.813   3.647  0.0665 -0.0821  0.1608
22200W        W39048   8.386  14.128  11.647  0.1063  0.3361 -0.3877
22201W        W39049   5.091  17.431  15.354 -0.1695  0.2888 -0.1228
22202W        W39050  13.455  17.789  11.366  0.1997 -0.3420 -0.0676
22203W        W39051  10.392  12.610   1.536  0.1934  0.0691 -0.2748
22204W        W39052   4.097  12.740   0.766 -0.1052 -0.1651 -0.1571
22205W        W39053   1.118   0.460   5.214  0.2475 -0.1596 -0.0102
22206W        W39054   0.170  15.387  14.942 -0.0117  0.0800  0.0276
22207W        W39055   0.361   4.622   2.407 -0.0199  0.1287  0.0678
22208W        W39056  12.709   3.322   3.979  0.0504 -0.1470  0.0314
22209W        W39057   0.568   4.002   0.754 -0.1175  0.2112 -0.0251
22210W        W39058  11.268   2.958  14.267 -0.2319 -0.0309 -0.1429
22211W        W39059   0.305   0.415  14.342  0.1078 -0.0619  0.1551
22212W        W39060  16.613   0.849  15.270  0.2567 -0.0140 -0.1423
22213W        W39061   7.377   5.958   3.542 -0.0529 -0.0523 -0.0166
22214W        W39062   9.689   9.405  12.615  0.5365 -0.1735  0.4124
22215W        W39063  10.118  17.500   4.160 -0.0304 -0.1609 -0.4245
22216W        W39064   2.810   2.609  13.762 -0.1626  0.2770  0.1268
22217W        W39065   3.584  16.719  15.489  0.1462 -0.0072  0.0313
22218W        W39066   1.547   2.302   0.936 -0.1527 -0.0155 -0.1570
22219W        W39067  13.765   4.255  15.247 -0.0999  0.0806  0.1545
22220W        W39068   4.684   3.428  14.208 -0.0159  0.0328 -0.3446
22221W        W39069   7.831   9.149  12.764  0.0154 -0.0735 -0.1117
22222W        W39070   6.655   1.970   1.951 -0.1997  0.0344 -0.0496
22223W        W39071  12.171   3.111   4.355 -0.0211  0.1882  0.2801
22224W        W39072   6.969  11.445  15.578  0.0888 -0.3195  0.0685
22225W        W39073  18.076   0.709  14.878  0.3961  0.1446 -0.0569
22226W        W39074  11.204  11.222   2.537  0.1857 -0.1638  0.2704
22227W        W39075  10.434  12.445   1.054  0.0243  0.2231  0.1610
22228W        W39076   3.447  14.029  14.083  0.0225  0.1642  0.2586
22229W        W39077   9.060  14.413   3.842  0.2844 -0.1463 -0.1239
22230W        W39078  16.379  15.979   4.261 -0.2247 -0.1623 -0.1526
22231W        W39079   5.022  14.235   2.051  0.0824 -0.0883  0.2444
22232W        W39080   9.942   5.382   4.130 -0.3859 -0.0630  0.1459
22233W        W39081   2.176   4.179   0.274 -0.1851  0.1675 -0.2010
22234W        W39082  15.885  14.583   4.906 -0.0700 -0.0504  0.1453
22235W        W39083  15.254   1.536  14.657 -0.0091  0.0282  0.0271
22236W        W39084   1.343  16.799   0.675 -0.2059  0.2925  0.0231
22237W        W39085   1.495   5.932  15.240  0.2862 -0.0007  0.1571
22238W        W39086  12.434   9.935   2.430 -0.1895  0.1622  0.0262
22239W        W39087   0.601   6.748   3.540  0.0090  0.0314  0.0457
22240W        W39088  10.344  15.562   4.908  0.0489  0.0959 -0.0311
22241W        W39089  12.534   6.297  10.339  0.1000 -0.0985 -0.0501
22242W        W39090  15.337   7.147   0.014 -0.0215 -0.2083  0.0051
22243W        W39091  13.413   8.101   1.048  0.3910 -0.2922 -0.0468
22244W        W39092  16.597   1.782   4.781 -0.0226  0.0585  0.3314
22245W        W39093   4.813  16.381  12.253  0.4145 -0.0029  0.2407
22246W        W39094   1.635   2.003   4.544  0.0527 -0.1485  0.1278
22247W        W39095   4.232   3.478  10.760  0.0363 -0.0389 -0.4095
22248W        W39096  13.228   9.825   4.578  0.0405  0.1370 -0.0764
22249W        W39097  16.705   4.458  16.320 -0.0389 -0.1726  0.2489
22250W        W39098  15.870  17.898   4.416  0.1561  0.2369 -0.1404
22251W        W39099  10.605   6.850  14.864 -0.0110 -0.2360  0.1515
22252W        W39100   2.745  16.764   2.293  0.1209 -0.3889  0.0690
22253W        W39101   7.394   5.728  12.437 -0.3442  0.0382  0.4270
22254W        W39102   6.684   6.015   4.295 -0.0191  0.1577  0.1189
22255W        W39103  15.763   7.938  14.813 -0.2147 -0.4283  0.1054
22256W        W39104   8.508   5.064  10.112  0.1724 -0.2428  0.3486
22257W        W39105   1.076   7.889  13.911 -0.0954  0.0296 -0.0924
22258W        W39106  17.739  17.120   3.937 -0.1068 -0.0492 -0.0594
22259W        W39107   9.277  16.360   4.255 -0.0832  0.4165  0.0289
22260W        W39108   9.270   1.982   3.353  0.0663 -0.0167 -0.1038
22261W        W39109   6.633   7.493  12.731 -0.0454  0.1434 -0.1130
22262W        W39110  10.017  13.387   5.645 -0.0812  0.1452  0.1290
22263W        W39111  15.606   2.608  14.557  0.2134 -0.2327  0.5516
22264W        W39112  13.790   6.507   4.216 -0.0357 -0.2192  0.1277
22265W        W39113  11.128  12.878   4.303 -0.2694 -0.1517  0.1341
22266W        W39114   8.171   0.355   0.907 -0.1540 -0.1913 -0.1693
22267W        W39115   0.357   8.316   4.943 -0.0383 -0.1582  0.0105
22268W        W39116  11.866   6.961  15.348 -0.0189  0.0591  0.1160
22269W        W39117   5.181   8.134   0.033  0.2197 -0.0811  0.0151
22270W        W39118  12.509   6.070   3.026 -0.2916  0.1044 -0.0889
22271W        W39119   1.197   2.729  15.784 -0.0567  0.3163  0.2028
22272W        W39120  12.145  15.234  15.092  0.3297  0.3072 -0.1608
22273W        W39121   9.926  11.091   4.942 -0.0794 -0.1330  0.0202
22274W        W39122   0.807  15.026  11.279 -0.0750 -0.1089  0.0083
22275W        W39123   7.925  14.970   1.591  0.1626 -0.1377  0.1066
22276W        W39124   5.120  12.435   1.608 -0.3081 -0.1391  0.1576
22277W        W39125   3.710  15.227  15.167 -0.1700  0.1916  0.0868
22278W        W39126  15.309   5.276  12.549 -0.1377 -0.1500 -0.2933
22279W        W39127  15.660   3.411   0.230  0.1369  0.0029 -0.2824
22280W        W39128  14.170  13.216  14.286 -0.0517  0.0601 -0.1904
22281W        W39129   6.184   1.518  11.894 -0.1062 -0.0367  0.1166
22282W        W39130  14.800  16.375   2.424 -0.0800 -0.1403 -0.1394
22283W        W39131  10.979  12.039   1.253 -0.0912 -0.0766  0.2820
22284W        W39132  17.703   2.458  12.933  0.0407  0.0305  0.0883
22285W        W39133  11.696   0.625   2.049 -0.1326 -0.0057  0.0041
22286W        W39134  11.226   3.982   0.934 -0.1692 -0.2085  0.0322
22287W        W39135  10.673  14.831  15.704 -0.2119 -0.3971 -0.2288
22288W        W39136   2.841  10.850  12.176  0.1091 -0.2095  0.0363
22289W        W39137   8.295   8.524   3.959  0.1949 -0.1603  0.1521
22290W        W39138   5.299   9.808  10.947 -0.0172 -0.0268 -0.1438
22291W        W39139   0.681   9.050   3.805  0.3063  0.1519 -0.1598
22292W        W39140   8.205  14.937   0.104  0.0284 -0.0382  0.0114
22293W        W39141  14.486  13.939  12.447 -0.0677 -0.3501  0.2059
22294W        W39142   6.630   5.612  13.396 -0.2870 -0.1356 -0.2618
22295W        W39143   5.529   3.313   2.394 -0.1372  0.1173  0.0792
22296W        W39144  12.595  10.448  12.356  0.1997 -0.1845  0.0658
22297W        W39145  10.553   8.524  12.080  0.3011  0.4258 -0.2725
22298W        W39146  11.151   1.816   3.888 -0.2621  0.0090  0.0049
22299W        W39147  14.491  18.075  13.143  0.2255  0.0402 -0.1481
22300W        W39148  17.294   9.287   1.822  0.3886 -0.0420  0.1773
22301W        W39149   9.508   6.735  12.874 -0.1867 -0.4790  0.0257
22302W        W39150   3.022   5.465  16.104 -0.1379 -0.1083  0.2375
22303W        W39151   9.066  13.286   4.984 -0.3285 -0.1241  0.0914
22304W        W39152  17.023   3.362   0.635  0.0755 -0.0007  0.1441
22305W        W39153   4.527   7.699   2.848  0.0350 -0.1049  0.2989
22306W        W39154   0.687   6.465   2.250  0.0273 -0.1080 -0.1121
22307W        W39155   6.518   4.026  11.716  0.1235  0.0530 -0.0871
22308W        W39156   0.857  17.010  16.149  0.0195  0.0768 -0.0005
22309W        W39157  13.169   6.472   1.074  0.0709  0.1184 -0.0520
22310W        W39158  16.234   5.039   1.236  0.0698 -0.1244 -0.0472
22311W        W39159   5.347   2.410   2.157  0.0164 -0.2672 -0.1148
22312W        W39160   4.351  12.746   1.997  0.1035 -0.0668 -0.0110
22313W        W39161  11.687   2.987   4.325  0.0028 -0.0344  0.1444
22314W        W39162  12.807   3.641  13.370 -0.0157 -0.1182 -0.1769
22315W        W39163   0.394  12.199  16.089 -0.0357 -0.1774  0.0043
22316W        W39164   7.511  16.792  10.672  0.2939  0.1692  0.1423
22317W        W39165   3.636   8.781  12.430  0.2454  0.0739 -0.2542
22318W        W39166  10.614  13.088   6.420 -0.0010 -0.4424 -0.4006
22319W        W39167  10.434   8.121   4.141 -0.0423 -0.1918 -0.0389
22320W        W39168   1.597   1.180  11.524 -0.1219 -0.2605  0.1420
22321W        W39169  13.439   3.985   2.056 -0.1446  0.1497 -0.1267
22322W        W39170  12.932  15.383  13.816  0.1051 -0.1487  0.3548
22323W        W39171  11.640  11.617  14.674 -0.0726  0.2227  0.1453
22324W        W39172   1.007  14.556  12.100  0.1739 -0.2664 -0.0579
22325W        W39173  18.048   7.473   4.867  0.1290 -0.2577  0.1472
22326W        W39174   1.164   5.291  11.510 -0.4394 -0.1451  0.1634
22327W        W39175  14.391   5.068   4.200  0.1300  0.3822  0.1286
22328W        W39176  13.985   2.382   4.118  0.3245  0.0434 -0.0680
22329W        W39177   6.933   3.055   2.493 -0.1626  0.0329 -0.0057
22330W        W39178  13.736  15.282   3.642 -0.0507  0.0457 -0.2898
22331W        W39179  14.813  12.433  12.866 -0.2065  0.1999 -0.1206
22332W        W39180  16.438  14.333  13.422 -0.1762 -0.0327  0.0862
22333W        W39181   4.907  17.733  16.160  0.0190 -0.3230  0.0058
22334W        W39182   7.403   7.381   1.039  0.1371  0.0664 -0.2194
22335W        W39183   4.309   4.251   2.323  0.0450 -0.1574 -0.2857
22336W        W39184   6.739  12.973   5.071  0.2481  0.0847  0.1621
22337W        W39185   5.046  12.928  10.792 -0.1922  0.1590 -0.2600
22338W        W39186   0.758   6.784  16.329 -0.0380  0.1329 -0.1205
22339W        W39187   1.843   8.159  14.415  0.1646 -0.2838  0.1140
22340W        W39188   5.052   6.784   0.653 -0.0863 -0.1007  0.1119
22341W        W39189   2.734   4.316   4.759 -0.0495  0.3280  0.0105
22342W        W39190  17.451  12.920  11.328 -0.2988  0.3020 -0.0883
22343W        W39191   6.114   2.808   4.233  0.0753 -0.0595  0.0324
22344W        W39192   0.226  10.708   1.008 -0.1865 -0.0216 -0.0879
22345W        W39193   1.295  14.366  11.355 -0.0014 -0.3787 -0.1897
22346W        W39194   6.713   2.224  14.127 -0.1959  0.0883 -0.0921
22347W        W39195  11.128  17.584   0.424  0.1357 -0.1913  0.0133
22348W        W39196  13.858   9.029   0.978  0.0564  0.2429  0.0412
22349W        W39197   2.075   1.174   2.438 -0.0030 -0.3030 -0.3037
22350W        W39198   0.075   9.499  12.175  0.0659 -0.3234 -0.0929
22351W        W39199  14.953   3.777   3.119  0.0701 -0.1009  0.1181
22352W        W39200   1.222   7.788  12.332 -0.0095 -0.2405  0.0999
22353W        W39201   8.812  15.409   1.477 -0.0270  0.1288  0.3604
22354W        W39202   5.383  15.614  14.898  0.0283 -0.0380 -0.2232
22355W        W39203  15.118   2.836   1.549 -0.0600 -0.0349 -0.3622
22356W        W39204   2.140   5.341  13.766 -0.0037 -0.2237  0.2861
22357W        W39205  14.762   0.891   0.108 -0.0099  0.0368  0.1719
22358W        W39206  16.428  17.575  12.458  0.1413 -0.1400 -0.0158
22359W        W39207  13.753   0.999  13.304 -0.1575 -0.3326 -0.0037
22360W        W39208   7.707   9.140  10.715  0.1079  0.0456  0.0213
22361W        W39209  17.381   6.961   1.742  0.0521 -0.1366 -0.1554
22362W        W39210  15.253  14.385  12.045  0.0717  0.0629  0.0550
22363W        W39211   9.575  14.243   3.911 -0.1053  0.2699  0.0422
22364W        W39212   3.288   3.677   3.504 -0.0347 -0.0907  0.5862
22365W        W39213  13.140  12.393   5.102 -0.0227 -0.0930 -0.0274
22366W        W39214  13.114   1.831   1.498  0.0202  0.1101  0.0030
22367W        W39215   7.580  14.063  11.913  0.1951  0.2225  0.1725
22368W        W39216  16.064   0.291  12.117  0.0159 -0.1214 -0.3163
22369W        W39217  16.324   9.615   1.519  0.1838 -0.1728 -0.1533
22370W        W39218   1.449   5.447   0.860 -0.0181 -0.0063  0.0349
22371W        W39219  10.845   3.128   0.056 -0.2177 -0.2435  0.4182
22372W        W39220   1.325  15.007   0.664  0.1817 -0.0635  0.2075
22373W        W39221   4.884   3.068  13.665  0.2829  0.1712  0.2987
22374W        W39222  11.379   1.688  13.516  0.1094  0.0682 -0.1941
22375W        W39223  14.840   1.853   0.977  0.2794 -0.2327 -0.0571
22376W        W39224   0.365   3.260   0.999 -0.2662 -0.0023  0.0777
22377W        W39225   5.049   6.766   2.126  0.1540 -0.2446  0.0029
22378W        W39226   4.683   9.562  10.616  0.0126 -0.2474  0.2065
22379W        W39227  11.365  10.490   0.552  0.2130  0.0217  0.0359
22380W        W39228  13.245   1.235   4.570 -0.0382  0.0797 -0.2913
22381W        W39229   8.277  12.689  10.426 -0.3845  0.2118 -0.2395
22382W        W39230   6.241  12.057   4.426  0.0649 -0.2531 -0.1227
22383W        W39231   8.553  18.024  11.986  0.2865 -0.0979  0.1653
22384W        W39232   2.522   4.595  11.343  0.1016  0.1177 -0.1228
22385W        W39233   8.492   7.578  11.076  0.2735  0.1548  0.1853
22386W        W39234   5.600   1.881   2.751 -0.0290  0.0349  0.0542
22387W        W39235  17.340  14.692   1.827  0.0398  0.0542 -0.1001
22388W        W39236   9.013   2.436  11.276  0.3168  0.1614  0.2583
22389W        W39237   1.641   9.097   0.634  0.0522  0.2518 -0.0962
22390W        W39238   3.669   8.196  13.355 -0.1576 -0.1042 -0.0216
22391W        W39239   3.900   5.488   0.044  0.0788  0.0197 -0.4164
22392W        W39240  14.115   8.889   1.385 -0.2491 -0.0230 -0.0287
22393W        W39241   9.245   7.959  12.090 -0.4796  0.1927 -0.1794
22394W        W39242  16.012  16.125   3.201  0.2228  0.1871 -0.0369
22395W        W39243  18.007   7.752   3.198 -0.0108 -0.1545 -0.1183
22396W        W39244   3.981   4.617   5.097  0.1155  0.1501 -0.1389
22397W        W39245  10.911  14.274  12.463  0.1701 -0.1452  0.2170
22398W        W39246  17.592   0.440  13.470 -0.2097  0.0521 -0.1537
22399W        W39247   9.524   9.942  12.581  0.2778  0.0128  0.0667
22400W        W39248  11.087   8.495   0.193  0.1054  0.2259 -0.1725
22401W        W39249   8.929   4.841  14.089  0.0401  0.0103 -0.3973
22402W        W39250   7.119  13.709  12.136  0.1795 -0.2285  0.1741
22403W        W39251  14.654   2.172  13.815 -0.1818 -0.0506  0.1729
22404W        W39252  14.151  13.641   1.939  0.1942  0.0578 -0.1257
22405W        W39253  10.907  12.354  14.695  0.3037  0.1591  0.2252
22406W        W39254   4.487   9.063   3.018  0.2813  0.2712  0.2555
22407W        W39255  17.233   4.502  12.345 -0.5259  0.2775  0.1055
22408W        W39256   2.812  13.098  15.627  0.1622 -0.0827  0.0936
22409W        W39257   3.619  17.748  15.820 -0.0188  0.0810 -0.0771
22410W        W39258   4.451   7.869  15.552  0.2064  0.0194 -0.1217
22411W        W39259   4.696  11.956  15.693 -0.0950  0.1239  0.1953
22412W        W39260   8.467   4.161  10.754 -0.1287  0.1449 -0.1959
22413W        W39261   9.779   0.876  15.638  0.1072 -0.1318 -0.0994
22414W        W39262   0.914  11.855   1.615  0.0322  0.0418 -0.0704
22415W        W39263  17.047   3.922  14.047 -0.0018 -0.3802 -0.2959
22416W        W39264   1.669  15.296  15.668 -0.3745  0.2109 -0.3240
22417W        W39265  16.673  16.542  11.125 -0.1594 -0.4550  0.0320
22418W        W39266  13.097  12.621   6.142  0.2625 -0.1953 -0.2831
22419W        W39267  10.319  16.676  13.873 -0.3475 -0.2881  0.0438
22420W        W39268  11.937  10.310  16.130  0.2700 -0.2348 -0.2080
22421W        W39269   9.355   1.144  15.803  0.0427  0.0861 -0.0593
22422W        W39270   9.416   5.199  14.725  0.0807 -0.3660  0.2163
22423W        W39271   2.665   7.601  13.351 -0.4216  0.3330  0.1726
22424W        W39272  17.847  15.341  14.056  0.1394 -0.0483 -0.1632
22425W        W39273   5.229   2.808   0.030 -0.1401  0.0455  0.0781
22426W        W39274   6.226   4.336  15.692  0.2173  0.3891 -0.1740
22427W        W39275   3.655  14.963  11.597  0.0934  0.1652 -0.2510
22428W        W39276  10.016   8.689  10.815 -0.1640 -0.2074 -0.0529
22429W        W39277   4.668   7.221  11.921 -0.0290 -0.0328 -0.0316
22430W        W39278   1.498  17.612  11.318  0.1016  0.1830  0.0809
22431W        W39279  17.191   6.052  11.840 -0.0846  0.2775 -0.1661
22432W        W39280  10.158   5.386   0.744  0.0578 -0.2643  0.2511
22433W        W39281  18.050  10.533  14.482  0.0800 -0.0476  0.0848
22434W        W39282   2.464  17.058  15.374 -0.0276 -0.0488  0.2453
22435W        W39283  12.619  12.887   0.937 -0.0319  0.2635 -0.2574
22436W        W39284  12.779   4.786  12.577  0.0618  0.2835  0.3836
22437W        W39285   8.104  11.216   4.395 -0.0223 -0.0583 -0.1753
22438W        W39286   0.275   2.418  14.094 -0.0028  0.0457  0.0212
22439W        W39287   1.161   3.331  16.221 -0.1802  0.1910 -0.0439
22440W        W39288   4.740   3.734   4.881 -0.1667 -0.3658  0.0606
22441W        W39289  11.011  15.463   1.996 -0.1455  0.0320 -0.0734
22442W        W39290   1.549  11.547   0.345  0.1110  0.0140 -0.1544
22443W        W39291   6.914  14.434   2.472  0.0781 -0.2393 -0.1236
22444W        W39292  10.542   0.755   1.966 -0.5238  0.0456  0.0618
22445W        W39293   0.209   6.594   0.758  0.0917  0.1910  0.2667
22446W        W39294   3.858  11.028  15.753 -0.0965 -0.0627 -0.2136
22447W        W39295   9.032   0.361   0.368 -0.0239 -0.1517  0.0168
22448W        W39296  16.234   9.784  12.480  0.0337 -0.2480  0.2322
22449W        W39297  12.545   4.429   3.854 -0.2234  0.1537  0.0220
22450W        W39298  15.814   4.261   3.406  0.0247 -0.0215  0.1569
22451W        W39299  14.160  14.981   1.733  0.1985 -0.0809 -0.2811
22452W        W39300   6.775   2.864   4.729  0.0177 -0.3351 -0.3032
22453W        W39301   3.606  10.208   0.741 -0.0098  0.3806 -0.0086
22454W        W39302   1.088  12.037  12.278  0.2349 -0.0971  0.0523
22455W        W39303   9.441   3.357  12.786  0.3725  0.0542 -0.0671
22456W        W39304  13.810   2.278  12.635 -0.0979  0.0418 -0.0018
22457W        W39305   6.343  14.982   4.649 -0.2244  0.0819  0.2806
22458W        W39306   9.384   0.400  14.453  0.2396 -0.1225 -0.2379
22459W        W39307   0.350  16.789   1.049 -0.2149  0.0322 -0.1393
22460W        W39308  16.165   8.066  13.455 -0.0657 -0.1419 -0.1825
22461W        W39309  10.143   6.994  15.132 -0.2057 -0.0590 -0.0074
22462W        W39310   2.514  17.269   0.100  0.1375  0.2914  0.3852
22463W        W39311   3.293   0.468  15.180 -0.2284  0.1587  0.1649
22464W        W39312  13.608  13.418  13.286  0.2481 -0.1717  0.2195
22465W        W39313  16.908   3.472  14.116 -0.2709  0.1021  0.0556
22466W        W39314   1.329  15.176   2.148  0.2643  0.0585  0.1190
22467W        W39315   0.709  15.627  13.784 -0.0447  0.1536 -0.1033
22468W        W39316   2.407  13.167  15.319  0.1270 -0.0843  0.1596
22469W        W39317  11.849   1.560  13.545 -0.4910  0.0921 -0.0042
22470W        W39318   1.157  11.601  13.872  0.0552  0.2947 -0.3034
22471W        W39319  17.662   6.811   5.002  0.1995  0.0387 -0.1488
22472W        W39320   8.433  15.205   1.782 -0.1770  0.1608 -0.1520
22473W        W39321  16.264  10.263  12.737  0.1123  0.0194 -0.2090
22474W        W39322   1.068  12.499   0.267 -0.0243  0.1740  0.1149
22475W        W39323  14.595  17.891  11.585  0.2138 -0.2489  0.2936
22476W        W39324  11.964  13.474   1.898 -0.2111  0.2401  0.0570
22477W        W39325   6.596  11.450  11.024  0.0056  0.0892 -0.0158
22478W        W39326  16.598  13.906   2.123 -0.4316  0.1654  0.0579
22479W        W39327  13.085   1.502  11.198 -0.0031 -0.1482  0.3957
22480W        W39328   9.215  11.362  12.160  0.1648 -0.0576 -0.0230
22481W        W39329   9.725   0.034   2.429  0.0451  0.0194  0.2214
22482W        W39330  16.177  12.164   1.149  0.2091  0.3031  0.3123
22483W        W39331  12.347  16.322  14.246 -0.0323 -0.0486 -0.2443
22484W        W39332   6.781  11.347  11.472  0.0460 -0.0989 -0.3533
22485W        W39333  13.952   5.963  16.002  0.0403 -0.0309  0.0997
22486W        W39334   1.188   6.415   0.735  0.2313 -0.0763  0.1857
22487W        W39335   5.738  10.048  11.760 -0.1274 -0.1206 -0.0395
22488W        W39336  11.321   8.240  14.805  0.1234  0.3189  0.1422
22489W        W39337   7.440  16.487  13.625 -0.1963 -0.3193 -0.6902
22490W        W39338  10.795  16.128  15.524  0.1092 -0.2508  0.1123
22491W        W39339   2.124  12.489   4.244 -0.1767  0.0898 -0.2191
22492W        W39340  15.762  15.788  10.324 -0.0283 -0.1499 -0.2583
22493W        W39341   7.371   5.425  15.660 -0.0644 -0.2383 -0.0181
22494W        W39342  11.143  16.257  11.647 -0.0570  0.0718  0.0527
22495W        W39343  12.621   8.453   3.164 -0.1720  0.4900 -0.1242
22496W        W39344   8.927  11.269  16.264 -0.2315 -0.3201 -0.1148
22497W        W39345   7.330  15.663  11.676  0.1663 -0.1472  0.1155
22498W        W39346   9.859   7.603  12.443  0.4321 -0.0366 -0.2186
22499W        W39347  12.859   4.266  12.223  0.1450  0.0360 -0.0527
22500W        W39348  17.057   7.139   2.088 -0.5266  0.1688 -0.0995
22501W        W39349  10.659   6.214  11.996 -0.3538 -0.0674 -0.1612
22502W        W39350  13.156  16.206  11.907 -0.2502 -0.3388  0.0142
22503W        W39351  12.147   0.594  13.688  0.2009  0.0384  0.4405
22504W        W39352  11.256  13.559  12.757 -0.0302 -0.1410 -0.0331
22505W        W39353   6.614  13.878  13.113  0.2884 -0.2274  0.1224
22506W        W39354  11.501   8.284  11.885  0.0981  0.0244  0.1756
22507W        W39355  13.885  12.325   5.534 -0.1073  0.1675 -0.0414
22508W        W39356   5.494   7.209  15.139  0.1964  0.2408  0.0988
22509W        W39357   0.899  15.161   2.490  0.0666  0.0516 -0.3442
22510W        W39358   6.082   9.770   2.281  0.0101 -0.0820  0.0781
22511W        W39359  15.697  14.746  13.929 -0.0253  0.2321 -0.0466
22512W        W39360   2.164  11.808  13.575  0.0490 -0.3470  0.0886
22513W        W39361  13.998   1.477  14.776 -0.2444  0.0103  0.2090
22514W        W39362   2.181   9.625   0.921  0.2852 -0.2232 -0.1200
22515W        W39363  15.142   0.446   3.500  0.0416  0.1056 -0.0979
22516W        W39364   5.040   6.657   5.583 -0.0038  0.0719 -0.2070
22517W        W39365   9.705   5.746  11.440 -0.1644 -0.0166 -0.1786
22518W        W39366   3.436  13.368  14.735 -0.1162  0.4896 -0.0714
22519W        W39367   8.074   7.907  11.387 -0.2995  0.1464  0.0354
22520W        W39368   8.572   1.877  14.659  0.2985  0.0362 -0.1063
22521W        W39369   1.273  16.208  14.075 -0.2262 -0.0154  0.1588
22522W        W39370   9.924  14.237   5.334  0.1811  0.2467 -0.1576
22523W        W39371   8.588   1.039  13.286 -0.2720  0.1036  0.0149
22524W        W39372  15.206  11.789   3.404  0.1747  0.1042 -0.0055
22525W        W39373   9.291   5.237   1.851  0.2329  0.0256 -0.1586
22526W        W39374  12.920  16.322  12.609 -0.0465  0.1281 -0.2772
22527W        W39375   4.274   1.448   4.776 -0.0485 -0.1440  0.0151
22528W        W39376   8.038  17.896   3.634  0.0476 -0.3149 -0.0583
22529W        W39377   8.258  12.193   3.509  0.0625 -0.2993  0.1232
22530W        W39378   7.358   8.753   0.421 -0.1118 -0.3131 -0.2351
22531W        W39379  10.935   3.536  14.765  0.3408 -0.1881  0.1163
22532W        W39380  13.671  10.122   1.404  0.1171  0.0989  0.0434
22533W        W39381  16.378   5.446  11.357 -0.1076 -0.0338  0.0399
22534W        W39382   0.849   8.819  12.497  0.0114  0.2527 -0.0711
22535W        W39383   6.614  15.515   3.237  0.2298  0.0070  0.0950
22536W        W39384   4.531  13.170  16.056  0.2822 -0.0252 -0.1871
22537W        W39385   5.538   6.045   4.107  0.1945  0.1335  0.0761
22538W        W39386  10.402   0.937  12.260 -0.4753  0.3383  0.0082
22539W        W39387   6.578   1.967   0.725 -0.0279 -0.4591 -0.2415
22540W        W39388  16.387   9.327   2.505 -0.2013 -0.2168  0.0105
22541W        W39389   6.818   8.904  12.326  0.1786 -0.3250  0.2326
22542W        W39390   7.619  11.249   4.676  0.0194 -0.2031 -0.0433
22543W        W39391  10.512   9.452  13.158  0.2086 -0.2583 -0.2198
22544W        W39392  13.210   2.803   2.884 -0.1312 -0.2699  0.1248
22545W        W39393  11.700   1.550   0.684  0.0298  0.0436  0.0318
22546W        W39394  15.823   0.443  13.043  0.1567 -0.0489  0.1886
22547W        W39395  10.782   9.602   2.334  0.0765  0.0100  0.2324
22548W        W39396  14.558   7.450   2.692 -0.2613  0.1823 -0.0785
22549W        W39397   6.644  14.737  15.985 -0.0117 -0.1417 -0.1066
22550W        W39398   5.008  13.792  13.525  0.0053  0.6352  0.2359
22551W        W39399   4.873   1.998  13.222 -0.1244  0.0705 -0.1975
22552W        W39400  11.762  10.787  13.672 -0.2257  0.0247 -0.1367
22553W        W39401   5.450  13.953   0.886 -0.2525 -0.4292 -0.3102
22554W        W39402   3.895   8.094   1.082  0.1553  0.2408 -0.0780
22555W        W39403  14.688   3.622   1.532  0.2744  0.1836  0.0326
22556W        W39404   1.945  16.587  16.289  0.3095  0.1174 -0.0703
22557W        W39405  12.656   9.355  13.013  0.0106 -0.0124 -0.0399
22558W        W39406  10.793   4.321   0.662 -0.1786 -0.1809  0.0480
22559W        W39407  10.310  12.951   5.433 -0.1130  0.0455 -0.0825
22560W        W39408   4.051   6.071   2.020  0.0326 -0.2123 -0.0642
22561W        W39409   3.506  17.902  14.412  0.2531  0.2123 -0.0012
22562W        W39410  11.464   7.658   4.141  0.0209 -0.0828  0.1925
22563W        W39411   3.083  16.318   1.027 -0.4187  0.1181 -0.0851
22564W        W39412   2.490  13.625  11.887 -0.0476  0.1792  0.1222
22565W        W39413   0.118  13.287  16.206  0.0767  0.1113  0.0243
22566W        W39414  11.645   7.458   3.153  0.0130 -0.0886  0.2954
22567W        W39415   3.908  11.641   0.904  0.0731 -0.3944 -0.3370
22568W        W39416   3.464   5.583   4.624 -0.0275 -0.2962  0.0975
22569W        W39417  15.697   2.017  12.907  0.0302  0.2517  0.1907
22570W        W39418   9.024   3.166   1.560 -0.0927  0.0137 -0.0475
22571W        W39419   9.537  13.748   3.579 -0.1667  0.1273  0.1192
22572W        W39420  10.882   2.601   0.020  0.0474 -0.0629 -0.1119
22573W        W39421  14.973   7.103   2.433 -0.0454 -0.2659 -0.2856
22574W        W39422   2.491   5.670   1.176  0.2267  0.2107  0.1718
22575W        W39423   2.032  10.128   0.826  0.2297  0.1435  0.0493
22576W        W39424  13.203   5.559   1.555 -0.1187  0.1092 -0.2537
22577W        W39425  16.921  16.908  15.948  0.1914 -0.3551 -0.0881
22578W        W39426   9.044  16.347  14.150 -0.4354 -0.1394  0.1718
22579W        W39427  12.210   0.773   3.071  0.1432 -0.1076  0.1056
22580W        W39428  15.162  11.629   1.362  0.0222  0.1472 -0.0475
22581W        W39429   7.618   2.243   2.752 -0.0072 -0.2413  0.1070
22582W        W39430  16.362   3.130  10.718  0.3125  0.1332 -0.0724
22583W        W39431   8.283   9.275   0.882  0.0773 -0.3000  0.0121
22584W        W39432   8.387   5.732   2.699  0.2722 -0.1309  0.0163
22585W        W39433   3.284  14.417  11.338 -0.1073  0.0769 -0.0526
22586W        W39434  13.258  15.906  10.494  0.0727  0.0542  0.1379
22587W        W39435   2.372   9.893  11.192 -0.5030 -0.1368 -0.1868
22588W        W39436   0.022  15.908  13.277  0.3346 -0.1126 -0.1144
22589W        W39437   0.444  14.395   2.098  0.0433  0.2608  0.1268
22590W        W39438  12.007  12.217  13.604  0.0146 -0.0900  0.0454
22591W        W39439  11.441  16.708  11.848  0.3108  0.1054  0.0440
22592W        W39440   8.477   1.922   5.429  0.1002  0.0172 -0.0836
22593W        W39441   5.275  12.305  14.562 -0.0628  0.1507  0.0675
22594W        W39442   2.965  11.667  15.264  0.0097  0.1673 -0.4187
22595W        W39443   6.529   8.756   5.316  0.1183 -0.4401 -0.0610
22596W        W39444   9.340  16.389  13.693  0.2989  0.3784  0.2469
22597W        W39445   8.482   4.224   3.354 -0.0467  0.3279 -0.1072
22598W        W39446  15.815   3.002   2.637 -0.0759 -0.1306 -0.0358
22599W        W39447  17.674   5.324  12.974 -0.0120 -0.1034 -0.1515
22600W        W39448   5.415   7.079   1.999 -0.1221 -0.2900  0.1469
22601W        W39449  16.212  17.316  11.651  0.0986 -0.2610  0.2230
22602W        W39450  10.408   8.338   1.326  0.2009 -0.3417 -0.0682
22603W        W39451  12.697   2.896  10.423 -0.0311  0.0595 -0.1120
22604W        W39452  14.761  11.399  12.427  0.0554  0.4524 -0.1303
22605W        W39453   7.013   7.748   3.197 -0.2480  0.0643  0.1053
22606W        W39454   9.679   3.276  13.259  0.0444  0.1804 -0.1471
22607W        W39455  13.181   2.265  12.944  0.3154  0.2554  0.1934
22608W        W39456  16.510   4.156   1.724 -0.1440 -0.1084 -0.0775
22609W        W39457  17.710  10.729  12.442  0.3376 -0.1705  0.5001
22610W        W39458   1.800  13.968   3.745  0.0065  0.0189 -0.1959
22611W        W39459   7.391   2.688   0.923  0.2575  0.2137 -0.0212
22612W        W39460  11.199  12.066  15.855 -0.1415  0.0715  0.0508
22613W        W39461  11.150  15.833   0.361  0.1528  0.1009 -0.2199
22614W        W39462   0.147   3.362  11.461 -0.0745  0.0598  0.0980
22615W        W39463  15.961   8.537   5.635  0.0692 -0.1560  0.4381
22616W        W39464   0.145   8.452   2.073 -0.1572  0.1679  0.0630
22617W        W39465   0.921  11.427   2.631 -0.2681 -0.3276  0.0893
22618W        W39466  12.765  17.605   0.619  0.3414  0.3119 -0.0410
22619W        W39467   4.281  11.709  14.956  0.1726 -0.1180  0.5431
22620W        W39468   8.118   3.189  15.538 -0.0865  0.0697  0.0552
22621W        W39469  17.774  17.552   3.045 -0.3476 -0.0589  0.2302
22622W        W39470  16.845  16.157   3.551 -0.1886 -0.1478 -0.4087
22623W        W39471   1.720  16.898   2.191  0.2491 -0.1886 -0.1024
22624W        W39472  11.679  10.657   6.286  0.0001  0.1340  0.3367
22625W        W39473  13.134   9.210  14.978  0.1371  0.3067 -0.1512
22626W        W39474  13.423  17.319   5.374 -0.3205 -0.0971 -0.1082
22627W        W39475  16.118  15.885  12.334  0.0139 -0.0289 -0.2646
22628W        W39476  15.689   9.237  15.532  0.0701 -0.3072  0.1989
22629W        W39477   3.391   8.282   0.885 -0.2141  0.1466  0.0029
22630W        W39478  10.458   0.238   3.126  0.1486  0.1847 -0.2817
22631W        W39479  14.697   6.974  14.229 -0.0420  0.2166 -0.1273
22632W        W39480   5.748   2.435  12.572  0.5003 -0.0178  0.1321
22633W        W39481  17.018  14.765   4.450  0.1302 -0.2295 -0.0567
22634W        W39482  17.586   0.448  12.939  0.0337  0.0703  0.0472
22635W        W39483  10.345  11.207   3.683  0.0112 -0.0092 -0.1438
22636W        W39484   4.501   6.358  12.558  0.0351  0.1596 -0.0837
22637W        W39485   1.032  12.971  13.538 -0.1587  0.0698 -0.2921
22638W        W39486  14.077   7.621   2.793 -0.2617  0.0328 -0.1026
22639W        W39487   0.377   0.109   3.809  0.0492  0.1296  0.2282
22640W        W39488  15.072   5.973  15.096 -0.0123 -0.1898  0.2634
22641W        W39489  14.798   7.698   3.062 -0.0063  0.0379 -0.0684
22642W        W39490  11.515   3.465   0.507 -0.3417  0.0061  0.0044
22643W        W39491  14.247   0.638  11.403 -0.1019  0.1366 -0.2403
22644W        W39492   6.780   2.208   2.890  0.2621  0.0450  0.1733
22645W        W39493   9.615  15.822  12.853  0.0004 -0.0491  0.0887
22646W        W39494  17.535   2.222  15.124 -0.3194  0.0644 -0.1737
22647W        W39495   2.135   8.786  12.080 -0.0182  0.0961  0.0408
22648W        W39496   2.185  17.324   5.041  0.1350  0.0443  0.1773
22649W        W39497   9.317  17.095   1.767 -0.1797  0.0918  0.2904
22650W        W39498  10.703  11.215  15.933  0.1109  0.0829 -0.1073
22651W        W39499  15.468  14.846   3.688  0.0824 -0.0306 -0.1515
22652W        W39500   3.184   3.192  16.158  0.1340  0.2774 -0.0035
22653W        W39501   9.956   8.649  12.300  0.3018  0.1385  0.0895
22654W        W39502   5.060  10.690  15.055  0.3031 -0.0163 -0.1117
22655W        W39503   1.983   1.908   0.971 -0.4054 -0.1655  0.0560
22656W        W39504   6.524   3.659   0.038 -0.2201  0.3212 -0.2056
22657W        W39505   7.842   8.354  14.644  0.0021  0.0762 -0.0504
22658W        W39506   0.228  13.581   1.003 -0.4606 -0.2379  0.2044
22659W        W39507   0.718  11.924   4.803  0.0264 -0.0768  0.0539
22660W        W39508   6.499   0.735   4.170  0.2924  0.3618  0.2776
22661W        W39509   6.052  17.069  11.659 -0.3513 -0.2165  0.0156
22662W        W39510   2.475  11.211   5.322  0.0292 -0.0321  0.0529
22663W        W39511  14.768   8.637   0.752 -0.1333  0.2027 -0.1500
22664W        W39512   9.447   5.523   1.410 -0.0189 -0.1033  0.0076
22665W        W39513   1.524  10.215   4.105 -0.3347  0.0367 -0.0801
22666W        W39514  16.139  16.150  16.091 -0.1796 -0.1071  0.0303
22667W        W39515  15.341   7.001   5.383 -0.2545  0.0467 -0.0603
22668W        W39516   0.508  13.489  15.809  0.0405  0.0297  0.2430
22669W        W39517   2.475   7.972  16.078 -0.2350 -0.3620  0.2172
22670W        W39518  11.762   8.528   3.911 -0.4006 -0.1159  0.3187
22671W        W39519  17.899   0.984  15.295 -0.0850  0.0668  0.1094
22672W        W39520   1.295  12.227  15.245 -0.1108  0.1248  0.0524
22673W        W39521  13.371   3.917  15.491 -0.3314  0.2974  0.1307
22674W        W39522  10.847  15.587  13.220  0.2613  0.1741  0.0318
22675W        W39523   2.561   9.017   3.218  0.2572 -0.3892 -0.2206
22676W        W39524   9.932   2.465  13.675  0.3090 -0.2326 -0.3302
22677W        W39525   8.539  10.446   3.240 -0.0779  0.3366  0.0324
22678W        W39526  16.249  17.510   4.416 -0.2789  0.1163  0.1457
22679W        W39527  12.213   9.254   4.030 -0.1624  0.0136 -0.0496
22680W        W39528   2.095   4.769   4.127 -0.0064  0.1911  0.1473
22681W        W39529   4.075  12.069   3.929  0.1146 -0.1835  0.1010
22682W        W39530   4.389   6.413   9.938 -0.0074 -0.0911 -0.1678
22683W        W39531  13.979   8.065  13.125 -0.0187  0.1086 -0.1132
22684W        W39532  12.045   1.823  14.796  0.1192 -0.0753  0.1609
22685W        W39533  10.302  16.872   3.559  0.0931 -0.0016 -0.1563
22686W        W39534   5.146   4.014   3.929  0.0068  0.0122  0.2339
22687W        W39535   3.838   0.906   0.761  0.1743  0.2470 -0.3377
22688W        W39536  12.604   0.560  14.153  0.0532  0.3469 -0.1723
22689W        W39537   3.875   3.001  14.626  0.1733  0.0468  0.0767
22690W        W39538   0.813  12.955   3.725  0.0746 -0.0438 -0.2516
22691W        W39539   9.748   9.072   3.036 -0.0392 -0.0613  0.1236
22692W        W39540  16.116   7.036  13.648 -0.1597  0.1534 -0.1846
22693W        W39541  14.236   1.623  11.488  0.0386  0.3474  0.1873
22694W        W39542   2.270   1.141   2.017  0.0938 -0.0011  0.2130
22695W        W39543   7.198  17.914   0.732  0.2069  0.2353  0.1683
22696W        W39544   9.261   5.254  13.053  0.2842  0.1214 -0.3425
22697W        W39545  15.521   0.241   4.483 -0.2564 -0.1168  0.1607
22698W        W39546  11.566   5.426  15.489 -0.6173  0.1304 -0.2011
22699W        W39547   4.155  11.063  13.652 -0.1987 -0.0381 -0.0084
22700W        W39548  17.582  11.147  11.826 -0.0394 -0.2327 -0.0366
22701W        W39549   2.302   2.751  12.091 -0.2161 -0.5262 -0.0440
22702W        W39550   5.007   8.076   2.292  0.0083  0.0546 -0.0922
22703W        W39551  13.543   9.618   4.117 -0.0084 -0.0214 -0.1295
22704W        W39552   7.692   4.501   4.462 -0.2213  0.0211  0.0356
22705W        W39553  12.900   6.728  13.523 -0.1257 -0.2099 -0.3327
22706W        W39554  13.863  11.181   3.245 -0.2795 -0.1334  0.2491
22707W        W39555   4.589   1.086   4.724  0.1961 -0.2855  0.2520
22708W        W39556  16.285  13.606  12.609 -0.0030 -0.4482 -0.2218
22709W        W39557  17.224   8.359  14.851 -0.2243  0.0872 -0.1479
22710W        W39558   0.396  10.137   1.224  0.1122 -0.1545  0.0036
22711W        W39559  16.152  16.980  12.052 -0.2636  0.0866 -0.1082
22712W        W39560   9.273   8.449  10.426 -0.0554 -0.0665 -0.0448
22713W        W39561  13.505   2.033   5.965  0.0621 -0.3187  0.0243
22714W        W39562  17.336   0.519   3.818 -0.0987 -0.0865 -0.1037
22715W        W39563   6.943  15.870  11.416 -0.3101 -0.0476  0.0521
22716W        W39564  11.897   3.230   4.869 -0.2140  0.4112  0.4075
22717W        W39565   5.691  14.695  13.723 -0.1730 -0.4703 -0.2554
22718W        W39566  16.311   3.941   0.563 -0.0405  0.3335 -0.0064
22719W        W39567  14.575   7.581  12.207  0.3406  0.0610 -0.0513
22720W        W39568   2.334   5.427   0.654 -0.1886 -0.1498 -0.2804
22721W        W39569   7.571   3.451   4.504  0.2148 -0.2923 -0.3055
22722W        W39570  15.574   2.859  11.789 -0.1747 -0.0620  0.2795
22723W        W39571   8.639   2.628  10.986  0.1880 -0.0006  0.4265
22724W        W39572   0.420  11.351  13.480  0.1900  0.1890  0.3179
22725W        W39573   0.260  15.261   2.722  0.3211 -0.1914  0.1653
22726W        W39574  15.752  11.679   3.392  0.2386  0.0793  0.0026
22727W        W39575  11.597   4.281  11.473  0.0904  0.2469 -0.0914
22728W        W39576  12.022   8.905   2.738 -0.0815  0.0991  0.3294
22729W        W39577   9.019   7.036  14.291 -0.1353 -0.1947 -0.2997
22730W        W39578   9.856   0.486   0.827 -0.0249 -0.0418 -0.1929
22731W        W39579  13.555  14.419  14.823  0.2140 -0.0979  0.0096
22732W        W39580   1.552   6.222   5.016 -0.0514 -0.0753 -0.0818
22733W        W39581   7.025  12.806   3.399  0.0592  0.6198 -0.1661
22734W        W39582  17.372  12.674  12.441 -0.1876 -0.0657  0.2644
22735W        W39583  10.200  16.310  12.438 -0.0965 -0.0529 -0.3737
22736W        W39584   7.114   6.135   2.872 -0.4488 -0.2093  0.1375
22737W        W39585  17.306   6.063   0.806 -0.0050  0.0389 -0.1025
22738W        W39586   9.986  11.367  16.213 -0.2750 -0.1085 -0.2814
22739W        W39587   3.167   2.253  12.466  0.0070 -0.0772  0.0341
22740W        W39588   6.448   4.897   3.794 -0.0571 -0.2525 -0.2947
22741W        W39589  14.869   8.450  11.492  0.4746 -0.1712 -0.0699
22742W        W39590   8.657   5.136  12.249  0.1276  0.1383  0.0129
22743W        W39591  12.898  13.361   1.644  0.3569  0.0148 -0.4065
22744W        W39592   4.247   3.068  12.206 -0.2157 -0.0602 -0.0307
22745W        W39593  17.733  10.656  11.940  0.3713 -0.1698  0.0609
22746W        W39594  16.601   5.485   4.848 -0.0755 -0.2541 -0.0187
22747W        W39595   4.286   0.297  13.080  0.2647 -0.0197 -0.1344
22748W        W39596  11.164   8.235   1.689 -0.0952 -0.1277 -0.0184
22749W        W39597   3.441   1.353   3.305  0.1604  0.0347  0.0151
22750W        W39598  11.185   1.236  13.450 -0.0784 -0.3854 -0.0985
22751W        W39599  14.500  14.649  15.820 -0.3814  0.1123 -0.0992
22752W        W39600   3.692  12.014  11.235 -0.0194  0.1551  0.0002
22753W        W39601  11.300   2.563  11.823  0.0811  0.1858 -0.1985
22754W        W39602  14.033  13.109  12.561 -0.2126 -0.2643  0.1646
22755W        W39603   3.922   0.466   3.170  0.0010 -0.1041  0.2645
22756W        W39604  15.011   7.178   1.324 -0.0533  0.1235 -0.0282
22757W        W39605   9.817  13.343   1.898  0.2930  0.0698 -0.0627
22758W        W39606   6.867  12.112  12.470  0.2805 -0.0017 -0.2025
22759W        W39607  11.181   5.277   0.544 -0.2160 -0.0000  0.0243
22760W        W39608   3.821   0.598   2.485 -0.1325 -0.0982  0.0100
22761W        W39609   3.212  17.173   1.687 -0.1274 -0.0884  0.1551
22762W        W39610  10.598   4.929   1.685  0.2156  0.4170 -0.0764
22763W        W39611  11.785  13.649  13.006 -0.0787  0.3033 -0.0894
22764W        W39612  16.753  11.802  11.665  0.0014 -0.0475  0.0907
22765W        W39613   0.991   8.630   3.670  0.0423  0.2182  0.0844
22766W        W39614   7.610  11.920  13.602  0.0131  0.4935 -0.1970
22767W        W39615   8.060   9.496   2.920  0.2145 -0.2423  0.0752
22768W        W39616   2.408   6.535   1.934 -0.2073 -0.3655 -0.0519
22769W        W39617   7.277  13.865  15.137  0.1575  0.0965  0.1530
22770W        W39618   6.644  10.501   0.995 -0.2025  0.1760  0.0118
22771W        W39619   7.036   9.360  15.498 -0.3376 -0.0159 -0.1995
22772W        W39620   2.626  17.646   2.869  0.1957  0.4407 -0.2406
22773W        W39621   1.095   3.064  14.685  0.3735 -0.2304 -0.2005
22774W        W39622   6.927   5.016  15.745  0.4357  0.1721  0.3538
22775W        W39623   0.739   4.785   3.160  0.2176  0.1750  0.1616
22776W        W39624   2.459  17.739  15.204 -0.0047 -0.4733 -0.0030
22777W        W39625  16.419   9.971   3.580 -0.0119  0.1322 -0.3891
22778W        W39626  11.566   0.912  12.638  0.1388 -0.3889 -0.3021
22779W        W39627   6.550   3.553  11.660  0.3559 -0.3100  0.1058
22780W        W39628  16.655   5.325   1.645 -0.0728  0.0681  0.2966
22781W        W39629  16.346  11.212  12.509 -0.1809  0.3104  0.2434
22782W        W39630  12.076   7.504   0.218 -0.1194  0.0891  0.0839
22783W        W39631   6.675   8.360  12.107  0.6341 -0.0624  0.1246
22784W        W39632   6.743  10.727   4.829  0.0840 -0.3913  0.0317
22785W        W39633   1.740  17.967  16.308  0.0012  0.0623 -0.2410
22786W        W39634   6.738   8.882   2.471 -0.1868 -0.2824  0.0871
22787W        W39635   7.847   3.128   1.581  0.2328 -0.3003 -0.0559
22788W        W39636   5.027  11.828  14.337  0.0189  0.1926  0.1339
22789W        W39637  11.492  16.982   2.349 -0.0741 -0.1459  0.0482
22790W        W39638   6.121   0.970   3.707  0.2950  0.1474 -0.1008
22791W        W39639   6.102  14.948  11.630  0.1883 -0.2245  0.0524
22792W        W39640  16.964  17.292  15.537 -0.0990 -0.1750  0.1599
22793W        W39641  12.951  16.481   3.321 -0.3101  0.2786 -0.1448
22794W        W39642  15.498  16.655   1.290  0.1172  0.1068 -0.0546
22795W        W39643   3.839   4.765  15.269 -0.2824  0.1688  0.2680
22796W        W39644   4.749  16.822  12.511 -0.1013  0.0878 -0.2452
22797W        W39645  12.636   9.914  12.071  0.0189  0.0973  0.1315
22798W        W39646   3.352  17.603  14.793  0.2424 -0.3386  0.0743
22799W        W39647  14.699  17.578  12.925 -0.1936 -0.1154  0.1057
22800W        W39648   5.947   1.452  12.497  0.1274 -0.2438 -0.1098
22801W        W39649  16.020   4.391  12.914  0.4011 -0.1407 -0.1153
22802W        W39650  16.351  12.860  15.779 -0.0689 -0.0391  0.0976
22803W        W39651   1.720   2.655   4.524 -0.0776 -0.2541  0.2825
22804W        W39652  18.086   9.383   2.508 -0.3607  0.1826 -0.0552
22805W        W39653   6.085   6.098   2.969 -0.1801  0.0482  0.1407
22806W        W39654   0.071   8.744  12.094  0.0666 -0.4490 -0.4179
22807W        W39655   0.375   9.676  11.353  0.0550  0.1262 -0.2564
22808W        W39656  11.746  11.470   5.288  0.1075  0.0058 -0.0780
22809W        W39657   6.214   1.689  12.858  0.1172  0.2562  0.2325
22810W        W39658   3.010   2.417   0.583  0.1250  0.3602  0.1059
22811W        W39659  10.577  14.739  14.611 -0.1777  0.2604 -0.1625
22812W        W39660  16.837   4.530   3.685  0.0485  0.1966  0.0368
22813W        W39661   5.587  10.825   2.351  0.0514  0.0034  0.1617
22814W        W39662   9.021   0.692  14.678  0.1985 -0.2265 -0.0787
22815W        W39663   4.281  14.805   4.315 -0.1117 -0.0020  0.3447
22816W        W39664  15.171  11.740  16.233  0.0142 -0.1520  0.1037
22817W        W39665  11.641   4.399  14.645  0.0057 -0.0315 -0.2505
22818W        W39666  11.135  12.217  11.175 -0.0182 -0.1002  0.2191
22819W        W39667  15.625   6.386   3.170 -0.0673 -0.4406 -0.0207
22820W        W39668   3.848   1.353  11.633  0.1081  0.1626  0.0148
22821W        W39669   5.194   0.752   3.405 -0.4262 -0.1146 -0.1402
22822W        W39670  17.823   3.756  15.808  0.1459  0.1651  0.2396
22823W        W39671   9.214  12.353   0.631  0.2845 -0.1723 -0.3358
22824W        W39672   9.914   2.185   4.677  0.1308  0.2631  0.3370
22825W        W39673  15.642   1.469  12.013 -0.2053  0.2091  0.1815
22826W        W39674   8.513   8.949   3.889  0.1467  0.2647  0.2707
22827W        W39675   5.010  13.587   3.732 -0.4142  0.1070 -0.1154
22828W        W39676   4.660  16.091  15.092  0.2151 -0.1885  0.3348
22829W        W39677   4.267   5.646  12.942 -0.1035  0.1934  0.1801
22830W        W39678  16.319   5.231   2.090  0.1066 -0.4485  0.0716
22831W        W39679   4.638   9.120   2.320 -0.1006  0.1808  0.0667
22832W        W39680  16.478  14.983   2.863 -0.0418  0.0770  0.0140
22833W        W39681  10.621  16.012  13.134 -0.0562 -0.2935  0.0462
22834W        W39682   2.795  16.329  11.230 -0.0236  0.2551 -0.1819
22835W        W39683   1.224   5.203  12.085 -0.1865  0.0616 -0.2293
22836W        W39684   1.284  12.803   3.614 -0.2754 -0.0573 -0.1286
22837W        W39685  17.411  15.840   3.399  0.3080  0.1779  0.1116
22838W        W39686  17.313  18.096  12.218 -0.0835  0.2480  0.3158
22839W        W39687  17.614  13.408  13.960  0.0632 -0.2751 -0.3424
22840W        W39688  10.686   0.724  13.781 -0.0454  0.1421 -0.1702
22841W        W39689   6.318   8.975  13.251 -0.3024 -0.0610  0.0168
22842W        W39690  15.011  11.421  11.589 -0.1978 -0.2446  0.1338
22843W        W39691  10.959  15.044  16.262  0.0075  0.0231 -0.0235
22844W        W39692  10.826   0.098  14.527  0.1647 -0.0924  0.1613
22845W        W39693   0.554   8.363   1.091  0.1226  0.2772  0.0848
22846W        W39694   2.650  11.417   3.835 -0.0378 -0.0649  0.0654
22847W        W39695   5.637  17.070  14.086 -0.4069  0.1696  0.2420
22848W        W39696  15.151   0.552  12.450  0.1011  0.1948 -0.0141
22849W        W39697   3.720  10.905  11.882 -0.0744 -0.0696  0.0175
22850W        W39698  11.978   9.344   1.661  0.4450  0.0506  0.0536
22851W        W39699   2.297  18.071  14.297  0.0336  0.1399 -0.2635
22852W        W39700   9.611  13.336   3.355  0.0662 -0.0174  0.1488
22853W        W39701   9.533  18.078  14.069  0.2942 -0.1808 -0.3754
22854W        W39702  10.961  14.793  12.339  0.2061  0.2064 -0.2782
22855W        W39703   4.436   9.425  14.557  0.1890  0.2167 -0.0463
22856W        W39704  15.474   6.674   0.316 -0.1797 -0.1185 -0.1028
22857W        W39705   4.201  14.428  11.952  0.0009 -0.2447  0.1605
22858W        W39706  17.725  14.554  13.954 -0.3091  0.1372  0.0458
22859W        W39707   6.014   2.120  15.372 -0.2883 -0.0097  0.1723
22860W        W39708   4.244   3.565   1.720  0.1202 -0.1240  0.1899
22861W        W39709  16.870   4.316  13.561  0.0930  0.1238  0.1841
22862W        W39710   0.610  17.964  12.808  0.0943  0.0691  0.1728
22863W        W39711  14.466  10.937  14.701  0.1191  0.0497  0.1872
22864W        W39712   7.650   2.705   1.340 -0.1312 -0.0284  0.0289
22865W        W39713   8.147  14.217  12.808  0.0989  0.0528 -0.1410
22866W        W39714  16.962  16.062   1.294 -0.0011  0.0106 -0.0562
22867W        W39715   8.432  17.137  14.449 -0.0805  0.0241  0.3073
22868W        W39716  16.335   3.863   1.373  0.1845 -0.0038  0.0706
22869W        W39717   6.329  12.409   2.294 -0.1497 -0.1727 -0.0737
22870W        W39718  13.778   7.295  14.507 -0.2136 -0.1432  0.3385
22871W        W39719   3.686   4.472   1.287 -0.1126  0.0906 -0.1826
22872W        W39720   5.219  11.811  15.818 -0.0753  0.2943 -0.0695
22873W        W39721   3.738  16.399  11.145  0.0082  0.1605  0.3167
22874W        W39722   2.830  12.948  13.422  0.1420  0.0515 -0.1008
22875W        W39723  13.769   3.644  15.838  0.0202  0.1520  0.0080
22876W        W39724   9.391   2.275  11.660 -0.0856  0.4856  0.2327
22877W        W39725   7.843   6.372  13.193 -0.0691  0.1133  0.4516
22878W        W39726  10.816   5.915  14.848  0.0267  0.1083 -0.1583
22879W        W39727  10.079  17.018   4.008 -0.0433  0.1671  0.0202
22880W        W39728  11.901  12.484   1.663 -0.3817 -0.0770 -0.0248
22881W        W39729  15.752   7.775   1.093  0.0092 -0.0960 -0.2379
22882W        W39730  12.695  16.286  12.159 -0.0780 -0.2006 -0.0972
22883W        W39731  16.283  10.768  13.726  0.2259 -0.1660 -0.3046
22884W        W39732   5.197   6.181   2.919 -0.2414 -0.3248  0.0515
22885W        W39733   9.930   5.427   1.233  0.0637  0.2757  0.0590
22886W        W39734  13.199  14.409   2.307 -0.1794  0.3376  0.0227
22887W        W39735   1.315  18.000   0.259  0.2206  0.0542 -0.1743
22888W        W39736  15.602   8.324  16.124 -0.1822 -0.0349 -0.0435
22889W        W39737  15.055   2.567  14.364 -0.2083  0.0733  0.1621
22890W        W39738   7.674   1.211   4.045  0.0301 -0.1535 -0.2723
22891W        W39739   8.711   4.522  10.980 -0.1382  0.2473 -0.1454
22892W        W39740   2.317  16.416  16.051 -0.1676  0.2736 -0.1061
22893W        W39741  15.883  15.368  12.500 -0.2665 -0.0475  0.1571
22894W        W39742   5.733   9.292   0.347  0.0643 -0.2385  0.1054
22895W        W39743   8.852  12.879  12.706  0.0809  0.2460 -0.3813
22896W        W39744   3.074   6.241  13.455  0.1243  0.0216 -0.1901
22897W        W39745   6.570  14.094   3.690 -0.1891  0.1106  0.1789
22898W        W39746   0.227  15.669   6.238 -0.1600  0.3504  0.3290
22899W        W39747   6.543   9.214  14.989  0.2663  0.0301  0.5036
22900W        W39748   2.799   7.789   3.816  0.0062 -0.1021 -0.1266
22901W        W39749  10.814  11.000   0.122 -0.3154  0.1669  0.0948
22902W        W39750   3.385  16.815   0.466 -0.1939  0.3116  0.1915
22903W        W39751   5.321   5.884   2.599 -0.1155  0.1624 -0.0075
22904W        W39752   6.958   6.165  13.076  0.1661  0.2920 -0.0194
22905W        W39753  11.614   8.876  13.475  0.1014 -0.3775 -0.3947
22906W        W39754  11.457   9.523   1.558 -0.2956 -0.3401 -0.0421
22907W        W39755  14.976  14.270   2.673 -0.0768  0.3684 -0.2835
22908W        W39756   2.758  16.405   1.428  0.0297  0.1147  0.2775
22909W        W39757   4.935   5.464   1.598  0.0984  0.0470  0.2058
22910W        W39758   8.658  11.958   2.711 -0.1916 -0.3869  0.2090
22911W        W39759   2.859   2.583  12.064 -0.1291  0.2429  0.1506
22912W        W39760   9.331  11.566   3.899 -0.2375  0.0538 -0.3403
22913W        W39761  16.426  10.415   3.247 -0.0253 -0.0228  0.3670
22914W        W39762   5.307   4.216   3.508  0.0820 -0.2644  0.0480
22915W        W39763   3.160  13.147  13.010 -0.0497 -0.0913 -0.0877
22916W        W39764   0.198   9.786  15.998  0.2260  0.2632 -0.0374
22917W        W39765   5.906   1.965  13.612 -0.5043  0.4651 -0.2780
22918W        W39766  13.118   5.220   1.923 -0.0868 -0.0872 -0.1288
22919W        W39767   7.668   5.733  11.395  0.4859 -0.2008  0.0038
22920W        W39768  13.727   5.526  11.913  0.1086  0.2956  0.1448
22921W        W39769   8.701   8.606  11.791  0.2143 -0.1705 -0.1951
22922W        W39770   5.353   9.981  14.992  0.1317  0.3100  0.1725
22923W        W39771   4.201  11.815  15.480  0.0454  0.0040  0.0643
22924W        W39772   7.738  10.730   1.085  0.1340 -0.3632  0.1429
22925W        W39773   8.845  16.495  11.251 -0.1725  0.0086  0.0935
22926W        W39774   8.376   1.043  14.415  0.2999 -0.1591  0.0672
22927W        W39775   2.652   6.315   2.502 -0.1157  0.0423  0.0845
22928W        W39776  16.471   9.778  13.835 -0.0645 -0.1366 -0.1307
22929W        W39777   6.150  12.429   4.053 -0.0557  0.2438  0.0060
22930W        W39778  12.375  12.196   0.692  0.2937 -0.0303 -0.3575
22931W        W39779   8.887  12.967   3.566  0.2709  0.2099  0.0240
22932W        W39780   3.916   5.780   1.617 -0.1098 -0.0436  0.0407
22933W        W39781   7.224  14.999   3.139 -0.0686  0.2707 -0.1034
22934W        W39782   7.506   0.238   5.114 -0.0651  0.1906 -0.1407
22935W        W39783  14.987  11.295   1.682 -0.2022  0.3500 -0.2807
22936W        W39784  13.234   6.835   3.497 -0.1245 -0.1038  0.0857
22937W        W39785   9.724  11.821  16.317 -0.0651 -0.1031  0.1853
22938W        W39786   1.949  14.155  13.595 -0.1782  0.1127  0.1921
22939W        W39787   3.997   8.889  11.545 -0.0927  0.1806 -0.2528
22940W        W39788  17.129  15.973  12.303 -0.0805 -0.0080 -0.1854
22941W        W39789   3.282   0.095  14.038 -0.0005 -0.2258  0.0814
22942W        W39790   3.091   1.044   1.296 -0.2506  0.0454  0.1126
22943W        W39791   0.050  10.362  16.139 -0.1863  0.3226 -0.3819
22944W        W39792  17.210   3.381  15.931  0.0586  0.0011 -0.1415
22945W        W39793   8.631  17.957   0.935 -0.2301  0.1965  0.2671
22946W        W39794   8.662   0.209   1.281 -0.0370  0.0490 -0.2251
22947W        W39795   0.430  16.324   0.803 -0.0775  0.0307 -0.1039
22948W        W39796  15.026   3.681  12.368 -0.1249  0.1252 -0.0013
22949W        W39797   0.024   3.550   1.303  0.0467  0.0271  0.2475
22950W        W39798   8.856  13.469  15.736  0.1940  0.2193 -0.1995
22951W        W39799   2.532   8.905  15.098  0.0901 -0.2180  0.1424
22952W        W39800   7.853   5.408   2.057 -0.0459  0.1853  0.0395
22953W        W39801   8.192   1.002   2.776  0.3483 -0.0016 -0.0149
22954W        W39802   7.268  10.776  15.700 -0.1139  0.0629  0.0580
22955W        W39803   4.394   3.341   2.136 -0.1647  0.1514  0.0770
22956W        W39804  12.352  17.702  15.295  0.0068 -0.0479 -0.0891
22957W        W39805  12.701  16.588  10.225 -0.1200 -0.0329  0.2201
22958W        W39806   7.030   1.469  14.499 -0.2247 -0.0066 -0.0169
22959W        W39807  11.819  17.125  11.799 -0.1189 -0.1020  0.2323
22960W        W39808   1.117   1.606  14.893 -0.1351 -0.1522  0.2678
22961W        W39809  16.831   5.015   2.139  0.2515 -0.0526  0.1092
22962W        W39810   9.831  16.876  14.524 -0.0051 -0.1692 -0.1518
22963W        W39811  10.995   8.009   2.822  0.3087  0.0051  0.1321
22964W        W39812   4.951   6.847  11.829  0.1444  0.1640  0.1117
22965W        W39813   3.943  15.105  11.120  0.3891  0.0013 -0.2982
22966W        W39814  12.743  12.481   2.507  0.0371  0.0919 -0.0428
22967W        W39815   4.814  12.826   3.207 -0.3055  0.0810  0.0637
22968W        W39816   0.135  14.004  13.527  0.2533 -0.1039 -0.1963
22969W        W39817  15.385  12.740  13.124 -0.2890  0.0655 -0.0342
22970W        W39818   1.202  15.280  12.714 -0.0383 -0.0861  0.1560
22971W        W39819  11.427   6.500   3.784 -0.1578 -0.1851 -0.3204
22972W        W39820  10.952  10.236   5.295  0.1049  0.1244 -0.3959
22973W        W39821   4.968   2.268  15.265  0.1083  0.1919  0.0817
22974W        W39822   1.954  10.067   3.636  0.0560  0.0725  0.3803
22975W        W39823   3.249   5.967   3.178  0.1726 -0.2306 -0.1135
22976W        W39824   0.115   4.128   2.561  0.1034  0.2329 -0.0139
22977W        W39825   7.960   6.493  14.845  0.1872 -0.2567 -0.0740
22978W        W39826   1.747   7.308  12.121 -0.0156 -0.4979  0.0539
22979W        W39827   9.630  18.031  14.621  0.0665  0.0894  0.0832
22980W        W39828  10.017  11.063  10.163 -0.2950  0.1514 -0.0335
22981W        W39829  13.246  14.604   3.240 -0.1299  0.2136 -0.0608
22982W        W39830   7.542   8.055  12.096  0.2118 -0.0487 -0.2134
22983W        W39831  14.965   1.070  13.216 -0.0021 -0.2687 -0.3549
22984W        W39832  11.256   0.243   3.127 -0.2057 -0.0077 -0.1688
22985W        W39833   6.990   6.099   0.052 -0.3357 -0.1403  0.0479
22986W        W39834   6.479  16.497  13.602 -0.1900  0.0421 -0.1760
22987W        W39835   9.747   3.466   0.732 -0.1328  0.3624 -0.3581
22988W        W39836  10.457   7.156   2.742 -0.0621  0.1319 -0.1775
22989W        W39837  17.531   7.158  14.012  0.1737 -0.4871  0.3679
22990W        W39838   3.940   3.141   2.426 -0.1376 -0.2728  0.0264
22991W        W39839  10.834  10.875   1.947 -0.0660  0.2689  0.1046
22992W        W39840  10.350   2.821   1.780 -0.0712 -0.1645 -0.3182
22993W        W39841  13.440   4.060  14.907  0.0713 -0.2284 -0.1805
22994W        W39842   1.519  13.092  11.815  0.1646 -0.0436 -0.1904
22995W        W39843   7.201  14.654  13.074  0.0919  0.1802  0.0240
22996W        W39844   6.871   3.625  12.030 -0.0179  0.3154  0.2045
22997W        W39845  14.087  14.006   1.048 -0.1310  0.0597  0.2495
22998W        W39846   4.899  14.321  15.169  0.1325  0.0221  0.2083
22999W        W39847   5.891   2.948   2.519  0.1851  0.1663  0.1409
23000W        W39848   4.336   5.799  12.487  0.0371 -0.0264 -0.0985
23001W        W39849  13.981   0.614   0.220 -0.2937  0.0181 -0.1124
23002W        W39850   9.022  16.537   4.588 -0.1506 -0.0499  0.1829
23003W        W39851  17.552   1.362   3.097  0.2997  0.0951  0.0873
23004W        W39852  10.859   4.906  16.108  0.0647  0.0066  0.1489
23005W        W39853   4.208   0.404  11.333  0.0032  0.0120 -0.2007
23006W        W39854   8.706  13.064   0.604 -0.1163 -0.5358 -0.0843
23007W        W39855   9.916  15.181  14.093  0.0895  0.0388 -0.0617
23008W        W39856   1.076   6.266   4.753 -0.1462 -0.2833  0.0835
23009W        W39857   0.367   7.847  15.210 -0.0091 -0.1069  0.2039
23010W        W39858   0.607  14.078   5.444 -0.0296  0.0710 -0.0287
23011W        W39859  16.120   6.678   4.460 -0.1259  0.1137 -0.0719
23012W        W39860  17.228   1.205  14.102 -0.0040 -0.2128 -0.0650
23013W        W39861  14.613  17.735   3.619 -0.0765 -0.1461  0.0835
23014W        W39862   3.037  14.945   1.683 -0.2175 -0.0365  0.4151
23015W        W39863   1.696  10.576  15.192  0.1465  0.2066 -0.2251
23016W        W39864   2.532   8.034  12.475  0.0126 -0.1098  0.4672
23017W        W39865   6.231  10.550  15.927 -0.2957 -0.1982  0.0293
23018W        W39866   3.812   6.903  16.052  0.1250  0.1467  0.2804
23019W        W39867  12.360   0.986   2.551  0.2755  0.0799 -0.0518
23020W        W39868  11.260  14.816  15.256 -0.2587 -0.0726  0.1320
23021W        W39869   2.098   3.303  12.918  0.0163 -0.2649 -0.2340
23022W        W39870   5.584  12.365   1.815  0.1992  0.1492  0.1898
23023W        W39871   0.211  11.688  14.231  0.2572 -0.1482 -0.0152
23024W        W39872   3.870  16.153  14.707  0.1324  0.4071 -0.3311
23025W        W39873   7.329   7.587  13.191  0.0016 -0.3592  0.0649
23026W        W39874   8.987   7.221   1.757 -0.2029 -0.3038  0.0787
23027W        W39875  10.308   5.586   3.886 -0.3678 -0.5289 -0.2474
23028W        W39876   0.837  12.659   1.028  0.3711 -0.1225  0.1984
23029W        W39877   4.804  11.775  13.428  0.1063 -0.1447  0.1563
23030W        W39878   9.865  10.875  16.190 -0.4577 -0.3137 -0.2245
23031W        W39879  15.628   3.090  14.349  0.0272 -0.0171 -0.2423
23032W        W39880  11.056   4.177   0.088  0.1401  0.1161 -0.0170
23033W        W39881  16.102   9.485  13.754 -0.1797  0.0064 -0.0725
23034W        W39882   9.779   9.824  13.017  0.0563 -0.1929  0.1336
23035W        W39883  15.447   3.495  13.486  0.1207  0.1849  0.1189
23036W        W39884   9.173   7.997  10.660  0.3553 -0.1507  0.1804
23037W        W39885   2.890  10.857   1.776 -0.1004 -0.0052 -0.1555
23038W        W39886  17.763   5.818  12.954 -0.0065  0.3259  0.4238
23039W        W39887  14.996   9.637   3.794 -0.1704 -0.1453 -0.1921
23040W        W39888   8.501   6.244   3.487  0.0845  0.0842 -0.1289
23041W        W39889   2.150   8.687  14.875 -0.0372 -0.1989 -0.0448
23042W        W39890   3.822   0.683   3.779  0.4011 -0.2993  0.0951
23043W        W39891   2.122   6.572   3.973 -0.1175 -0.0948  0.0476
23044W        W39892  13.538  16.603  14.949 -0.2555  0.0016 -0.1888
23045W        W39893   0.444  17.610   0.014 -0.0194  0.1348  0.1494
23046W        W39894  13.558   3.181  13.029  0.0797 -0.0021 -0.0703
23047W        W39895   5.572   1.005  13.963 -0.3777  0.1515 -0.0726
23048W        W39896  17.730   2.028   5.536 -0.1029 -0.1030 -0.1682
23049W        W39897   7.488   3.490   1.760 -0.1439  0.0277 -0.0538
23050W        W39898  17.555   6.995   1.218  0.3628  0.0743  0.0380
23051W        W39899   6.878   4.742   9.771 -0.1055 -0.0970 -0.1830
23052W        W39900  11.617   3.201   1.055  0.2534 -0.1442 -0.1979
23053W        W39901   3.596  16.286  15.203  0.0939 -0.0839  0.0485
23054W        W39902   7.096   7.342   0.099  0.1035  0.0200 -0.2260
23055W        W39903   2.195  10.130  15.648 -0.0897 -0.0987 -0.1252
23056W        W39904   8.344  12.105  12.981  0.1626 -0.1423  0.0210
23057W        W39905   6.335   0.379  14.492  0.0207  0.0236 -0.2807
23058W        W39906  13.003  16.992  10.362  0.0339 -0.4017 -0.0903
23059W        W39907   1.504   2.960  16.046  0.3429 -0.2113 -0.0485
23060W        W39908  13.501  16.773  10.327  0.1752 -0.0467  0.0325
23061W        W39909   4.112  15.915   1.852 -0.0554 -0.0253  0.0891
23062W        W39910  10.199   0.570   4.124  0.1239 -0.2092 -0.0081
23063W        W39911  16.866   8.740   0.520  0.1084 -0.0020 -0.0269
23064W        W39912  16.488  17.616   0.569  0.1284 -0.0869 -0.1300
23065W        W39913   2.344  14.792   4.287 -0.1916 -0.3389 -0.1318
23066W        W39914  16.397   3.462   4.154  0.1088 -0.2076  0.2927
23067W        W39915   5.681   3.652   0.557  0.1098  0.0933 -0.0635
23068W        W39916   1.976  17.639  15.450 -0.1544 -0.2507 -0.1824
23069W        W39917  10.776   3.641   1.309 -0.1118 -0.3093  0.0375
23070W        W39918   0.928   9.103  13.582 -0.2280 -0.1010  0.3154
23071W        W39919   7.263  14.472  13.956 -0.1201 -0.0719 -0.0478
23072W        W39920  13.934   4.161   0.389  0.1011 -0.0774  0.1275
23073W        W39921  13.561   8.167  15.867 -0.2275  0.0265  0.0027
23074W        W39922   8.450   6.282   1.794 -0.2718  0.1301  0.2602
23075W        W39923   5.691  14.773  14.809  0.2446 -0.2124 -0.0804
23076W        W39924  17.120   5.215  12.942  0.3889 -0.2108 -0.0132
23077W        W39925   3.250   8.484  12.191  0.2967  0.0470  0.0822
23078W        W39926   8.174   4.558  11.447  0.2859  0.2339  0.4540
23079W        W39927   0.182   6.457   1.281  0.1696 -0.0679  0.0878
23080W        W39928  15.793  17.224   5.011 -0.0274  0.2334 -0.1291
23081W        W39929  12.841  16.784  15.607 -0.3268  0.0521 -0.1566
23082W        W39930   6.782  12.280  10.959  0.3394 -0.4580 -0.0799
23083W        W39931  15.247  12.309   0.056 -0.2801  0.0691  0.2154
23084W        W39932  16.065  13.709   4.713  0.1780 -0.3147 -0.0520
23085W        W39933   0.384   9.228  14.692  0.0681  0.0074 -0.1337
23086W        W39934   5.648   4.379   3.961  0.3887  0.1680  0.1430
23087W        W39935   3.930   8.325   1.932 -0.0814  0.1832  0.0615
23088W        W39936  10.504   7.960   2.940 -0.1788 -0.0999  0.0095
23089W        W39937   2.721   7.469   0.300 -0.0628 -0.1413 -0.1300
23090W        W39938   7.988  13.763   4.833  0.3212 -0.2903 -0.1214
23091W        W39939  12.263   1.216  11.193  0.1361  0.1853 -0.4157
23092W        W39940   7.927   0.661   3.688  0.0957 -0.1985  0.0678
23093W        W39941  15.763   2.900   0.676 -0.1153  0.0694 -0.0286
23094W        W39942   5.029   9.952  15.731 -0.2076 -0.0954 -0.0969
23095W        W39943   0.581   9.737  12.384 -0.1998  0.1996  0.1840
23096W        W39944  11.555  16.812   3.437  0.2850  0.1367  0.1161
23097W        W39945  17.949   0.167  12.652  0.2462 -0.1334  0.1668
23098W        W39946   3.161   9.445   0.999 -0.0845 -0.3037  0.1260
23099W        W39947  16.381  16.122   1.958 -0.1158 -0.0526  0.1293
23100W        W39948   7.284   2.555   5.233 -0.1581  0.0073 -0.0711
23101W        W39949  12.531   2.728   4.268  0.2821 -0.3230 -0.5245
23102W        W39950   5.801   1.858   3.250 -0.0914 -0.1926  0.1455
23103W        W39951   5.891   4.290  14.958 -0.1072  0.3022 -0.2149
23104W        W39952  13.483   6.896   3.919  0.0475  0.0901 -0.1682
23105W        W39953   4.669  13.652  15.798 -0.2360  0.1163 -0.3027
23106W        W39954   2.205   7.425  13.353  0.2044 -0.2909 -0.4041
23107W        W39955  16.554   4.437   0.483  0.0690  0.0169 -0.1871
23108W        W39956  14.317  14.465   0.309  0.1720 -0.1401 -0.0593
23109W        W39957   2.186   5.690  14.839  0.0837 -0.0539 -0.3853
23110W        W39958  14.345   0.693   5.481 -0.2450  0.1206 -0.0887
23111W        W39959   4.197  11.173  14.845 -0.2418  0.0064  0.0928
23112W        W39960  17.024  13.001  12.136  0.0423 -0.3174  0.2616
23113W        W39961   4.849  15.764   3.412 -0.0553 -0.1575  0.0465
23114W        W39962  17.588   1.270   3.750 -0.0086  0.1939  0.0043
23115W        W39963   3.381   8.541  14.313 -0.0527 -0.2348 -0.0849
23116W        W39964  11.926  16.639  11.711  0.1996 -0.0727  0.0845
23117W        W39965   0.895  13.315  15.153 -0.0609  0.0914  0.0735
23118W        W39966  13.085   1.070   0.898 -0.1137 -0.1727  0.1724
23119W        W39967  12.746  18.041   0.158 -0.0838  0.0516 -0.5499
23120W        W39968   0.164   5.041  15.164  0.2011  0.1139 -0.4666
23121W        W39969  15.138  13.579  14.205 -0.0529  0.0216  0.0696
23122W        W39970   5.188   5.486  15.715  0.3526  0.2653  0.0107
23123W        W39971   2.977  10.900   5.996  0.2747  0.4302 -0.0394
23124W        W39972  13.928   1.249  11.253  0.1148  0.2014 -0.0360
23125W        W39973   4.016  16.509   4.260  0.0119 -0.0551  0.0038
23126W        W39974   9.898   9.459   3.523 -0.0496  0.2724  0.0993
23127W        W39975  11.077  16.307   2.012  0.1387 -0.0177 -0.1607
23128W        W39976   3.147   8.513  15.623 -0.3615 -0.1585 -0.1447
23129W        W39977  10.162   9.441  16.029 -0.2677 -0.0310 -0.3070
23130W        W39978  13.565  15.900  11.286 -0.2459 -0.0495 -0.2099
23131W        W39979  15.360   0.496   0.461  0.0472 -0.2850 -0.2891
23132W        W39980   6.785  13.327  12.065  0.2871  0.1707  0.2521
23133W        W39981  14.627   8.372  10.970 -0.3521 -0.2704 -0.1497
23134W        W39982   9.441   5.063   2.700 -0.2570  0.3320 -0.2695
23135W        W39983   3.958  15.387  11.567 -0.1339 -0.0552 -0.0288
23136W        W39984  11.137  17.285  13.565 -0.1422  0.0188  0.0374
23137W        W39985   8.529  13.551  12.285 -0.0168  0.0494  0.2288
23138W        W39986   1.914   7.385  12.897  0.2267  0.0927 -0.1851
23139W        W39987  13.851  15.119  11.539  0.0677 -0.2242  0.0520
23140W        W39988   3.718  11.486  12.515 -0.0456 -0.1388 -0.2874
23141W        W39989   5.612  11.110   3.776  0.0308  0.3556  0.2749
23142W        W39990  14.599   9.326  13.269  0.3169 -0.0142 -0.0118
23143W        W39991  17.454   4.123  15.297  0.2304  0.1295  0.2171
23144W        W39992  15.414   6.151   3.593  0.0607 -0.1399 -0.0553
23145W        W39993   4.623   8.572   4.436 -0.2542 -0.4594 -0.2125
23146W        W39994   7.499  12.260   0.231  0.1581 -0.1009 -0.2354
23147W        W39995   2.168   3.675  13.849 -0.1967  0.0002  0.0295
23148W        W39996   6.496   0.665   1.081  0.0510  0.0248 -0.1050
23149W        W39997  17.725   9.914  11.330  0.1185 -0.3033  0.1688
23150W        W39998   5.641  12.537  15.081 -0.3440 -0.2654  0.2026
23151W        W39999  15.410   4.192  11.244 -0.1322  0.0895  0.1044
23152W        W40000   3.474  15.771   3.715 -0.1220  0.0275  0.1407
23153W        W40001   8.785  11.798   1.714  0.1982  0.0397  0.1712
23154W        W40002  12.533   2.321  11.532 -0.4214 -0.0248  0.1877
23155W        W40003   5.550   9.168  14.476 -0.1814  0.0797  0.0229
23156W        W40004   5.045  11.307  14.302  0.2637 -0.0497  0.0338
23157W        W40005  14.405   1.296  16.231  0.2063 -0.1085  0.2067
23158W        W40006  18.024  11.803  15.208 -0.1262 -0.0320  0.0321
23159W        W40007  16.016   3.427   3.140 -0.1608 -0.1214 -0.3428
23160W        W40008  10.589   8.602  13.751 -0.3203 -0.1517  0.3028
23161W        W40009   9.372   6.353   3.180 -0.4082 -0.0217  0.1020
23162W        W40010  12.483   0.596   4.738  0.3719  0.0706  0.2310
23163W        W40011  10.921   6.859   2.026  0.2942 -0.1574 -0.0861
23164W        W40012   9.126  16.213  15.376 -0.0868 -0.0395  0.1112
23165W        W40013   0.156  15.961   4.526  0.0455  0.0003 -0.1718
23166W        W40014   4.725   1.764  14.243 -0.1922 -0.3734 -0.1838
23167W        W40015  14.622   4.948  13.011  0.2465 -0.1185  0.1654
23168W        W40016  16.896  15.471  12.553  0.1910 -0.2234 -0.1632
23169W        W40017   2.294  13.267  11.491  0.1798  0.0421  0.1795
23170W        W40018   3.096   0.606   0.780 -0.1543 -0.0552 -0.3619
23171W        W40019  11.375   5.637   0.147 -0.0242  0.3447  0.0663
23172W        W40020   5.813   9.062   1.894 -0.1593  0.2014 -0.0307
23173W        W40021  13.737   3.560   0.778 -0.2621 -0.0573 -0.1056
23174W        W40022  12.932  10.266  14.245 -0.3803 -0.2432 -0.1906
23175W        W40023   3.899  17.287  14.878 -0.1960 -0.0791  0.1511
23176W        W40024   7.897   1.950   0.966 -0.0883  0.0006 -0.1244
23177W        W40025  10.176   2.388   6.124 -0.2259 -0.2772  0.1476
23178W        W40026   4.124  16.202  15.225  0.0269 -0.0897  0.0826
23179W        W40027   3.686  13.515  11.713  0.0594  0.4016  0.1624
23180W        W40028  13.208   7.663   4.746 -0.0047 -0.1886  0.0206
23181W        W40029   8.965   1.243  15.444 -0.0010 -0.0776 -0.0049
23182W        W40030   0.110  16.339  15.801  0.1165  0.2003 -0.4348
23183W        W40031   5.612   2.922  11.559 -0.0199  0.0332  0.3307
23184W        W40032   4.236   2.926  11.657 -0.0824  0.1083  0.1054
23185W        W40033   9.111   0.124  14.903  0.2191  0.2182 -0.3889
23186W        W40034  11.766   4.695  11.268 -0.0636 -0.0398  0.1133
23187W        W40035  17.315  12.656   1.561  0.0692 -0.0836  0.3210
23188W        W40036  16.884   1.940  15.014  0.1018 -0.5086 -0.0208
23189W        W40037  17.114  14.222   4.204 -0.2761  0.2818  0.1199
23190W        W40038   4.211   3.444  15.720  0.0681  0.2569 -0.1128
23191W        W40039  15.435  12.448  12.302 -0.1091 -0.2225 -0.1469
23192W        W40040   2.963   4.582   1.991 -0.3340 -0.1581 -0.1443
23193W        W40041   0.218   1.778  15.540  0.0310  0.1739  0.0243
23194W        W40042   8.592   8.209   2.109  0.3007  0.1325  0.0861
23195W        W40043  12.385  14.682  15.952 -0.1979 -0.0866  0.2672
23196W        W40044   5.273  14.155   2.836  0.1027 -0.1984 -0.1156
23197W        W40045   9.861   6.354   3.987 -0.1698  0.2249 -0.1153
23198W        W40046   0.863   7.013  15.038  0.1822  0.3848  0.0349
23199W        W40047  13.628   4.811  15.426 -0.1485  0.0729  0.1650
23200W        W40048   9.422  11.586  11.356 -0.1610 -0.0986  0.0543
23201W        W40049   8.443   0.566   0.508  0.0664 -0.1589 -0.2368
23202W        W40050  13.007   1.030   1.939 -0.0574 -0.1771  0.0513
23203W        W40051  18.067  13.293  15.678  0.1137  0.0189 -0.1230
23204W        W40052   2.923   8.991   2.224 -0.0297 -0.0551  0.0102
23205W        W40053  15.648   2.396  13.217 -0.4276 -0.0054 -0.2874
23206W        W40054   3.763   8.933  10.601  0.3486  0.1216 -0.4212
23207W        W40055  14.698  12.588   1.070 -0.0680 -0.0875 -0.0983
23208W        W40056  16.036   7.180   3.584 -0.1027 -0.1077 -0.0841
23209W        W40057   3.182   5.139  11.003  0.4625  0.0512  0.1538
23210W        W40058   8.330  17.358   3.494  0.0555  0.0427  0.0057
23211W        W40059   2.105   0.346  16.205 -0.2421 -0.0583 -0.0529
23212W        W40060   0.527  10.224   4.331  0.2044 -0.4376 -0.2416
23213W        W40061   4.511   2.624  15.431  0.1286  0.2893  0.3674
23214W        W40062   9.863  17.238  15.394  0.0832  0.0808  0.1242
23215W        W40063   8.364   1.422  14.812 -0.0384 -0.0454  0.1631
23216W        W40064   8.552   0.130   1.868  0.0907  0.0183 -0.1416
23217W        W40065  13.219  13.172  15.119 -0.0025 -0.1859  0.1135
23218W        W40066  12.252  12.472   3.732 -0.2735 -0.4329 -0.0576
23219W        W40067   1.358   0.722  11.728 -0.3160  0.2683 -0.1403
23220W        W40068   9.412  14.376  13.280  0.0253  0.1103 -0.1815
23221W        W40069   7.696   3.890  12.398  0.3950 -0.2493  0.0390
23222W        W40070   5.248  14.114   0.466 -0.1630 -0.2213 -0.4677
23223W        W40071   6.575   4.448  14.865  0.2628  0.0903  0.2524
23224W        W40072  10.140  10.542   3.443  0.1039 -0.0985 -0.1279
23225W        W40073  14.972   3.160   5.931 -0.1368  0.0079  0.3212
23226W        W40074  13.276   6.310  15.012  0.0597 -0.0799 -0.0564
23227W        W40075   2.089   0.063   4.748  0.0618  0.0642 -0.0772
23228W        W40076   3.015  17.244   0.580  0.0068  0.1654  0.1017
23229W        W40077   3.605   6.242   5.335  0.2971 -0.0078  0.0643
23230W        W40078  16.056  13.398  14.906 -0.0467  0.1609  0.1438
23231W        W40079  18.053   3.529   4.835  0.0023  0.2756  0.1085
23232W        W40080   8.500   0.740   0.990  0.0528  0.3630 -0.1324
23233W        W40081  13.643   0.329   4.707 -0.0358  0.2610  0.0085
23234W        W40082   2.923   1.975  14.486  0.3467  0.1677 -0.1808
23235W        W40083  14.896  13.906   4.016  0.0395  0.0792  0.2763
23236W        W40084  14.179   6.911  15.430 -0.0625 -0.1539 -0.1832
23237W        W40085   4.970   2.249  14.187  0.1787  0.1557 -0.0469
23238W        W40086   5.917  10.358  13.746 -0.2608  0.0061 -0.1941
23239W        W40087  17.829  17.379   2.598 -0.0844 -0.1472 -0.0002
23240W        W40088  11.810  15.318   5.272 -0.0482  0.3397  0.1535
23241W        W40089   2.338   6.909   1.521 -0.1885 -0.1633  0.0159
23242W        W40090   5.570  11.797  12.159  0.0680 -0.3201  0.0469
23243W        W40091   6.427  17.761   1.570  0.0691 -0.0162  0.2262
23244W        W40092   8.084  13.440   1.621 -0.2514  0.0311 -0.1251
23245W        W40093  15.785   1.479  12.694 -0.0465  0.1038 -0.0361
23246W        W40094   3.590  14.959   2.510 -0.1232  0.0552  0.1141
23247W        W40095  10.180  11.651   5.133 -0.1065  0.0753 -0.3128
23248W        W40096   0.049  10.077  14.306 -0.0934 -0.1493  0.1422
23249W        W40097   1.629   7.790   0.386  0.4045  0.1388 -0.0518
23250W        W40098  11.465   1.449  11.023 -0.0120 -0.0402  0.0602
23251W        W40099  10.933   4.016   3.177  0.1954 -0.0237  0.0316
23252W        W40100  15.895  14.395   2.293  0.2161 -0.4936 -0.0005
23253W        W40101   6.981  14.968  12.756  0.0093  0.1380 -0.0121
23254W        W40102  13.176  17.164   3.338  0.1268 -0.1381  0.1075
23255W        W40103  10.201  17.113  13.616  0.1485  0.3213  0.0084
23256W        W40104   8.735  13.951   2.219  0.1237  0.2620 -0.0442
23257W        W40105  14.787  13.571  12.054 -0.0089 -0.2976  0.0810
23258W        W40106  10.302  10.134   4.108  0.0750 -0.0947 -0.1188
23259W        W40107  15.149  16.488   1.581 -0.1648 -0.1922  0.2541
23260W        W40108   5.158  17.329   0.495 -0.1743 -0.0633 -0.1480
23261W        W40109   6.647  17.056  13.659  0.4156 -0.1271 -0.1479
23262W        W40110  11.527   0.810   1.030  0.0896  0.0756  0.4559
23263W        W40111  10.272   2.565  10.696 -0.1037  0.2486  0.0040
23264W        W40112  16.437  10.466  13.231 -0.1722 -0.0166 -0.4177
23265W        W40113   8.243   4.656  10.899 -0.0906  0.4967  0.1028
23266W        W40114   7.390   9.406  14.006  0.0464  0.1533  0.0628
23267W        W40115   8.969  13.409   0.369  0.2694  0.1357  0.0282
23268W        W40116   4.908   1.429   2.537 -0.4890  0.1033  0.3953
23269W        W40117   7.480  17.735   0.232 -0.0273 -0.1578 -0.2885
23270W        W40118   0.367   9.952  13.901 -0.2533  0.0284  0.2445
23271W        W40119  12.548   5.932   0.760 -0.0314 -0.0970 -0.3892
23272W        W40120   8.320   6.264   0.877 -0.0489  0.0595 -0.1266
23273W        W40121   3.438  11.043  12.308  0.0457  0.0668 -0.0884
23274W        W40122   1.667  15.592   3.490  0.1816 -0.1774 -0.0156
23275W        W40123   3.408   8.992   2.129  0.1913 -0.2036  0.2133
23276W        W40124  12.929  16.280   4.081 -0.0834 -0.0311  0.0227
23277W        W40125   3.230   8.832  11.412  0.3260 -0.1249 -0.3138
23278W        W40126  10.929   5.738   0.388  0.0916 -0.0698  0.0377
23279W        W40127   5.967  13.825   5.260 -0.2549 -0.0604  0.2656
23280W        W40128   7.823  17.271  15.353 -0.0692 -0.3628 -0.0699
23281W        W40129   7.233   3.568  12.430  0.1622  0.2819 -0.0984
23282W        W40130   8.551  13.933  15.110 -0.0180  0.0597 -0.0926
23283W        W40131  16.530  12.210   5.011 -0.1855  0.3019 -0.2247
23284W        W40132  10.614   3.172  12.766  0.1047 -0.0956 -0.1288
23285W        W40133  16.119  13.410  12.075 -0.2858  0.0703  0.1595
23286W        W40134  14.167  16.682   1.897 -0.2003 -0.0847 -0.0870
23287W        W40135   8.163   4.572   3.480 -0.4779 -0.0694  0.2949
23288W        W40136   5.103   2.238  11.471  0.0611 -0.0936 -0.0992
23289W        W40137   7.438   3.188  14.170  0.2631  0.3391  0.0232
23290W        W40138   4.910  12.816  16.179  0.0295  0.1532  0.1674
23291W        W40139   7.978  10.913   4.876 -0.1510  0.3005  0.0842
23292W        W40140  10.257   6.123   4.637 -0.0725 -0.0842  0.2288
23293W        W40141  17.690   7.869   0.061 -0.2582  0.2421 -0.0682
23294W        W40142  16.366   1.027  11.000 -0.0505 -0.2844  0.0344
23295W        W40143   7.698   7.360  12.776 -0.0604  0.0155 -0.2098
23296W        W40144   2.981  16.463  15.960 -0.0901 -0.1575  0.1422
23297W        W40145  15.196  11.547  14.856 -0.1136 -0.1061 -0.2215
23298W        W40146  11.310  14.358  10.926 -0.0283  0.0998 -0.0404
23299W        W40147   0.713  14.709  13.864  0.2828  0.1717 -0.0789
23300W        W40148   9.909   9.283   1.837 -0.3267  0.0185 -0.0366
23301W        W40149  16.569   3.219   0.819 -0.2373 -0.1734 -0.3838
23302W        W40150   5.497   5.721   5.845  0.2011 -0.0532  0.2028
23303W        W40151  11.222  14.821  15.765 -0.0681 -0.2801  0.2665
23304W        W40152   0.197  16.785  14.137 -0.0419  0.1555  0.0732
23305W        W40153   3.834  16.455   5.322 -0.2097  0.2504  0.1050
23306W        W40154   5.750   4.584  10.224 -0.1673 -0.0902 -0.0086
23307W        W40155   3.403   9.715  13.833 -0.1278 -0.0022 -0.2200
23308W        W40156  10.718  14.698  14.099  0.1799 -0.0444 -0.1112
23309W        W40157  16.786   7.664  13.442 -0.1558  0.1214  0.2188
23310W        W40158  17.874  13.799   2.779  0.1600  0.0535 -0.2056
23311W        W40159   8.721  17.845   4.666 -0.2407 -0.2306  0.0330
23312W        W40160   0.120  10.378  13.552  0.0855  0.5342 -0.3975
23313W        W40161  17.764  12.014  11.608 -0.1152  0.0694  0.2322
23314W        W40162   7.844  10.395   2.778 -0.0106 -0.3392  0.3003
23315W        W40163  14.902  14.457   2.057 -0.0755 -0.0303  0.1559
23316W        W40164  10.343   8.044   2.458  0.3796 -0.4559  0.0542
23317W        W40165   1.036  11.613   4.650  0.1047 -0.0772 -0.1225
23318W        W40166   0.140   2.098   4.722 -0.0853 -0.0292 -0.1774
23319W        W40167   8.411   9.880  13.810 -0.2920 -0.0428 -0.1370
23320W        W40168  12.144   0.288  14.327 -0.0241  0.0348 -0.0238
23321W        W40169  15.068   4.035  10.849  0.0208  0.2498  0.2411
23322W        W40170   4.805  10.486  12.657 -0.2884  0.5703  0.2954
23323W        W40171   3.384   6.920   1.148 -0.3820  0.0824 -0.3313
23324W        W40172   6.598   6.846  13.514  0.0981  0.2238  0.2639
23325W        W40173  17.707  16.221  14.143 -0.0558  0.0869  0.1920
23326W        W40174  17.663   6.781   5.490 -0.0975  0.1612  0.0278
23327W        W40175   1.919  10.016  11.480  0.0688  0.0717  0.0315
23328W        W40176   1.976  10.729  12.138 -0.3222 -0.2398 -0.2353
23329W        W40177  13.754   8.323  15.431  0.1858 -0.1067  0.0596
23330W        W40178   7.090   5.659   4.310 -0.0775  0.1329 -0.0259
23331W        W40179   0.974  11.257  15.985 -0.1028  0.0340 -0.1228
23332W        W40180  15.035  17.105   3.816 -0.2200  0.0343  0.1244
23333W        W40181   0.667  13.637   1.530 -0.0646 -0.3403  0.0746
23334W        W40182  17.556   9.821   0.596  0.0044  0.2273 -0.1347
23335W        W40183   3.831  10.673   0.848  0.2654 -0.0992  0.0943
23336W        W40184  11.539  16.354  14.759  0.0819 -0.1461  0.0587
23337W        W40185   5.936  15.054  12.588 -0.2309  0.1963 -0.5012
23338W        W40186  14.924   3.851  14.179 -0.0196 -0.2163  0.1239
23339W        W40187   3.782  13.560  15.539 -0.3885  0.0517 -0.2163
23340W        W40188  13.745  11.129   1.224 -0.1156 -0.0775  0.0348
23341W        W40189  14.808  11.506   0.198 -0.0232 -0.3463  0.2131
23342W        W40190  12.804   2.717   4.694 -0.2354 -0.2502  0.0701
23343W        W40191  10.476  10.382  13.133 -0.0502  0.0948 -0.0187
23344W        W40192   0.788   6.069   1.185  0.0050 -0.0394 -0.0535
23345W        W40193   2.246   7.524  14.703 -0.1045 -0.1544  0.0821
23346W        W40194  17.171  17.757   4.134 -0.1209  0.0635 -0.0082
23347W        W40195   8.838  15.290   3.756  0.1100  0.3360 -0.0041
23348W        W40196  13.024   8.531  12.517  0.3416  0.3408  0.2120
23349W        W40197   2.201  13.705   3.960  0.1379  0.1795  0.2598
23350W        W40198   8.900   7.023  14.847 -0.1091 -0.1733  0.0441
23351W        W40199  10.025   4.158   4.767 -0.1271  0.4668 -0.0131
23352W        W40200   9.978   1.273  11.450 -0.0098  0.1168  0.1297
23353W        W40201   7.459  16.715  13.167  0.4859 -0.0370  0.1160
23354W        W40202   5.749   0.529  13.475 -0.1575  0.0749  0.0517
23355W        W40203  14.001  17.772  14.974 -0.2151 -0.0853  0.0845
23356W        W40204   3.046   7.655  13.656 -0.1417 -0.3495 -0.1469
23357W        W40205   5.291   7.502   3.426  0.0482  0.0699 -0.1514
23358W        W40206  16.369   7.694  15.919 -0.4928 -0.0068 -0.2751
23359W        W40207   1.375   9.558   2.259 -0.1436  0.1082 -0.2544
23360W        W40208   8.006  16.860  14.395 -0.0721 -0.1004  0.0949
23361W        W40209   5.041   2.328   4.569  0.0763  0.1055  0.0888
23362W        W40210  16.389  16.215  14.236 -0.2728 -0.1506  0.1351
23363W        W40211   2.098   3.173  14.102  0.2116  0.0031  0.0212
23364W        W40212   7.939   4.962  11.641 -0.1641 -0.0640  0.1193
23365W        W40213  11.104   6.630  11.836  0.0842  0.0958  0.1855
23366W        W40214  17.214   5.134  15.215  0.1648  0.3998 -0.1632
23367W        W40215   3.339   0.442   2.551  0.1966 -0.1513 -0.1367
23368W        W40216  17.315  13.866  11.741 -0.1239 -0.0724 -0.2621
23369W        W40217  11.923  10.608   3.997  0.1041  0.0858 -0.0134
23370W        W40218   4.315   9.948   3.191  0.1342 -0.2594 -0.2459
23371W        W40219   6.870  14.192  12.244 -0.0006 -0.2165  0.1189
23372W        W40220  17.894  11.213  12.589  0.1807  0.0182  0.4526
23373W        W40221  16.385  17.954   5.156 -0.2426  0.3518 -0.2330
23374W        W40222   0.356  14.661   1.581  0.2388  0.0791 -0.0442
23375W        W40223  13.355  11.355  15.597 -0.0124 -0.1144  0.1937
23376W        W40224  16.540   7.480  15.435  0.2302  0.0318 -0.4040
23377W        W40225   9.577  12.558   0.409  0.2818 -0.0248 -0.0512
23378W        W40226   2.485  13.074   1.843 -0.2825  0.2008  0.2525
23379W        W40227  13.337   4.906  13.036  0.0054  0.2603 -0.0660
23380W        W40228   5.592   6.408  13.537  0.1930  0.3683 -0.1930
23381W        W40229  12.676   4.229  14.561 -0.0703  0.0887 -0.1434
23382W        W40230   2.415   6.370  15.258  0.2608  0.2936  0.0331
23383W        W40231  14.133  17.933   1.873  0.1610  0.2703 -0.1374
23384W        W40232  10.136   8.838  11.321  0.0858 -0.2811  0.2251
23385W        W40233  10.239  17.666  10.890  0.2161 -0.0450  0.0926
23386W        W40234  16.804  10.587   5.115  0.2588 -0.3171  0.1568
23387W        W40235  10.093   3.844   3.606 -0.1486  0.1254  0.1733
23388W        W40236   9.904   9.538   4.665 -0.2455  0.2194 -0.2762
23389W        W40237   5.203   5.678  12.179  0.2459  0.1952 -0.3630
23390W        W40238  14.369  17.081  14.843  0.2020  0.1931  0.4274
23391W        W40239  10.422   2.391   4.553 -0.1009  0.0557  0.1672
23392W        W40240   9.505   2.389   1.494  0.2066 -0.1691  0.3502
23393W        W40241   9.729  15.289  12.151 -0.0483  0.0305  0.0427
23394W        W40242   3.019  12.102  14.543 -0.2956  0.2459 -0.0738
23395W        W40243  15.224  16.870  15.748  0.0613  0.2825  0.2409
23396W        W40244  14.237  15.456   5.273 -0.2264  0.0252  0.0816
23397W        W40245  16.947  14.481  13.307 -0.0181  0.1906  0.0487
23398W        W40246  10.412   4.654   0.765  0.2641  0.0478 -0.0777
23399W        W40247   2.616   0.107  15.324  0.0443  0.2396 -0.0805
23400W        W40248  11.345   8.751  11.179 -0.1592  0.1708  0.3091
23401W        W40249   4.953   0.583  11.766 -0.2615 -0.0073 -0.1163
23402W        W40250   5.490   2.259   3.209  0.2331  0.4883 -0.0160
23403W        W40251  12.906   4.130  15.018  0.0127  0.0408 -0.2250
23404W        W40252  14.930   6.535  13.496 -0.2531  0.2713  0.0022
23405W        W40253   6.440   3.986  15.983  0.0378 -0.1300  0.1527
23406W        W40254  13.318  13.321  16.321 -0.1333  0.3732 -0.1761
23407W        W40255  11.170  17.599   4.857 -0.0765  0.1706 -0.0170
23408W        W40256  13.879  10.408  14.285  0.1943  0.3821 -0.1932
23409W        W40257   7.989   0.202   2.300  0.1018  0.3158  0.3724
23410W        W40258  16.722  15.992  15.242 -0.2137 -0.2077  0.0059
23411W        W40259   4.288  16.613   5.601 -0.1530  0.1035  0.1199
23412W        W40260  15.858  11.382   5.017  0.0071 -0.1759 -0.0228
23413W        W40261  15.525  14.884   4.926  0.4375 -0.0526  0.4722
23414W        W40262   8.894   0.328   4.128  0.3296 -0.1411 -0.1628
23415W        W40263  17.567   6.028  15.014 -0.1597  0.0690  0.0133
23416W        W40264   2.642   8.177   2.208  0.1142  0.2817 -0.0931
23417W        W40265   9.203   6.349  13.067  0.2024  0.2313  0.0540
23418W        W40266   1.763   8.962  11.710 -0.3145 -0.0821  0.3354
23419W        W40267   2.481  15.876   4.943  0.3196  0.2579  0.0698
23420W        W40268  15.856   1.564  16.302 -0.1179  0.1587 -0.0757
23421W        W40269  15.698   6.948   0.825 -0.0964 -0.1537  0.1602
23422W        W40270   9.206  14.599   0.369 -0.2457  0.1781  0.0516
23423W        W40271   8.555   4.507  12.339  0.0704  0.0813  0.0724
23424W        W40272   5.346   6.708  14.834  0.3097 -0.0868  0.1404
23425W        W40273  15.786  12.215  13.740  0.0881  0.1203 -0.1473
23426W        W40274  15.934   4.871  15.860  0.1854 -0.0661  0.3102
23427W        W40275   4.449  11.815   4.147 -0.1644  0.0624 -0.0017
23428W        W40276   1.330   4.057   3.407 -0.0900 -0.2272  0.2388
23429W        W40277  10.537   7.828  13.585 -0.1234  0.1135 -0.1406
23430W        W40278   5.190   5.019  15.101  0.0117  0.0769  0.2486
23431W        W40279   3.430   4.444  11.671  0.1173 -0.4876  0.2013
23432W        W40280   3.181  13.952   3.760  0.5456  0.1644  0.1919
23433W        W40281  16.907  10.560  12.025  0.0394  0.0926  0.0436
23434W        W40282  15.225   6.129  12.562  0.0419  0.0469 -0.1867
23435W        W40283   1.254  11.813   4.205 -0.3461 -0.0152  0.1028
23436W        W40284  15.379  13.230  12.833 -0.2050  0.1993 -0.0430
23437W        W40285  12.662  10.718   3.340 -0.0415 -0.0869  0.0687
23438W        W40286   0.532   2.920  12.336  0.1748 -0.3444 -0.2578
23439W        W40287   0.372   1.625   3.323 -0.0432  0.0690  0.1329
23440W        W40288   8.904  13.951   4.919 -0.3583 -0.1455 -0.0376
23441W        W40289  10.162   1.898   3.806 -0.0181  0.1158 -0.0937
23442W        W40290  10.305   1.062   4.836  0.0818 -0.0292 -0.1376
23443W        W40291  14.036   8.120   1.048 -0.0948 -0.4607 -0.0043
23444W        W40292   5.326  16.266   1.374  0.0698 -0.4215  0.2363
23445W        W40293   5.583  16.716   3.064 -0.0287  0.3629  0.0861
23446W        W40294   4.723  12.160   0.272  0.1153 -0.4682 -0.1623
23447W        W40295   1.419   5.852  11.472  0.0302  0.2778 -0.2683
23448W        W40296   6.474  15.873  11.446 -0.0039 -0.1633 -0.0936
23449W        W40297  13.746   3.093  15.768  0.1476 -0.1289  0.0862
23450W        W40298   0.095   6.763  11.687  0.1023  0.2678  0.2096
23451W        W40299  16.967   9.791  16.135 -0.0043  0.2091 -0.0948
23452W        W40300  13.535   9.116   2.097 -0.1134  0.2625  0.1556
23453W        W40301   4.638  12.491  14.918 -0.0737  0.1340  0.1726
23454W        W40302  12.608   3.612   2.105 -0.2194 -0.0031 -0.1692
23455W        W40303   9.778   3.827  13.599  0.1167 -0.1134 -0.1919
23456W        W40304   7.315   6.877   2.444  0.4148  0.2440 -0.1440
23457W        W40305   8.744  10.170  14.138  0.1916 -0.1819 -0.0487
23458W        W40306  12.868  17.116   4.668  0.3986  0.1566  0.1821
23459W        W40307   2.019   1.476   0.077 -0.0777  0.0362 -0.0435
23460W        W40308  12.667   9.205  14.166 -0.0579 -0.1070 -0.2132
23461W        W40309   5.635   9.962   2.221  0.0855 -0.0141  0.0946
23462W        W40310   0.569  10.229  12.337 -0.0429  0.0042 -0.0176
23463W        W40311   3.073   5.041   3.351 -0.0814 -0.1810  0.2560
23464W        W40312  10.861   9.617  13.731  0.0505 -0.1638 -0.1291
23465W        W40313  16.206   0.877   4.907  0.1053  0.2684  0.0899
23466W        W40314  16.574   7.687  11.785 -0.2524 -0.1949 -0.3684
23467W        W40315  10.831   9.967   1.022  0.2397 -0.3254  0.1675
23468W        W40316   9.785   1.025  14.965 -0.4256  0.1600 -0.0069
23469W        W40317  10.087   4.070  14.541 -0.2721  0.4326  0.1086
23470W        W40318  15.819   5.976   3.368 -0.0631  0.1010  0.0507
23471W        W40319  12.204   6.880  12.537  0.2816 -0.4112 -0.0920
23472W        W40320   0.518  15.104  13.578  0.0033  0.1051  0.4122
23473W        W40321   7.506   6.338  12.385 -0.0815 -0.3553  0.0607
23474W        W40322  17.903   7.396   1.164  0.3117 -0.1594 -0.2787
23475W        W40323   5.536   8.671  14.527  0.0144 -0.0446  0.0687
23476W        W40324   7.093   8.979  15.168  0.1285  0.3535 -0.1296
23477W        W40325  15.989  18.015   3.571  0.0352 -0.0169 -0.0808
23478W        W40326   8.547  16.043  13.349  0.0418  0.2182  0.1468
23479W        W40327   0.294  11.548   1.292  0.0291  0.0127  0.0934
23480W        W40328   2.432   5.527  16.195 -0.4602 -0.0277 -0.0940
23481W        W40329  17.692   1.876   3.105  0.0419  0.0417  0.1822
23482W        W40330   3.894  17.125  15.393  0.0655  0.1924  0.2128
23483W        W40331   4.934  10.950  12.749  0.1619  0.1164 -0.0917
23484W        W40332   2.933  16.565   0.400  0.0555 -0.3556  0.0847
23485W        W40333  10.841  17.588   4.334  0.0176 -0.1418 -0.0646
23486W        W40334  15.727  15.146  12.067  0.0237  0.1063 -0.0408
23487W        W40335  11.803   0.035  14.523  0.1052 -0.1092  0.2718
23488W        W40336   5.726   2.686   1.139 -0.0487  0.0658 -0.2775
23489W        W40337  12.636  14.474  14.145  0.0336  0.0786  0.1282
23490W        W40338   7.287   0.691   3.430 -0.3132  0.1045  0.1341
23491W        W40339  10.671   1.946   1.441  0.1745  0.2549  0.1590
23492W        W40340   4.939  10.422  13.532  0.0466  0.1064 -0.0562
23493W        W40341  17.692  17.333  13.329  0.3146 -0.0350 -0.2500
23494W        W40342  14.543  12.929   0.323 -0.0659 -0.1711  0.1756
23495W        W40343   8.551   2.889   1.569 -0.1039  0.0661  0.1447
23496W        W40344  14.467   3.938  14.002  0.0856  0.1198 -0.2040
23497W        W40345   2.194   7.254  11.367  0.1422  0.0487  0.1335
23498W        W40346  14.263  14.544  15.251  0.0011 -0.0479  0.0737
23499W        W40347   3.541   3.834   2.966  0.1688  0.3101 -0.1636
23500W        W40348   7.851  13.137   1.991  0.1726 -0.1047 -0.1054
23501W        W40349  13.739   7.433   5.108  0.0972 -0.0846  0.1054
23502W        W40350  14.918  13.363  13.734 -0.2763  0.0500 -0.2325
23503W        W40351   1.723  10.990   2.517  0.2009 -0.0387  0.1134
23504W        W40352  12.642   6.951   0.780  0.0602 -0.0519 -0.2482
23505W        W40353  13.094   7.826  14.991  0.0491 -0.0373  0.0858
23506W        W40354   7.786  11.758   1.019  0.0799  0.4713 -0.0602
23507W        W40355  16.992  15.493   2.461 -0.0740  0.1784 -0.3250
23508W        W40356  11.030   1.684   0.549  0.3707 -0.1073  0.0921
23509W        W40357  15.889   3.672  11.769 -0.2947  0.0771 -0.0526
23510W        W40358  12.435   3.358  13.837 -0.0299  0.2628  0.3837
23511W        W40359   6.603  12.139  15.034  0.0520  0.3482  0.0192
23512W        W40360   0.431  17.564   3.721 -0.3196  0.0367  0.1963
23513W        W40361  12.167   5.875  14.873  0.0584 -0.2871  0.1226
23514W        W40362  11.781  10.572   2.367 -0.1404  0.1947  0.0482
23515W        W40363  16.724  14.902  14.877  0.0832  0.0607  0.3741
23516W        W40364  11.179  11.303  16.230 -0.4059 -0.2125 -0.0991
23517W        W40365   2.249   5.394   4.896  0.0185  0.0052 -0.2142
23518W        W40366   5.070   6.782  12.995  0.1706  0.0231 -0.3107
23519W        W40367  17.041  10.297  13.889 -0.1957 -0.1201  0.3051
23520W        W40368  17.959  10.060   0.314 -0.0150  0.0451  0.0856
23521W        W40369  16.611  11.093  13.870 -0.0124 -0.1734  0.0619
23522W        W40370   8.002   8.111   0.758 -0.4095  0.5990 -0.0860
23523W        W40371   6.509   6.933  11.946 -0.2210 -0.3548 -0.1778
23524W        W40372   0.120  13.214  12.590 -0.2065  0.3097  0.0587
23525W        W40373   8.320   3.503   5.808 -0.0160  0.2005 -0.1370
23526W        W40374  11.391  11.886   4.753 -0.1094  0.2399 -0.1889
23527W        W40375   7.290   4.069   0.452  0.0256 -0.1354  0.2185
23528W        W40376  15.667   9.598   0.386 -0.3446 -0.0692  0.0364
23529W        W40377   9.341  14.269  15.637 -0.1537  0.1615 -0.1003
23530W        W40378   8.941   1.093   0.964 -0.2170 -0.2344  0.4018
23531W        W40379   6.099  16.070   5.355  0.2433 -0.1496 -0.2626
23532W        W40380   3.074   6.974  15.674  0.0325  0.0404  0.0082
23533W        W40381   5.852   0.562   3.635 -0.0185  0.1074  0.2170
23534W        W40382   8.835   8.488   2.680 -0.1849 -0.0879 -0.1035
23535W        W40383   7.708   7.335   0.600  0.0021 -0.1395 -0.2203
23536W        W40384  15.621  10.698  13.284 -0.2410 -0.2125 -0.1729
23537W        W40385   3.370   7.849  12.845  0.0603  0.0155 -0.1523
23538W        W40386   3.076   2.011   0.957  0.0436 -0.0308 -0.1187
23539W        W40387  10.904  17.090   4.020  0.3879  0.0742 -0.2018
23540W        W40388   2.443   1.100  12.486  0.0096 -0.0481  0.2448
23541W        W40389   0.202   9.063   3.585 -0.0558 -0.0088  0.2209
23542W        W40390   1.796  10.641  16.209 -0.0138  0.2547  0.2118
23543W        W40391   2.209   6.410   1.477 -0.0753  0.1791 -0.4623
23544W        W40392  11.533  16.388   3.171 -0.3119 -0.0581  0.0935
23545W        W40393  11.746  13.154   5.715 -0.1327 -0.2846  0.0071
23546W        W40394   0.098  13.955  12.092 -0.0888 -0.4715  0.0516
23547W        W40395  14.610   2.125  10.863  0.1055 -0.0387  0.0931
23548W        W40396   7.412  12.466  13.043  0.0461  0.0427  0.2398
23549W        W40397   7.594   2.581   3.461  0.2525 -0.2806 -0.0595
23550W        W40398   4.748   9.482   4.060 -0.1381  0.0230  0.0488
23551W        W40399   9.500   3.626  14.031  0.1119 -0.1726  0.2396
23552W        W40400  13.856   6.880   2.757  0.0081 -0.2134 -0.2333
23553W        W40401   5.215  17.087  12.492  0.0878  0.1888 -0.0108
23554W        W40402   6.689   7.295   2.070 -0.4541 -0.0204 -0.0242
23555W        W40403  16.354  16.445   4.404  0.0232  0.1002  0.1005
23556W        W40404  18.032   3.389   1.837 -0.0640  0.2373  0.1462
23557W        W40405   5.189   1.847  14.417 -0.1309 -0.4148  0.0329
23558W        W40406   4.472  17.549   4.141  0.0027  0.0660  0.1606
23559W        W40407  10.324   3.010   3.033 -0.2284 -0.2868  0.1879
23560W        W40408   4.947   1.911   4.260 -0.0487  0.2449 -0.0403
23561W        W40409  13.476  10.359   3.772 -0.1341  0.0407  0.0084
23562W        W40410  14.775   8.392  14.511  0.0750 -0.1752 -0.3246
23563W        W40411   5.242   0.710   1.082 -0.4078  0.5014  0.5174
23564W        W40412   7.719  11.842  12.027  0.1540 -0.0333  0.1721
23565W        W40413   8.795  14.526  15.050  0.4252 -0.1126  0.0317
23566W        W40414   6.895  10.251   0.196  0.0510 -0.0120  0.1005
23567W        W40415   4.057  12.627   1.535  0.1777  0.2860  0.0367
23568W        W40416   6.352   7.887  16.048 -0.4396  0.0087 -0.0111
23569W        W40417  16.908   9.707  12.031 -0.0871 -0.4696 -0.3192
23570W        W40418  11.853   2.791   1.233  0.0132 -0.3467 -0.2781
23571W        W40419   3.666  10.278  11.706 -0.2659  0.1969 -0.1626
23572W        W40420  12.233  12.840  12.739  0.1624  0.0279 -0.1736
23573W        W40421   8.860  13.440  10.441 -0.2594  0.0791 -0.0416
23574W        W40422  14.528   3.355  13.204  0.2021 -0.0735 -0.2064
23575W        W40423  13.068  10.125   3.603  0.0720  0.3147 -0.1674
23576W        W40424   3.801  11.924   0.042 -0.1317  0.3915 -0.0330
23577W        W40425   9.881   6.990  14.435 -0.1423  0.1401 -0.1643
23578W        W40426   6.976   5.287   2.265  0.0018  0.0616 -0.1152
23579W        W40427   5.742  12.794   0.329  0.1869  0.0881  0.2006
23580W        W40428  15.191  16.480   4.288 -0.1723 -0.0922 -0.1046
23581W        W40429   3.503   6.007   2.752  0.0229 -0.0375 -0.0046
23582W        W40430  17.431  13.318  11.973  0.1793  0.2715 -0.0272
23583W        W40431  14.494   8.010   4.841 -0.2108 -0.1831  0.2580
23584W        W40432  10.803  15.019  10.425  0.1577  0.3124  0.2384
23585W        W40433  14.297  17.418   0.204 -0.0488 -0.2102 -0.0765
23586W        W40434  11.724  13.628  14.174 -0.2535  0.1228  0.0866
23587W        W40435  11.320   8.448  12.719 -0.1292 -0.3075 -0.2090
23588W        W40436  14.417   0.442  10.943  0.0635 -0.0682  0.0948
23589W        W40437   0.284   1.096   2.953  0.1554 -0.1139 -0.3602
23590W        W40438  15.530   9.654  14.680  0.0686 -0.1392  0.0224
23591W        W40439   9.094   4.893   3.092  0.0301 -0.2327  0.1237
23592W        W40440  16.243  13.607   3.348 -0.0555 -0.0622  0.1213
23593W        W40441  12.539  15.591   1.092  0.1357 -0.2025  0.1150
23594W        W40442   8.928  13.982   6.512 -0.2081  0.0885 -0.1974
23595W        W40443  17.349  15.894  14.113  0.0010  0.0219  0.3087
23596W        W40444  15.133   4.245  11.844 -0.0387  0.3802 -0.1829
23597W        W40445   9.411  17.152   0.062 -0.0800  0.0915  0.2003
23598W        W40446   2.126  14.250   4.092  0.0012 -0.2688  0.3230
23599W        W40447   4.346  11.536  13.558 -0.3008  0.0289  0.0796
23600W        W40448   7.889  11.160  15.574  0.0303  0.0471  0.0106
23601W        W40449  17.700   4.815  15.962 -0.2022 -0.1178 -0.2313
23602W        W40450   6.533   4.428  12.917 -0.0153  0.0513  0.4574
23603W        W40451   4.517  15.986   2.421  0.0290 -0.2543  0.1292
23604W        W40452   4.524  11.902   2.309  0.2345  0.0212 -0.3128
23605W        W40453   0.593  16.195  16.011  0.3456  0.1002 -0.0001
23606W        W40454   3.097   3.392  14.743 -0.0058 -0.0303 -0.2354
23607W        W40455  10.060  10.034   4.638  0.1605 -0.2047 -0.1526
23608W        W40456  13.306   4.205   1.031  0.3680 -0.2717 -0.1290
23609W        W40457   4.268   5.690   2.287  0.0756  0.2817  0.0815
23610W        W40458   7.093   6.755  15.656  0.3223  0.1653  0.0112
23611W        W40459   0.212   4.307  14.219  0.2020 -0.1033  0.2762
23612W        W40460   5.937  10.607  11.727  0.2135  0.3509  0.0496
23613W        W40461  15.614  10.887   3.762  0.1885 -0.3094 -0.0155
23614W        W40462   1.304  16.945   2.526 -0.0233 -0.0358  0.1854
23615W        W40463   9.984  15.596  15.657 -0.2394 -0.2355  0.3826
23616W        W40464  14.895  16.901  14.879  0.0454  0.0535  0.3254
23617W        W40465   0.732  16.702   0.187  0.0976  0.2577  0.1143
23618W        W40466  11.601  17.692   6.224  0.1111  0.3727  0.0721
23619W        W40467   7.967  15.299  15.274  0.4595 -0.1503 -0.0893
23620W        W40468  17.997  11.703  12.498  0.4239 -0.0410 -0.0660
23621W        W40469  11.728   3.430   2.025  0.3186 -0.0516 -0.1982
23622W        W40470  17.435   0.407  14.755 -0.2958 -0.0238 -0.3130
23623W        W40471   8.589   3.620   1.186  0.2509  0.2133  0.0218
23624W        W40472  13.586  13.811   0.280  0.0470 -0.1315  0.0825
23625W        W40473  14.604   6.299   3.928  0.0876  0.0325  0.1047
23626W        W40474   0.297  15.696   1.450 -0.0302 -0.3323 -0.0293
23627W        W40475   2.101  17.272  15.115  0.0455  0.2373 -0.3799
23628W        W40476  12.453   3.608   4.332  0.2239  0.0412 -0.2196
23629W        W40477   6.435   8.291  11.063 -0.1358 -0.0454  0.3686
23630W        W40478   4.547  12.456   1.528 -0.0816  0.0994  0.2095
23631W        W40479  10.778  15.190  12.162  0.0260  0.1493 -0.2022
23632W        W40480  14.730   1.645  16.079 -0.5384 -0.1974 -0.3736
23633W        W40481   8.030   3.201   4.342  0.1173 -0.3339 -0.1150
23634W        W40482  11.263  10.068   3.245 -0.2262  0.0037  0.2903
23635W        W40483  11.611   8.808   6.076  0.1083  0.1314  0.1083
23636W        W40484  17.219  13.989   2.133  0.0283  0.1223 -0.1946
23637W        W40485   7.159  15.735  12.163 -0.1220 -0.4057  0.2521
23638W        W40486   7.893   6.811   0.579  0.0611 -0.4020 -0.4137
23639W        W40487   2.284   1.022   0.113  0.0765  0.0209  0.1883
23640W        W40488  14.347   9.459   1.061 -0.1928 -0.0743 -0.1911
23641W        W40489   1.329   7.855  14.931 -0.1386  0.1827  0.2222
23642W        W40490  10.210  17.093  14.120  0.0922 -0.0166 -0.3100
23643W        W40491  13.129   3.339   1.475  0.0799 -0.1798  0.1123
23644W        W40492   0.938  13.349   4.038 -0.1262  0.1124  0.2904
23645W        W40493   1.245   0.714   4.809 -0.1331  0.0653  0.1220
23646W        W40494  16.723   9.161   0.260 -0.4242  0.0249  0.1761
23647W        W40495   6.853   0.655   2.043  0.2178  0.0283 -0.1574
23648W        W40496  10.148  14.062  14.820 -0.2824  0.3219  0.2209
23649W        W40497   8.550   9.379  12.138 -0.2205 -0.0709 -0.4294
23650W        W40498  12.895  10.047   2.611  0.1335 -0.0501  0.0681
23651W        W40499  14.918  17.714   1.805 -0.1332 -0.0921 -0.2130
23652W        W40500  15.393   4.245   4.640  0.1598  0.3042 -0.2362
23653W        W40501  13.127   5.677  13.453 -0.3359 -0.1868 -0.0780
23654W        W40502   5.858  13.476   4.332 -0.1339 -0.2917 -0.0343
23655W        W40503   6.070  16.129  12.518 -0.1005  0.0898  0.1412
23656W        W40504   9.919  15.724   5.929  0.1684  0.0315  0.0050
23657W        W40505  11.296  14.725   4.170  0.0523  0.1032  0.1935
23658W        W40506  11.245   9.099   1.247  0.0268  0.3231  0.2002
23659W        W40507   1.189   7.893  13.249 -0.1960 -0.0234 -0.0895
23660W        W40508  14.296   2.001  15.411 -0.0920 -0.1993  0.0054
23661W        W40509   0.563  12.729  11.857 -0.1679 -0.0024 -0.0554
23662W        W40510  12.330  10.093  14.077 -0.1632 -0.1143 -0.1593
23663W        W40511  14.757   6.525  16.131  0.1067 -0.2594  0.3333
23664W        W40512   9.680   9.591  16.212 -0.0227 -0.0427 -0.2488
23665W        W40513   6.391   0.714  16.016  0.2131 -0.1687  0.0603
23666W        W40514   2.884  15.044  12.174  0.0674  0.0470  0.0687
23667W        W40515  16.569  13.030  14.550  0.1435 -0.0877 -0.1463
23668W        W40516   9.322   6.050   0.286  0.1562 -0.0282  0.0070
23669W        W40517  17.046   3.281   3.073 -0.1637  0.1155 -0.0313
23670W        W40518  16.825  17.659  12.761  0.1924  0.0350  0.0775
23671W        W40519   3.091   0.903   1.857 -0.0676  0.0019 -0.1185
23672W        W40520  12.213  13.637   3.791 -0.1357  0.0002 -0.2534
23673W        W40521   5.342   3.914  13.659 -0.4348 -0.0311 -0.0426
23674W        W40522   0.486  14.287   4.070  0.1584  0.1229  0.2045
23675W        W40523   2.158   0.949  13.761  0.2999 -0.2888  0.2798
23676W        W40524   0.680  15.759   4.473 -0.1694  0.2060 -0.0168
23677W        W40525  13.100   9.369  15.828 -0.1410  0.0154 -0.0700
23678W        W40526   2.080   1.772  16.011 -0.2865 -0.0016  0.0656
23679W        W40527   1.913   3.991  11.978  0.3661  0.1589 -0.0437
23680W        W40528   3.178  16.639  13.216  0.0497 -0.2263  0.0704
23681W        W40529  11.440   1.353  12.275  0.1036 -0.0119 -0.1062
23682W        W40530  15.706   1.027   1.287 -0.0923 -0.2466 -0.1876
23683W        W40531  16.398  18.089  12.625 -0.2315 -0.1242 -0.2170
23684W        W40532   1.581   9.811  14.166 -0.1199 -0.1301  0.2935
23685W        W40533   5.212   4.545   5.106 -0.4646  0.1947 -0.2795
23686W        W40534   9.261   8.593   1.837 -0.0362 -0.0234 -0.0493
23687W        W40535  12.117   6.180  16.208 -0.1652 -0.2359  0.1161
23688W        W40536   6.741   7.825   0.106 -0.0471 -0.2404 -0.1684
23689W        W40537  10.876   8.484   1.255 -0.0299  0.3137 -0.1767
23690W        W40538   5.867   7.187   0.685  0.0720  0.2515  0.0663
23691W        W40539   5.177  17.876  15.699  0.1067 -0.1509 -0.3822
23692W        W40540  13.420  12.010   5.558  0.1079 -0.1650  0.1156
23693W        W40541   8.809  10.736  14.981 -0.0368 -0.1035 -0.1379
23694W        W40542   6.336   4.705   4.689  0.1103  0.0361  0.2228
23695W        W40543  11.251  12.069  11.655 -0.0723 -0.3369  0.0303
23696W        W40544  16.903  13.402  11.723 -0.1585 -0.1250  0.3439
23697W        W40545  16.912   0.073  12.565  0.3977 -0.0495  0.0136
23698W        W40546   5.727   4.833   0.996  0.1603  0.2278  0.3428
23699W        W40547   4.164   8.293  13.150 -0.1959 -0.1664  0.1435
23700W        W40548   7.078  10.150   4.633 -0.1701 -0.5193 -0.2084
23701W        W40549   5.833   7.614   4.580  0.2952 -0.3025 -0.0513
23702W        W40550   5.714  14.473  13.201 -0.2382 -0.0331 -0.0611
23703W        W40551   9.779   2.187   2.196  0.3242 -0.2063  0.0545
23704W        W40552  17.247   8.356   4.113  0.1092  0.1612  0.0597
23705W        W40553   2.507  13.256   4.906  0.1924 -0.0609 -0.0090
23706W        W40554  14.446  17.581   2.974 -0.1827 -0.3560 -0.0466
23707W        W40555   5.308   7.658  13.816  0.3065  0.2251 -0.0580
23708W        W40556   4.770   6.277   3.342 -0.0605  0.2167  0.2442
23709W        W40557  13.707  10.393  11.333 -0.0001 -0.0348 -0.0209
23710W        W40558   5.218  10.883   4.597 -0.0384 -0.0067 -0.0530
23711W        W40559  13.008   2.468   2.272 -0.4036 -0.0742  0.1485
23712W        W40560  12.246  11.792  13.142  0.3346  0.5000 -0.0321
23713W        W40561   3.730   8.669   2.231 -0.1288  0.1093 -0.4409
23714W        W40562   7.045  17.817  15.270 -0.0733 -0.2470  0.0223
23715W        W40563  14.854  13.092   2.297  0.0591  0.1279 -0.0098
23716W        W40564   2.485   3.571  15.579 -0.1301 -0.0779 -0.0955
23717W        W40565   7.855  17.025  13.004 -0.0772 -0.1048 -0.0481
23718W        W40566  11.923   6.801   4.616 -0.2180 -0.0603 -0.0590
23719W        W40567   4.572   0.133   0.615 -0.2064  0.2322  0.2831
23720W        W40568  15.590   0.737  11.105 -0.0188 -0.1639 -0.0649
23721W        W40569   8.675   7.069   4.180  0.3409  0.1484 -0.0718
23722W        W40570  13.154   9.302  13.102  0.0468  0.3253  0.2600
23723W        W40571  15.702   2.559   3.117 -0.0496  0.0479 -0.2779
23724W        W40572  16.497   6.274   3.319 -0.2211 -0.1528  0.0390
23725W        W40573   7.454   8.790   3.454 -0.1314  0.1463  0.0473
23726W        W40574   2.396   9.354   0.535  0.0647  0.0618  0.3541
23727W        W40575   0.561  18.031  14.281 -0.0397 -0.0965 -0.0453
23728W        W40576  15.521   2.892   6.073  0.2699  0.1447 -0.1955
23729W        W40577  15.179  14.711  11.650 -0.1634 -0.1908  0.1264
23730W        W40578   4.419   7.220   0.035  0.0290 -0.0051  0.1534
23731W        W40579   9.670  11.196  15.891 -0.0727 -0.0491  0.0631
23732W        W40580  16.193  15.493  11.486 -0.0805  0.2203  0.0079
23733W        W40581   7.073  16.617   1.215 -0.0102 -0.2127 -0.0232
23734W        W40582   7.373   8.273   0.544  0.1066 -0.2569  0.0784
23735W        W40583  13.873   8.199  14.597  0.1338  0.1127  0.0711
23736W        W40584   0.718   9.709  15.632  0.0957  0.1965 -0.2870
23737W        W40585  17.381  12.568   6.128  0.1984 -0.0838  0.1563
23738W        W40586  14.294  11.107   3.961 -0.1334 -0.1821 -0.5823
23739W        W40587   4.450   7.161  13.804  0.0180  0.1310  0.2000
23740W        W40588   1.636   3.609  11.849  0.1302 -0.0074 -0.1489
23741W        W40589   2.437   0.839  14.704  0.0860  0.1387  0.1620
23742W        W40590   2.927   2.425   2.847 -0.0797 -0.0694 -0.0094
23743W        W40591   3.526  12.561   2.236  0.2157 -0.0370 -0.0525
23744W        W40592  14.250   5.411   5.174 -0.0329 -0.2366  0.0136
23745W        W40593  14.158  11.276  15.411  0.2885  0.4360 -0.5154
23746W        W40594   7.425  12.802   4.589 -0.0725 -0.0571 -0.4105
23747W        W40595   8.923  13.802   4.339 -0.1922  0.2107  0.2569
23748W        W40596  11.375  16.743   1.264  0.2271 -0.1243  0.0972
23749W        W40597   4.095  13.942  13.447  0.0534 -0.0046  0.2215
23750W        W40598   6.949   5.740  15.617 -0.2024 -0.0587  0.0675
23751W        W40599  13.221   2.076  12.097  0.0435  0.0346  0.0412
23752W        W40600   2.861   4.497  16.181  0.0721  0.0557 -0.1423
23753W        W40601   1.827  11.372  15.369  0.0001  0.0037  0.2023
23754W        W40602   5.203   8.880   3.058 -0.0952  0.1667 -0.1755
23755W        W40603   0.675  17.173  14.762  0.0672  0.1495  0.3308
23756W        W40604   3.330   4.687  15.080 -0.1470 -0.1243 -0.3402
23757W        W40605  16.391   0.009   2.552 -0.0484 -0.0109 -0.0167
23758W        W40606   5.867   9.547   3.775 -0.1249 -0.2377 -0.2059
23759W        W40607   5.953   8.463   0.918  0.0208 -0.1778 -0.3795
23760W        W40608   0.187  16.838   1.958 -0.1316 -0.0834  0.0612
23761W        W40609  12.816   6.666  15.002 -0.2305  0.0236 -0.2137
23762W        W40610   1.093   3.216  15.741 -0.4466  0.1645 -0.1047
23763W        W40611   4.756   8.159   3.578 -0.1501 -0.1451  0.2506
23764W        W40612  12.235  10.005   4.521  0.1569  0.0726  0.0629
23765W        W40613   1.790  18.010   5.151 -0.0911 -0.1321  0.0342
23766W        W40614   2.424  17.353   5.544 -0.1886  0.1054 -0.1193
23767W        W40615  12.527   2.769   1.978  0.0502  0.1781  0.0882
23768W        W40616   8.123   0.641   5.667  0.0855 -0.2582 -0.0317
23769W        W40617   0.324  13.475  14.281  0.0344  0.1240  0.0862
23770W        W40618   6.371  14.225   1.303 -0.2466  0.3311  0.1576
23771W        W40619   8.724   8.820   0.476 -0.0914  0.1774  0.2789
23772W        W40620   3.987   4.506  14.757  0.0526  0.1177 -0.3080
23773W        W40621  14.114   5.164  14.636 -0.1193 -0.0851  0.1332
23774W        W40622  13.945   6.936  14.974 -0.1134  0.0317  0.3039
23775W        W40623   2.110   0.245   4.225 -0.3077 -0.1123 -0.0626
23776W        W40624   8.553   2.869   0.360 -0.1138  0.0462  0.0258
23777W        W40625  13.686  12.357  14.501  0.0607 -0.0269  0.4084
23778W        W40626  15.424  17.075   5.891 -0.2993  0.0178 -0.3412
23779W        W40627   1.024   2.492   2.352 -0.0357 -0.0924  0.0788
23780W        W40628   1.314   5.299   1.549 -0.0331  0.1200 -0.2010
23781W        W40629  16.016   0.767  13.532 -0.0263 -0.1047  0.2115
23782W        W40630   5.268  10.049  11.970  0.1513  0.1719  0.1699
23783W        W40631   2.407  11.737  13.118  0.3184 -0.0221 -0.1690
23784W        W40632  12.306  14.587   3.599 -0.1606 -0.2155 -0.3859
23785W        W40633   8.370   1.414  11.365 -0.2142 -0.0746  0.0508
23786W        W40634   5.697  12.377   0.050 -0.2338  0.0993  0.1548
23787W        W40635   9.574   4.225  12.018 -0.0297 -0.2973 -0.0047
23788W        W40636  17.317  16.955  12.437 -0.2383  0.0216 -0.1004
23789W        W40637   7.806   1.230  13.461  0.0287 -0.0666  0.1728
23790W        W40638  15.393   2.134   3.042 -0.1738  0.2872 -0.0913
23791W        W40639  12.421  12.659  13.644 -0.2335 -0.1666 -0.0347
23792W        W40640  12.754   8.594   5.166 -0.2890 -0.2343 -0.2257
23793W        W40641  13.579   1.152  11.755 -0.5509 -0.2811  0.1645
23794W        W40642  16.798  16.782   1.609 -0.1859  0.0500 -0.1989
23795W        W40643   0.747  16.985   4.742  0.1088  0.1576  0.1632
23796W        W40644  14.648   9.093   0.296  0.4403 -0.0150  0.3247
23797W        W40645   9.058   8.855   4.722  0.0997  0.0330 -0.3127
23798W        W40646  13.624  15.082  15.956  0.0568 -0.0829 -0.2070
23799W        W40647  13.270   3.538   1.075  0.2422 -0.1105 -0.0246
23800W        W40648   5.883   6.708   0.798  0.1733  0.0755 -0.0258
23801W        W40649  13.027   3.589   4.670  0.2005 -0.3463 -0.0955
23802W        W40650   6.733   9.177  13.774  0.3331  0.2278  0.0897
23803W        W40651  13.720   5.570  13.610  0.2959 -0.1030  0.0941
23804W        W40652  15.010   6.723   1.546 -0.2272 -0.0522 -0.0728
23805W        W40653  13.020  15.151   4.489  0.0485  0.2003  0.1949
23806W        W40654  17.355   6.064  10.560  0.0361 -0.1913  0.3150
23807W        W40655  18.036  17.761  11.583  0.0693  0.0032 -0.2733
23808W        W40656   6.675   2.797   9.940  0.0038 -0.1285  0.0014
23809W        W40657   5.095  18.094  11.452 -0.2471  0.1022 -0.0247
23810W        W40658  15.088  17.902  13.043 -0.0385  0.4007 -0.2194
23811W        W40659   8.571   7.527  15.057  0.0355  0.1881  0.2593
23812W        W40660  13.914   1.868  13.240 -0.1209 -0.0214  0.0701
23813W        W40661   0.376   5.697  14.076  0.1289  0.3975  0.3484
23814W        W40662   8.856   7.365  16.132 -0.0345 -0.1635  0.0538
23815W        W40663   6.857   3.933  10.793 -0.0936  0.3658  0.0478
23816W        W40664   3.341  13.343   0.919 -0.2457  0.1999  0.0803
23817W        W40665  16.710  10.977  13.261  0.0710  0.2345  0.1189
23818W        W40666   6.297   1.956   5.970  0.0536 -0.0252  0.1400
23819W        W40667  16.429   9.898   4.819  0.0284 -0.2692  0.0769
23820W        W40668  14.174  12.160   5.134 -0.2836  0.3115 -0.1217
23821W        W40669  12.633   2.038  11.946 -0.0408 -0.0436  0.0693
23822W        W40670  11.747   8.079   3.774 -0.0921 -0.0438 -0.2227
23823W        W40671   6.436   7.725  13.967  0.2392 -0.3801 -0.2115
23824W        W40672   7.521   5.560   2.443  0.0143  0.0469  0.2813
23825W        W40673  15.749   4.599   4.537 -0.3735 -0.2424 -0.0080
23826W        W40674   3.607   8.761  13.406 -0.1912  0.0476  0.4804
23827W        W40675   1.346   9.379   4.356 -0.1209  0.0052  0.2650
23828W        W40676   2.887   6.462  11.244 -0.0121  0.1961  0.3501
23829W        W40677  14.125   5.936  14.297  0.3664 -0.1087 -0.1349
23830W        W40678  10.103   2.703   2.246 -0.0379 -0.3380 -0.0034
23831W        W40679  11.054  17.601   1.758 -0.2394  0.0325  0.2058
23832W        W40680   0.675   4.339   3.489 -0.0532  0.1811 -0.0164
23833W        W40681   2.553  16.249   4.597 -0.0917  0.0906 -0.0486
23834W        W40682   0.235   4.804   4.027 -0.4471  0.2794  0.1471
23835W        W40683  14.577   1.992  14.994 -0.3231  0.1346  0.2167
23836W        W40684  16.166   3.952  10.143 -0.2586 -0.3882  0.0263
23837W        W40685  13.666  17.211   4.038  0.2072  0.2552 -0.0653
23838W        W40686   4.572   3.839   0.219  0.0507 -0.2451 -0.0984
23839W        W40687   5.356  11.863   0.739  0.3345  0.1088 -0.0284
23840W        W40688  11.628  17.687  12.937  0.1386 -0.0510 -0.1341
23841W        W40689   1.353   2.422   4.277  0.1972  0.1189  0.3629
23842W        W40690   7.481  16.344  12.720 -0.2615 -0.0286 -0.1137
23843W        W40691  10.007  11.919  11.992 -0.0458  0.0998  0.2769
23844W        W40692  15.989   6.446   3.515 -0.3011 -0.1247  0.0185
23845W        W40693  17.077  11.726   2.751  0.0917  0.0118 -0.2286
23846W        W40694   2.008   1.029  14.880 -0.0515  0.2479 -0.0270
23847W        W40695  17.522  13.765  12.224  0.4010  0.2096 -0.0532
23848W        W40696  14.403   2.352  11.331 -0.1512  0.0731 -0.0574
23849W        W40697  15.457   2.385  10.968 -0.1570  0.0452  0.1034
23850W        W40698   2.386   4.812   2.753 -0.0750 -0.1288 -0.1402
23851W        W40699  10.303   0.888  14.748 -0.5814 -0.1103 -0.3237
23852W        W40700  11.120   3.471  12.203 -0.0354 -0.2916 -0.2281
23853W        W40701  13.524  12.928  13.825  0.2476  0.1281 -0.2105
23854W        W40702   1.579  14.147  14.634 -0.0117 -0.0441  0.5016
23855W        W40703   0.580   2.640   0.210  0.0723 -0.1945  0.6143
23856W        W40704  16.967  17.127   1.217  0.2588 -0.2119 -0.0592
23857W        W40705   4.791   8.053  11.341 -0.1583  0.1692 -0.2067
23858W        W40706  14.597   8.906  12.391 -0.0616  0.1461 -0.0130
23859W        W40707   5.004   9.997  13.971  0.1169 -0.0417  0.0524
23860W        W40708   7.589  14.218   4.147 -0.0820 -0.0222 -0.1279
23861W        W40709  10.943   3.611   1.791 -0.2234 -0.1260  0.0517
23862W        W40710   9.761   6.524  11.779  0.2742  0.1274 -0.1877
23863W        W40711  14.847   1.491  12.938 -0.3698 -0.0943 -0.0422
23864W        W40712   8.932  14.918  15.301 -0.0582  0.2556 -0.0613
23865W        W40713  10.096   9.982  16.095 -0.2899 -0.2536 -0.0287
23866W        W40714   6.286   8.821   0.772  0.2417  0.2154  0.1873
23867W        W40715  14.933  13.379  15.824 -0.2755  0.1014  0.0980
23868W        W40716   5.500  13.716   5.103 -0.0656  0.1867  0.0178
23869W        W40717  11.421   7.806  15.937 -0.0698  0.1865 -0.3724
23870W        W40718   1.701   0.208   4.512 -0.4137 -0.1280  0.1750
23871W        W40719   9.778  13.755   5.249  0.0995 -0.1070  0.0205
23872W        W40720   7.591  17.077   4.733 -0.1296  0.5294 -0.0959
23873W        W40721   5.812   1.448  15.697 -0.1521  0.2418  0.0441
23874W        W40722   2.301  13.498  12.790  0.1453 -0.0895 -0.1097
23875W        W40723  13.709   2.253  14.207 -0.1808  0.0757 -0.3328
23876W        W40724   6.624  13.253  13.916 -0.1662  0.0706 -0.0477
23877W        W40725   5.864  11.802   2.921 -0.1909  0.1567 -0.6189
23878W        W40726   4.077   2.286  15.770  0.0474 -0.1557  0.0791
23879W        W40727   4.652   1.647   2.206  0.2887  0.3205  0.0610
23880W        W40728   2.015   1.142  15.379 -0.1210 -0.2052 -0.5313
23881W        W40729   3.550  14.421   0.185  0.0308 -0.2728 -0.0803
23882W        W40730   0.209  13.191   2.217 -0.1187  0.3037  0.0230
23883W        W40731  16.159  10.407  14.329 -0.2990  0.2613 -0.0421
23884W        W40732   0.874   1.034   4.575 -0.2318  0.0188  0.0433
23885W        W40733  17.348  11.416   4.852 -0.0661  0.0751  0.1518
23886W        W40734   6.703   5.782   4.922 -0.0049 -0.0086 -0.1890
23887W        W40735  16.031   5.715  16.117  0.0531 -0.5091 -0.0279
23888W        W40736   2.747   9.052   0.767  0.0242 -0.0584 -0.1023
23889W        W40737  11.494   9.347   4.707  0.0171 -0.0527  0.0199
23890W        W40738  13.152   9.419   4.777 -0.0322  0.0356 -0.3345
23891W        W40739   1.924   6.798  11.401 -0.0514  0.0313 -0.0253
23892W        W40740   6.457   1.038  13.805 -0.3608 -0.0815 -0.1297
23893W        W40741  16.003   4.776  16.328 -0.0813 -0.2323  0.1789
23894W        W40742  13.452  16.511  15.557 -0.0460 -0.0015  0.4891
23895W        W40743  11.793  13.001   2.256 -0.3082  0.2869  0.0129
23896W        W40744   5.203   4.371  13.258  0.1924  0.5819  0.1599
23897W        W40745   9.101   4.839  14.615  0.2732 -0.1284 -0.2719
23898W        W40746  14.090   1.310   4.229 -0.0133  0.1506 -0.0249
23899W        W40747  16.533   7.905  15.175  0.2538  0.0089 -0.0879
23900W        W40748   0.331   1.323  15.478  0.2129 -0.1154  0.0116
23901W        W40749   7.599  14.128   0.504  0.0187 -0.0848 -0.3014
23902W        W40750  16.711  16.253  11.612 -0.0018 -0.3042 -0.3806
23903W        W40751   1.273   5.430  15.987  0.1811 -0.1405 -0.1460
23904W        W40752   0.921   4.806   2.316 -0.2427  0.0997 -0.1302
23905W        W40753  12.798   2.472   3.745 -0.0149  0.0658 -0.1715
23906W        W40754  17.328   2.137  15.606 -0.2608  0.0726 -0.3554
23907W        W40755  16.080  14.155   0.506  0.3769  0.1860 -0.2442
23908W        W40756  16.348   2.922  12.284 -0.0906  0.1241 -0.2421
23909W        W40757   5.430  11.978   3.421 -0.0619  0.0737  0.0790
23910W        W40758   7.439   9.311   1.152  0.1965  0.0123  0.2790
23911W        W40759   4.032   7.743  14.211 -0.0064 -0.3961 -0.0193
23912W        W40760  14.436   9.112   4.539 -0.0788 -0.0260 -0.0508
23913W        W40761  17.277   8.562  12.523 -0.1450 -0.2613 -0.4756
23914W        W40762  10.927  16.767  11.614 -0.1257  0.1431  0.1380
23915W        W40763   2.499  12.573  14.736  0.0772 -0.2581  0.1425
23916W        W40764   0.793  18.088   1.070 -0.0021 -0.2047 -0.0764
23917W        W40765  10.792   9.067   0.989 -0.0544  0.0142 -0.0000
23918W        W40766  11.180  16.105  16.281  0.1697 -0.0702 -0.0264
23919W        W40767   1.663   3.145   4.205  0.1410  0.1563 -0.1077
23920W        W40768  15.017   6.278   1.787  0.1343  0.6406 -0.2083
23921W        W40769   9.439   9.518  12.160 -0.1937  0.1624 -0.1464
23922W        W40770   9.950   4.966   2.837  0.0747 -0.4277  0.0867
23923W        W40771   4.193   8.106  14.564  0.0358 -0.2362 -0.3373
23924W        W40772   4.240   7.665   5.057  0.0546  0.1257  0.1413
23925W        W40773   7.928  13.644  14.182  0.2940 -0.2381 -0.1222
23926W        W40774   4.562  15.339  13.276 -0.1460 -0.3338 -0.3799
23927W        W40775  12.220  16.026   2.668 -0.1934 -0.0041  0.0103
23928W        W40776   7.449   9.836   1.883 -0.2477 -0.0256 -0.1259
23929W        W40777  14.091   0.188   0.458 -0.2995  0.0258 -0.2096
23930W        W40778   9.356   2.394  14.212 -0.2607 -0.1955 -0.1793
23931W        W40779   9.892  13.002   0.336  0.1537 -0.1968 -0.0209
23932W        W40780   2.907   2.472   4.249  0.1447  0.0067  0.0549
23933W        W40781  15.412   9.879   4.827 -0.0932 -0.0052 -0.2599
23934W        W40782   4.632  14.825   2.856  0.1481  0.1341 -0.2677
23935W        W40783   2.917  11.305   4.264 -0.3011  0.0643 -0.1378
23936W        W40784  11.269  15.560   3.410  0.0248 -0.3152 -0.1991
23937W        W40785   2.889   9.129  14.748  0.0178  0.3052  0.1884
23938W        W40786   7.605  11.534  12.838 -0.0105  0.0871  0.0956
23939W        W40787   5.070   5.623   0.193 -0.2393 -0.1937 -0.0304
23940W        W40788   1.105  14.373   4.848  0.4392  0.0898 -0.1814
23941W        W40789   8.595  12.723   1.666 -0.2487  0.0166 -0.3797
23942W        W40790  11.980   3.514   0.793 -0.2897  0.1438  0.1198
23943W        W40791  13.171   6.566   4.297  0.0489 -0.0254 -0.1250
23944W        W40792   0.247   5.473   1.612  0.0563  0.0835  0.3561
23945W        W40793  13.540   1.964  15.023  0.0529 -0.1593 -0.3343
23946W        W40794  11.966   4.561   3.405  0.2274 -0.2832 -0.0758
23947W        W40795   7.939  17.449  11.706  0.0943 -0.0255 -0.1652
23948W        W40796   3.358   2.721  13.878  0.2020 -0.3136 -0.0334
23949W        W40797   9.216  11.040  12.597 -0.0335  0.1062 -0.1400
23950W        W40798   1.340   5.705   2.206 -0.1039 -0.0915  0.0049
23951W        W40799   4.634   1.618   3.602  0.0011 -0.2132 -0.4185
23952W        W40800  14.633  10.958  13.291 -0.4324 -0.0788 -0.2791
23953W        W40801  15.436  12.057   1.085  0.0510  0.4908  0.1247
23954W        W40802  17.842  13.132  13.550  0.2438  0.2658  0.0550
23955W        W40803  12.098  11.985   1.932  0.0146  0.1550 -0.1492
23956W        W40804  17.919   6.373   0.150 -0.0179  0.1687  0.4718
23957W        W40805   4.870   6.286  13.923  0.2185  0.0725 -0.2072
23958W        W40806  11.968   7.733   4.063 -0.2228  0.2905  0.4389
23959W        W40807  17.853   0.692  12.581  0.0545  0.1835  0.0611
23960W        W40808   6.441   5.858  15.550 -0.0204 -0.0514 -0.0888
23961W        W40809   7.897   9.667  11.504  0.1471  0.3729 -0.1065
23962W        W40810   5.028   2.778   3.916 -0.0223  0.1686  0.0877
23963W        W40811  10.632  11.081  15.295  0.0310 -0.1168 -0.2751
23964W        W40812   3.757   2.024   2.714 -0.5494  0.2660 -0.0472
23965W        W40813   3.248  16.207   3.904 -0.0548 -0.1442  0.0692
23966W        W40814   6.325   1.974  13.897 -0.0560 -0.1116 -0.0926
23967W        W40815   9.417   4.068  11.494 -0.0071  0.0554 -0.0760
23968W        W40816  17.402   9.871  13.998  0.2613 -0.0164 -0.1363
23969W        W40817   9.234  13.975   2.170  0.0230  0.0582  0.0528
23970W        W40818   4.584  10.464   4.173 -0.2013  0.0241  0.2292
23971W        W40819  14.933   6.766   1.059  0.2219  0.0690  0.0667
23972W        W40820   4.169   9.419   3.946 -0.2802  0.1303 -0.0584
23973W        W40821   3.201  11.412  13.344 -0.1848  0.1080 -0.1541
23974W        W40822  16.145  14.239  14.576 -0.0848  0.0052 -0.0794
23975W        W40823  12.373   5.184  11.014  0.0051 -0.0195 -0.2044
23976W        W40824  10.751   5.671   2.616 -0.1091  0.1848 -0.1799
23977W        W40825   1.663  10.209  10.994  0.3505  0.0252 -0.0411
23978W        W40826   3.930   0.082   1.316 -0.0325 -0.0401  0.1004
23979W        W40827  13.180  14.811  14.612 -0.0739 -0.0720 -0.1030
23980W        W40828  17.327   3.350  14.965  0.3285  0.1874 -0.1139
23981W        W40829  16.121  14.054  13.118  0.2623 -0.1652  0.2718
23982W        W40830  14.300   7.955  11.939  0.0553 -0.0062 -0.0916
23983W        W40831  16.078   1.543   2.141  0.1447 -0.1041 -0.3331
23984W        W40832   3.993  10.644  14.892 -0.0246 -0.2805 -0.4699
23985W        W40833  11.490   6.477   3.127  0.0387 -0.1114  0.0297
23986W        W40834  11.318   4.622   1.961 -0.0450  0.1696  0.1016
23987W        W40835   3.845   5.305  14.114 -0.4316 -0.0794  0.2297
23988W        W40836  14.376   1.147   2.192  0.1016 -0.0059  0.3127
23989W        W40837  18.095   2.471  13.441 -0.0844  0.3318 -0.0349
23990W        W40838   1.463  12.219  13.108  0.0754 -0.1130  0.2512
23991W        W40839   3.650   9.878  13.374 -0.1103 -0.0072 -0.2426
23992W        W40840   4.519   6.919  15.784  0.2226  0.1080 -0.0123
23993W        W40841  15.596   6.140   4.352 -0.0595  0.2171  0.3186
23994W        W40842  12.950   4.077   4.628 -0.2975 -0.1369 -0.1732
23995W        W40843  13.706   5.622   1.340  0.1644  0.0487 -0.2838
23996W        W40844   0.898  17.985   2.152  0.3842  0.3362  0.2241
23997W        W40845   2.893  11.224  15.581  0.0989 -0.1698  0.3548
23998W        W40846   1.505   5.216   2.012  0.1111 -0.1815  0.0256
23999W        W40847   5.370  16.327  10.772  0.0991  0.3606  0.0037
24000W        W40848  16.102   8.188   1.083  0.0468  0.2748 -0.4440
24001W        W40849  15.288  17.327  12.193  0.1858 -0.1716  0.3149
24002W        W40850   6.228  11.435   0.832 -0.1771 -0.5443 -0.1269
24003W        W40851   7.142   7.491   2.751 -0.2401  0.1483  0.0449
24004W        W40852   0.824  11.490   4.143 -0.1093 -0.2741  0.0921
24005W        W40853   4.043   3.220   3.364 -0.0291 -0.2484  0.2107
24006W        W40854  17.544  11.781   1.572 -0.0701 -0.0814  0.1880
24007W        W40855  17.467   1.692  15.802  0.0883  0.1910  0.0712
24008W        W40856   8.852  11.512  15.814  0.0555  0.2710  0.1472
24009W        W40857  12.333   3.072   0.811 -0.0734 -0.1254 -0.0508
24010W        W40858  13.084  17.187  11.842 -0.0460  0.0213 -0.1559
24011W        W40859   0.373   4.097  15.318 -0.1248  0.0868  0.2367
24012W        W40860   3.408  17.556   4.649  0.2498  0.3060  0.2886
24013W        W40861  13.550  16.610   2.741 -0.0161  0.3167  0.2089
24014W        W40862  12.121   0.880  15.022  0.0623 -0.1334  0.0040
24015W        W40863   4.765   6.868   4.914 -0.3406 -0.1866 -0.0326
24016W        W40864   1.949   0.239  10.730 -0.1117 -0.1901  0.0273
24017W        W40865   1.827   2.963  15.133  0.1429  0.0128  0.0870
24018W        W40866  10.973   7.023   2.561  0.0369  0.0473 -0.0756
24019W        W40867   0.609   2.688   5.089 -0.0501 -0.0309  0.0166
24020W        W40868   7.865  16.011   0.815  0.0637  0.2916 -0.0308
24021W        W40869  10.729  13.135  14.992 -0.2356  0.1704  0.1162
24022W        W40870   6.905  12.129  12.986 -0.4155 -0.0018 -0.0332
24023W        W40871  14.494   3.820  12.193 -0.0081 -0.0430 -0.1482
24024W        W40872  12.243   1.155  12.031 -0.2108  0.1297 -0.0785
24025W        W40873   3.223  11.562   4.892 -0.3920 -0.1543 -0.2347
24026W        W40874  12.015   0.969   2.174  0.1878  0.0006 -0.0630
24027W        W40875   2.386   9.625  14.518 -0.2650 -0.1834  0.0811
24028W        W40876  14.224   7.185   2.418 -0.2594  0.2928  0.1628
24029W        W40877   4.576  10.829  11.084 -0.2077  0.1178 -0.0869
24030W        W40878  11.600  15.594  13.431 -0.2394 -0.1336  0.1447
24031W        W40879   6.234  11.379  14.560  0.1499 -0.1416  0.2033
24032W        W40880  13.497  12.247   1.021  0.1625 -0.0644 -0.2611
24033W        W40881   7.716  15.082   0.727 -0.0727 -0.0074  0.4147
24034W        W40882  13.966  14.871   2.964 -0.2403 -0.1501  0.2065
24035W        W40883  11.041  13.076   1.935 -0.2182  0.1813 -0.1289
24036W        W40884  14.609   5.141  15.607  0.1594  0.0047 -0.3762
24037W        W40885   6.235  17.924  15.933 -0.1096  0.0926 -0.0250
24038W        W40886   6.245  15.056  16.261  0.0762 -0.2442 -0.2544
24039W        W40887   4.277   7.970  16.035 -0.0399  0.0333  0.0189
24040W        W40888  14.485   0.322   5.150  0.1012 -0.3744  0.1513
24041W        W40889  10.749   8.536  12.973  0.0745  0.2326 -0.1731
24042W        W40890  13.135  17.611   4.406 -0.1389 -0.0142 -0.0078
24043W        W40891   4.357   9.050  16.254 -0.2917  0.2372  0.2704
24044W        W40892   2.291   8.302   1.866 -0.1809 -0.0400  0.0837
24045W        W40893  11.341  13.126   5.311 -0.0773 -0.0133 -0.0149
24046W        W40894  12.077   0.306   4.643 -0.0692  0.1368  0.0623
24047W        W40895  16.738   8.463  15.208 -0.0051 -0.1658 -0.2078
24048W        W40896  11.435  13.163  11.705 -0.1275  0.1419  0.2719
24049W        W40897   8.495   6.177  14.287 -0.0843 -0.0769  0.0233
24050W        W40898   5.440   7.031   0.500  0.2812 -0.1983  0.1658
24051W        W40899  10.043  15.945   2.287 -0.0048 -0.1366  0.3419
24052W        W40900  15.476  15.524  15.059 -0.2055 -0.0309 -0.2483
24053W        W40901  13.421   5.142  13.935 -0.3108  0.2071 -0.0083
24054W        W40902   5.592  12.355   4.837  0.4276  0.0494  0.1966
24055W        W40903   0.386  15.517  15.537 -0.1172  0.0043 -0.0791
24056W        W40904   9.554   0.066   3.665 -0.1367 -0.0089  0.2439
24057W        W40905   5.827   9.974  10.872  0.2777 -0.2960  0.0055
24058W        W40906   3.163   0.013   0.890  0.1427  0.0002 -0.2114
24059W        W40907   8.890   4.785  10.058 -0.1186 -0.2236 -0.1502
24060W        W40908   1.631  16.834  15.171  0.0200  0.1404  0.0793
24061W        W40909  15.238   2.080   0.724  0.0939  0.2715 -0.0159
24062W        W40910  11.755  15.979   2.866 -0.1178 -0.0128 -0.2166
24063W        W40911  14.526  15.999  10.451 -0.1371 -0.1878 -0.2849
24064W        W40912   7.858   1.122   5.074  0.1285 -0.1285 -0.1162
24065W        W40913  12.382   9.700  12.470  0.1065  0.1988  0.1328
24066W        W40914   1.100  17.800   2.611 -0.4919 -0.1105  0.2069
24067W        W40915  11.950   8.891   1.870 -0.0977 -0.0108 -0.1031
24068W        W40916   8.153   5.284   2.495 -0.0207  0.0842  0.0716
24069W        W40917  16.844  11.544  13.987  0.3686  0.0931  0.0091
24070W        W40918   0.814   0.492   4.575  0.1434 -0.0236  0.0238
24071W        W40919  12.279  10.680  12.848  0.3905  0.0399  0.2480
24072W        W40920   4.062   2.017  12.741 -0.2022  0.0610  0.0983
24073W        W40921  17.063  15.544  14.498  0.2199 -0.3536  0.0275
24074W        W40922  17.218  11.580   3.263  0.1212  0.0883  0.2510
24075W        W40923  12.329   3.681   3.443  0.1991  0.1885 -0.1808
24076W        W40924  17.658  16.013  14.644  0.2188 -0.2543  0.1384
24077W        W40925   8.237   9.969   1.552  0.0038 -0.2289 -0.3756
24078W        W40926  16.384   6.071   1.181 -0.0562 -0.2250 -0.0799
24079W        W40927   0.544  16.643   2.187 -0.1144 -0.3398 -0.1293
24080W        W40928   8.382   1.901  15.152  0.0865 -0.4452  0.0794
24081W        W40929   0.871  15.262   1.903  0.0407  0.0228 -0.0012
24082W        W40930   4.430   5.865   3.129  0.1172  0.2151  0.0875
24083W        W40931   3.639  16.243  16.115 -0.0375 -0.1344  0.3611
24084W        W40932   7.486   3.049  15.960 -0.2869  0.0232 -0.2315
24085W        W40933  18.081   1.364  11.978  0.0052 -0.1488 -0.2909
24086W        W40934   6.303  11.659  11.520 -0.1185 -0.1371 -0.0379
24087W        W40935  16.107  18.089   2.084  0.0407 -0.0869  0.0770
24088W        W40936  12.261  15.228   3.040 -0.1763  0.0844 -0.0181
24089W        W40937  11.235  17.963   5.860  0.1739 -0.1147 -0.0464
24090W        W40938  17.309  13.477   2.476  0.0987  0.2033 -0.0779
24091W        W40939  16.412   3.404   5.673 -0.0464 -0.1809  0.0188
24092W        W40940  17.475   4.773   4.038 -0.0348 -0.0989  0.0139
24093W        W40941   7.620   9.441  14.808  0.2677  0.0075 -0.0773
24094W        W40942   4.884   2.934  12.316  0.1256  0.0635 -0.0468
24095W        W40943   4.872   1.819  12.213  0.2298  0.1772 -0.1478
24096W        W40944  12.677  15.532  12.117  0.0323 -0.0193 -0.0212
24097W        W40945   4.895   8.648  11.973  0.0253  0.0089  0.3821
24098W        W40946  14.293   0.062   4.256  0.0635 -0.2543  0.0922
24099W        W40947   2.695   2.073   4.504 -0.0714  0.1413  0.0501
24100W        W40948  14.990  14.344  14.936  0.0238 -0.0795  0.1402
24101W        W40949   0.197  17.073   0.659 -0.2221  0.1881  0.3606
24102W        W40950  16.129   2.868  14.655  0.0595 -0.1164 -0.0377
24103W        W40951   0.652  13.834   2.630 -0.0992 -0.2653  0.3981
24104W        W40952   9.838  10.468  15.230 -0.1038 -0.1705  0.0624
24105W        W40953   6.717  14.482   1.098 -0.2259 -0.1494 -0.1120
24106W        W40954   9.512  10.371  12.295  0.0371 -0.3794  0.1907
24107W        W40955  13.419   5.918   3.513  0.0919  0.0908  0.2328
24108W        W40956   7.486  12.170   3.047 -0.0465  0.0792 -0.2704
24109W        W40957  11.302   3.046  15.611  0.1457  0.1313  0.0288
24110W        W40958   0.194   8.099   3.345 -0.2723 -0.1104  0.3618
24111W        W40959  14.057  10.001   3.072  0.2895  0.0103 -0.0531
24112W        W40960   6.984  12.322  15.401  0.1164  0.4459  0.0514
24113W        W40961   1.030   2.065   1.688  0.1032  0.3559 -0.0877
24114W        W40962   9.435   7.930   0.089  0.4210 -0.0656  0.0036
24115W        W40963   4.355   4.679  15.474 -0.2831 -0.0208 -0.0513
24116W        W40964   7.907  11.147  13.061  0.2675  0.1836  0.1487
24117W        W40965   3.388   4.924   0.599 -0.0731  0.2675 -0.1440
24118W        W40966   3.755   3.363   4.665 -0.2697 -0.0767  0.0616
24119W        W40967  12.598  15.924  16.093 -0.2965  0.2845 -0.0853
24120W        W40968  10.270   1.751  15.315  0.1297  0.0391 -0.0304
24121W        W40969  17.411   7.666   4.451 -0.0897  0.0203  0.1468
24122W        W40970   0.741   6.016  15.462  0.4466 -0.2239  0.4150
24123W        W40971  11.326   5.174  11.785  0.0262  0.0701  0.0758
24124W        W40972   8.394   3.679   4.186 -0.2074 -0.1225 -0.1909
24125W        W40973   2.154  12.922   5.059 -0.1813 -0.0180  0.4379
24126W        W40974   7.764   6.714  12.734  0.1650 -0.1896  0.0389
24127W        W40975  10.583   4.126  15.204 -0.1647 -0.1782  0.1306
24128W        W40976  16.460   0.459  12.846 -0.0183 -0.0053  0.4873
24129W        W40977   4.623   3.613   3.404 -0.0005 -0.0064 -0.1991
24130W        W40978  13.134   0.610   3.790 -0.1586  0.0562  0.0589
24131W        W40979  12.509   3.874  14.183 -0.1768 -0.1974 -0.1562
24132W        W40980  15.988  14.596   4.092 -0.2841 -0.0753 -0.4751
24133W        W40981   6.065  13.410   2.282 -0.2170  0.0956  0.1730
24134W        W40982   8.856   6.049  14.636 -0.2707  0.0942  0.1960
24135W        W40983  10.542   7.800   2.104 -0.2178  0.2194 -0.1143
24136W        W40984  10.124   9.880  14.902  0.0451 -0.0067  0.1770
24137W        W40985   5.167  11.595  15.359  0.0302 -0.2584  0.2378
24138W        W40986  13.740   9.372  14.959  0.1264  0.0790  0.0445
24139W        W40987  16.973   0.781  14.136  0.2701 -0.1099 -0.0068
24140W        W40988   6.702   8.393  16.236 -0.2239 -0.2133 -0.2666
24141W        W40989  11.094  16.164   6.598  0.2423  0.2306  0.0144
24142W        W40990  10.253   7.347  10.989  0.1929  0.3007 -0.0349
24143W        W40991  14.423  14.623  13.167  0.1782 -0.0491  0.0644
24144W        W40992  17.329   4.604  14.611 -0.2897 -0.2155  0.1206
24145W        W40993   2.946   8.633  15.110 -0.2718  0.1127 -0.5764
24146W        W40994  12.667  15.001   0.396 -0.1940 -0.0907 -0.1387
24147W        W40995   1.755  13.121  14.759  0.3862 -0.1333  0.3698
24148W        W40996   8.803  16.955  12.915 -0.1353  0.2588 -0.3621
24149W        W40997  15.901  11.002   4.287  0.0604  0.0040 -0.3341
24150W        W40998  12.361  14.824   2.686  0.2352  0.2192  0.1108
24151W        W40999  12.597   7.934  15.761  0.0538  0.3071  0.1496
24152W        W41000   2.344  17.140   3.723  0.4165  0.3602 -0.0146
24153W        W41001  12.123  15.360  13.437 -0.0373 -0.0865 -0.4353
24154W        W41002   5.675   0.022   0.326 -0.0268  0.0134 -0.1090
24155W        W41003   9.049   7.769  15.921 -0.0073 -0.0467  0.4326
24156W        W41004  12.477   5.822   2.559 -0.0012  0.1358  0.4524
24157W        W41005   5.101  12.962  12.268  0.0107 -0.2982  0.0647
24158W        W41006   3.904   1.466   3.367 -0.1926 -0.3174 -0.0996
24159W        W41007   0.333  14.283   0.744 -0.0159 -0.2784  0.0439
24160W        W41008   4.121  14.909  15.893 -0.0985 -0.1361  0.2592
24161W        W41009   0.572  14.834   4.838  0.4903 -0.0682  0.0996
24162W        W41010  16.237  15.045  14.427  0.3319 -0.1810 -0.2933
24163W        W41011   1.976  15.931  15.404 -0.1309  0.1482 -0.2271
24164W        W41012  16.650   4.327   2.171 -0.0970 -0.0095 -0.0159
24165W        W41013  18.021   8.643  14.378  0.0666 -0.0422  0.2130
24166W        W41014   8.329   0.073   0.488 -0.3430  0.2916 -0.0096
24167W        W41015   2.626  13.883   2.443  0.0300 -0.2990  0.3342
24168W        W41016  11.536   6.023  15.367 -0.2495  0.2228 -0.1357
24169W        W41017   2.242   9.146  11.694  0.0793 -0.0418 -0.3414
24170W        W41018  12.599   6.847   2.318 -0.0078  0.3285  0.2142
24171W        W41019   1.955  10.299  12.986  0.0143 -0.1290  0.1088
24172W        W41020  10.277  12.096  13.064 -0.1715 -0.1300  0.0128
24173W        W41021  14.032   2.401   1.437 -0.1590 -0.1107  0.0840
24174W        W41022   7.362   8.562   1.431  0.1385 -0.0664  0.2445
24175W        W41023  14.599  12.108  15.697  0.0294 -0.0479  0.0408
24176W        W41024   5.663  10.348  10.440 -0.1404 -0.1745  0.0316
24177W        W41025   2.876  16.853  12.233  0.3220  0.0047  0.0076
24178W        W41026   2.782  16.979  11.724 -0.2005  0.1981 -0.1831
24179W        W41027  17.819   3.094   4.661  0.0202 -0.0458  0.2089
24180W        W41028   5.522  16.721  16.154  0.1022  0.0325  0.0615
24181W        W41029  12.205  14.723  11.540  0.0542  0.1149 -0.1851
24182W        W41030   2.337   4.396  14.991 -0.0068 -0.1707  0.1272
24183W        W41031  12.421  12.646   0.194  0.2470  0.0766 -0.1501
24184W        W41032   1.913   5.753   3.730 -0.0584  0.1704 -0.1476
24185W        W41033  14.924   9.189  16.208  0.0926  0.0271  0.1227
24186W        W41034   5.878  17.426   4.227  0.2871  0.3624  0.0948
24187W        W41035   3.553   1.197   1.120  0.1764  0.2741  0.0208
24188W        W41036   1.268   7.079   3.531 -0.0165  0.1548 -0.0926
24189W        W41037   6.733   0.271   2.401 -0.1286  0.2479  0.2883
24190W        W41038  12.564  15.912  14.546  0.1736  0.0196  0.2921
24191W        W41039   3.112   2.979   4.262  0.0785 -0.2521  0.1798
24192W        W41040   3.382  12.029   4.674 -0.0631 -0.2869 -0.1071
24193W        W41041   9.617   2.488   2.515  0.0974  0.1623  0.0107
24194W        W41042  10.992   5.919  13.941  0.2679 -0.0973  0.0949
24195W        W41043   4.724   0.672   4.916 -0.3204  0.0945  0.3082
24196W        W41044  11.243   8.393   2.958 -0.1361  0.1406  0.3224
24197W        W41045  12.312  14.949  15.568 -0.3573  0.0438 -0.0882
24198W        W41046  15.350   8.715   3.081 -0.0489 -0.0842 -0.0963
24199W        W41047   1.101   2.504   5.153  0.1070  0.2204 -0.2423
24200W        W41048   1.601   2.347  14.516 -0.5161  0.0768 -0.1959
24201W        W41049   1.239   1.530   4.140  0.1968 -0.0885 -0.1654
24202W        W41050   9.685  10.029   0.122  0.2188 -0.0933 -0.3110
24203W        W41051  17.256   5.408   3.719  0.0533 -0.4389  0.1117
24204W        W41052  11.478  14.858  13.753 -0.3638 -0.3510 -0.0425
24205W        W41053   3.494  10.337  13.254  0.1145 -0.3527  0.1378
24206W        W41054   1.600  16.796   4.443 -0.1480  0.0311 -0.0119
24207W        W41055   7.246   4.383  12.173 -0.1118 -0.0811  0.2325
24208W        W41056   4.927   2.603  13.790  0.2454  0.1503 -0.2433
24209W        W41057  12.498   5.297   2.645  0.0169  0.3467  0.2111
24210W        W41058  16.611   6.831  15.333  0.1132  0.2706 -0.1584
24211W        W41059  10.105   8.518   2.460 -0.3306  0.2669 -0.0379
24212W        W41060  13.209  12.810  16.078 -0.2417 -0.1103  0.0993
24213W        W41061   3.141  11.449   0.579  0.0830  0.0373  0.0948
24214W        W41062  10.965   8.056   0.411  0.3581  0.3311 -0.0555
24215W        W41063   3.315   7.078  16.179  0.2968 -0.1234 -0.2612
24216W        W41064   7.766   8.389  13.140 -0.2148 -0.0449  0.0419
24217W        W41065   1.651  11.694  13.798 -0.0196  0.4214 -0.2758
24218W        W41066  14.100   0.891   1.741 -0.0092  0.1109  0.0931
24219W        W41067   7.937   9.275   0.357  0.1271 -0.0248 -0.0244
24220W        W41068   1.111   8.156   3.752 -0.1962 -0.1415 -0.0237
24221W        W41069  10.808  13.295   0.844 -0.1422  0.1139 -0.1907
24222W        W41070  15.772   8.846  15.844  0.1090 -0.3034 -0.1536
24223W        W41071   4.181  16.373  11.544 -0.1390  0.0438 -0.2434
24224W        W41072   2.983   0.051   2.170 -0.3182  0.1119 -0.0382
24225W        W41073  16.779   8.823  16.184  0.1744 -0.1233  0.0996
24226W        W41074   6.951  14.121  14.209  0.1552  0.0988  0.5070
24227W        W41075   8.802   9.187  16.181  0.0029 -0.2250 -0.0427
24228W        W41076   6.860  15.300  15.470 -0.2940  0.5618 -0.1925
24229W        W41077   6.542   2.140  16.186 -0.0820 -0.1968  0.0204
24230W        W41078  11.430  17.324   2.705 -0.0272  0.0061 -0.1627
24231W        W41079   0.260   6.600  16.306 -0.1869  0.0758  0.5900
24232W        W41080  16.218   6.907  12.763 -0.0604 -0.2612  0.0408
24233W        W41081   2.256   9.790  15.988  0.0979 -0.0797 -0.0822
24234W        W41082  10.767   3.208   2.087 -0.0978 -0.1182  0.0477
24235W        W41083   2.123  11.458   2.138  0.1676 -0.0185  0.5186
24236W        W41084  13.452  12.974   0.349 -0.0112 -0.0335  0.0418
24237W        W41085  14.419   8.397  14.110 -0.0795 -0.2275  0.2883
24238W        W41086   4.119  10.328   0.908 -0.2674  0.2726  0.1800
24239W        W41087   7.136  17.701  15.726  0.1438 -0.0316 -0.0886
24240W        W41088  12.841  17.218   1.007  0.0383  0.2652  0.1649
24241W        W41089   4.415  14.822  14.393  0.1490  0.0740 -0.5000
24242W        W41090  12.698   0.249   1.731 -0.4298  0.1821 -0.2969
24243W        W41091  10.701   2.746   5.439  0.1314  0.1927 -0.3492
24244W        W41092   7.189   2.816   3.234 -0.2237  0.1117 -0.0820
24245W        W41093  10.897  13.502  15.363  0.2321 -0.2482  0.1911
24246W        W41094  12.845  12.700   0.555 -0.1456 -0.2255 -0.0010
24247W        W41095  13.212   4.880   0.227 -0.3823  0.1119 -0.3777
24248W        W41096  17.293   7.902  13.926 -0.1119 -0.0284 -0.0870
24249W        W41097   3.608  14.169  13.594  0.1880 -0.1273  0.1913
24250W        W41098   2.434  13.748   0.266  0.0082  0.0767  0.2748
24251W        W41099  12.438  12.937  13.157  0.0959  0.0576  0.0304
24252W        W41100  10.956  10.012  14.556  0.0466  0.1649  0.0800
24253W        W41101  16.409   6.721   1.847 -0.3556  0.1143 -0.0016
24254W        W41102  16.921   4.837   0.732 -0.1046 -0.1303 -0.0706
24255W        W41103   0.420  13.043   3.186 -0.3364 -0.1863 -0.0474
24256W        W41104   4.014  12.559  11.781 -0.0552 -0.2507  0.0633
24257W        W41105   8.259   1.885   3.226 -0.0632  0.1373  0.0381
24258W        W41106   9.534  13.731  13.446 -0.1655 -0.1007 -0.0250
24259W        W41107  12.250   1.101   1.567  0.2220  0.1138  0.3016
24260W        W41108   9.744   6.108  14.123  0.1156 -0.1513 -0.0248
24261W        W41109  13.567   2.375   2.880 -0.0923 -0.0364  0.0232
24262W        W41110  10.420   7.462   5.289 -0.1666 -0.0652  0.2149
24263W        W41111  14.124   9.897  14.326  0.4631 -0.0898  0.1274
24264W        W41112   5.757  16.243  12.047  0.1767 -0.0086  0.1151
24265W        W41113  12.705   7.744  13.815 -0.0213 -0.1077 -0.1521
24266W        W41114  13.693  16.305   3.917 -0.0950  0.2023  0.0113
24267W        W41115  15.792   7.700   2.217 -0.3073  0.0896 -0.2391
24268W        W41116  13.927   3.652  11.860  0.1974 -0.0072 -0.2788
24269W        W41117  16.572   7.437   0.692 -0.2983  0.1801  0.0168
24270W        W41118   4.285  17.865   0.242 -0.2945  0.4001 -0.0436
24271W        W41119   3.265   8.366  12.984  0.0035 -0.0866 -0.3096
24272W        W41120  10.781  15.415   4.591 -0.0868 -0.0685  0.2790
24273W        W41121   4.426  16.583  16.060  0.2366 -0.0622  0.2469
24274W        W41122   3.243   8.864  13.823 -0.0782 -0.4683 -0.0622
24275W        W41123   8.629   0.275  13.871  0.2464  0.2308 -0.4175
24276W        W41124  15.705  10.269   1.947  0.0049  0.4105 -0.0871
24277W        W41125  15.064   1.056   3.574 -0.0140 -0.1443 -0.4096
24278W        W41126   7.309   0.772  15.560  0.3557  0.1422 -0.0832
24279W        W41127  17.103   3.718  12.309 -0.0994  0.1587  0.1451
24280W        W41128  15.910   8.424  13.826 -0.0275  0.1669 -0.0264
24281W        W41129   9.503  11.486  13.354 -0.0059  0.2388 -0.0464
24282W        W41130   3.494   8.111  11.223 -0.0699 -0.3338 -0.0761
24283W        W41131  15.661  10.650   6.073  0.1235  0.0831  0.3824
24284W        W41132   4.997   0.936  14.662  0.1844 -0.2699 -0.1051
24285W        W41133   7.243  10.771   3.547 -0.0697 -0.0378 -0.0170
24286W        W41134   4.291   2.728  14.382  0.4771  0.0425 -0.3589
24287W        W41135   3.370  12.041   1.668  0.0205 -0.1568 -0.3932
24288W        W41136   8.904   4.397  14.342  0.4569 -0.1061  0.2623
24289W        W41137  14.178   4.385  14.919  0.1704 -0.1563 -0.1933
24290W        W41138  12.137   4.181   5.127 -0.2247  0.0825  0.0036
24291W        W41139  15.890   8.774   3.043 -0.0784  0.1085 -0.2745
24292W        W41140  17.534  11.373  15.239  0.1236  0.2158  0.3324
24293W        W41141  13.927  10.916   4.321 -0.0107  0.1970  0.1522
24294W        W41142  14.331   6.748   1.084 -0.1844 -0.1514  0.1170
24295W        W41143   1.742  17.816   3.423 -0.0709  0.0975 -0.2102
24296W        W41144   2.224  15.613  11.562  0.1484  0.2088 -0.1340
24297W        W41145   8.053   0.463  12.895 -0.2128 -0.1821 -0.1944
24298W        W41146   8.107   1.395   0.229 -0.0141 -0.0709  0.1865
24299W        W41147   2.618  12.609  15.314 -0.0376 -0.1985 -0.0566
24300W        W41148  16.803   0.790  11.099  0.1623  0.1739 -0.1621
24301W        W41149  11.456  16.317   4.965  0.1527 -0.2034 -0.1665
24302W        W41150   2.952  10.682   3.259  0.0799 -0.0568 -0.2167
24303W        W41151  16.811  10.155  11.634 -0.0365  0.1976 -0.2095
24304W        W41152  15.496   2.591   2.624 -0.0734  0.1342 -0.0361
24305W        W41153   9.267   4.235   3.867  0.2909  0.2275 -0.0357
24306W        W41154   4.126  12.315  14.102 -0.1863 -0.1062 -0.1188
24307W        W41155   1.288  12.393  14.768 -0.0806 -0.1003 -0.0280
24308W        W41156  17.057   5.472   1.892  0.1081 -0.3212 -0.0333
24309W        W41157  15.389  17.254  14.689  0.0330  0.2534  0.1954
24310W        W41158  10.588   7.567   3.910 -0.1007  0.0865 -0.1660
24311W        W41159  17.510   2.664   4.602  0.0109  0.1160 -0.0325
24312W        W41160   1.521  16.891  13.335  0.2245  0.0684 -0.3361
24313W        W41161  10.396  10.422   4.784  0.0950 -0.3121 -0.2072
24314W        W41162   5.357  10.782  11.227  0.2218  0.0636  0.2669
24315W        W41163  16.824   0.709   3.167 -0.3372  0.0777  0.0302
24316W        W41164  10.886   3.312   2.623  0.2297  0.0380 -0.0925
24317W        W41165   7.789  17.858  14.446 -0.0438  0.1671  0.1223
24318W        W41166   2.172  11.644   2.693 -0.4790  0.0769 -0.0567
24319W        W41167  16.220  14.176   4.343 -0.3056  0.1718 -0.0291
24320W        W41168  13.245  13.946   3.712 -0.0132  0.4383 -0.0636
24321W        W41169   8.673   3.717  14.624 -0.1413 -0.1265  0.4264
24322W        W41170   0.952   8.802   5.379  0.1371 -0.1086  0.2375
24323W        W41171   0.302  17.750  11.934 -0.1422 -0.2395 -0.2568
24324W        W41172   0.242   2.782   1.173 -0.0924  0.1194 -0.1100
24325W        W41173   2.211   8.886   0.584  0.2483 -0.4674 -0.0467
24326W        W41174  13.614   3.342   4.335 -0.0387 -0.0075  0.2485
24327W        W41175  12.089   5.163  12.509 -0.3536  0.4524  0.0235
24328W        W41176  14.560   6.723  12.153  0.2829  0.0513 -0.2473
24329W        W41177  14.659  14.905   5.014  0.0593 -0.1704 -0.1399
24330W        W41178  12.320   8.532   0.110  0.1467  0.0064  0.0745
24331W        W41179  16.945   0.511  14.628 -0.4090 -0.0914  0.0138
24332W        W41180  12.449   2.978  12.072  0.0754  0.2810 -0.0213
24333W        W41181   5.968  10.568   5.261 -0.0024 -0.1606  0.0898
24334W        W41182   2.362   5.839   4.023 -0.0664  0.2744 -0.2756
24335W        W41183  16.332  17.878  13.535  0.1140  0.0271 -0.0512
24336W        W41184  14.778   5.812  13.175  0.1833  0.0462  0.0614
24337W        W41185  10.200  13.974   4.526  0.1868  0.2607  0.4306
24338W        W41186  12.550   2.810   5.758  0.2087 -0.0582  0.0433
24339W        W41187   8.924  10.975  13.016  0.0911  0.1200 -0.3084
24340W        W41188  11.341   1.400   2.456  0.1449 -0.1882  0.1005
24341W        W41189  10.389  17.499  13.818 -0.0185  0.2646  0.0040
24342W        W41190   6.988  11.423   4.174 -0.1620 -0.2362  0.0118
24343W        W41191  10.758  16.062   1.519 -0.0204 -0.2073 -0.2327
24344W        W41192  11.681  16.422  12.810 -0.1535 -0.1332  0.0338
24345W        W41193   2.315   7.666   3.861  0.0380 -0.1126  0.0029
24346W        W41194   6.629  15.022   1.228  0.0971  0.1722  0.1953
24347W        W41195   1.405  15.308  13.137 -0.0059  0.1118  0.0878
24348W        W41196   5.722   8.290  12.819  0.2749  0.2159  0.1393
24349W        W41197  17.091   5.765   4.987  0.3364 -0.0042  0.2048
24350W        W41198  10.022   0.323   5.312 -0.1088  0.2691  0.1869
24351W        W41199   7.053  14.719  13.544 -0.3141 -0.1789 -0.4242
24352W        W41200   6.356   7.845   0.422  0.2422 -0.2276 -0.2457
24353W        W41201   1.565   7.720   0.942 -0.2254  0.0399 -0.2276
24354W        W41202   6.817   1.549   3.498  0.0744  0.0595  0.2687
24355W        W41203  16.314   4.708   2.160 -0.1313 -0.0581 -0.3980
24356W        W41204   3.317   4.950   1.836  0.4360  0.0418  0.0936
24357W        W41205  14.235  17.726   2.427 -0.0736 -0.1017 -0.0840
24358W        W41206   0.898   6.194  12.994 -0.0031 -0.0863  0.0601
24359W        W41207  17.694   6.068  13.426  0.1427 -0.0931 -0.0191
24360W        W41208  18.063   7.294  14.997  0.0930  0.0010 -0.2957
24361W        W41209   6.846   7.681  13.240 -0.0058  0.1175 -0.1484
24362W        W41210   2.903  11.065  13.578 -0.1968 -0.0662  0.2255
24363W        W41211  12.955  17.167  11.039 -0.1185  0.5196  0.0091
24364W        W41212  11.075  13.032  12.051  0.1318 -0.2309 -0.0388
24365W        W41213  16.880   8.367   3.425 -0.0171  0.2028 -0.2719
24366W        W41214  14.291  15.445   0.380  0.2611 -0.0859 -0.0483
24367W        W41215  16.217   6.675   3.137  0.2128 -0.0265  0.2215
24368W        W41216   1.657   9.258   2.587 -0.0209  0.0269 -0.1433
24369W        W41217   0.599   1.696   2.831  0.2636 -0.2477  0.1571
24370W        W41218   7.301   0.216   4.365 -0.0388  0.0591  0.1587
24371W        W41219  12.798   9.724  13.397 -0.1020 -0.3482 -0.2435
24372W        W41220   3.203   9.645   1.442 -0.1603 -0.2504  0.0944
24373W        W41221   5.564   9.548  11.744  0.1928  0.3223  0.0985
24374W        W41222  18.006   7.618  13.434  0.2807  0.0852  0.3862
24375W        W41223   2.415   8.352  13.019 -0.0944  0.2057 -0.3334
24376W        W41224  15.947   4.712   5.024 -0.0219  0.2403  0.0275
24377W        W41225   6.568   4.702  15.529  0.2795 -0.2419 -0.0459
24378W        W41226  16.497   6.400   4.898  0.1026  0.1276 -0.5166
24379W        W41227  15.536  17.132   2.261  0.1102 -0.0754  0.2335
24380W        W41228   4.712  16.951  14.105  0.3959  0.0726 -0.1169
24381W        W41229  17.089   7.198   1.033  0.3125 -0.1978  0.0651
24382W        W41230  12.608  17.063   3.635 -0.0595 -0.2948 -0.0653
24383W        W41231  13.557   4.899   1.970 -0.2093 -0.1614 -0.1117
24384W        W41232  15.352  12.137  14.794  0.0443 -0.1342 -0.0674
24385W        W41233  16.218  13.152   3.581  0.1726  0.0697 -0.2349
24386W        W41234  16.897  14.023  14.055 -0.0420 -0.3036  0.1844
24387W        W41235   7.009  14.655  11.988  0.1620  0.3978  0.1073
24388W        W41236  11.430  13.538   3.535  0.2259  0.1214  0.2705
24389W        W41237   6.039   0.444  15.758 -0.0575 -0.0793  0.3148
24390W        W41238  10.307   9.118  14.030  0.3210 -0.0137  0.0217
24391W        W41239  12.200   4.408   4.170  0.3221  0.1213 -0.1877
24392W        W41240  16.519   5.043   2.506 -0.1202  0.1450  0.3137
24393W        W41241  15.822   6.285   1.240  0.1736  0.3631  0.0743
24394W        W41242  16.259   5.090   4.826  0.2451  0.2648  0.0420
24395W        W41243  10.282   3.781  10.296  0.1004 -0.2404 -0.1931
24396W        W41244  11.880   5.975  15.809  0.3929  0.1156 -0.2022
24397W        W41245  10.565  15.523   1.775 -0.1479  0.1501 -0.2354
24398W        W41246   5.053   3.033   1.717 -0.0991 -0.2768 -0.0797
24399W        W41247  11.462   5.968   2.120 -0.0674  0.0626  0.0684
24400W        W41248   0.119   7.008  14.465  0.2824 -0.3368 -0.0242
24401W        W41249   6.934  11.152  15.957 -0.0599 -0.1220  0.0451
24402W        W41250   4.020  10.140  12.024 -0.3397 -0.3828 -0.1163
24403W        W41251  16.335   8.154   1.607 -0.3021 -0.0762  0.1039
24404W        W41252  14.390  12.190  15.165  0.0660  0.0701  0.0648
24405W        W41253   5.266  16.439   0.915 -0.1396  0.1907 -0.0125
24406W        W41254  12.782  14.138   2.757  0.1636 -0.2384 -0.3712
24407W        W41255  17.793   0.978  13.557 -0.1834 -0.0128  0.2167
24408W        W41256  15.428   5.536  13.891  0.2331 -0.1098  0.0779
24409W        W41257   7.557   0.019   2.513  0.1417  0.2018 -0.0711
24410W        W41258   7.754   9.456   1.889 -0.1611  0.0341  0.0989
24411W        W41259   1.027   5.568  12.955  0.0820  0.4733 -0.1728
24412W        W41260  11.822  16.533   0.188 -0.5172  0.0704  0.3598
24413W        W41261   2.636  12.997   2.821  0.1120  0.1395 -0.3418
24414W        W41262   5.371  11.296  15.642 -0.2118 -0.0584 -0.0609
24415W        W41263   3.302  17.033   2.602  0.2397  0.1510 -0.1408
24416W        W41264   4.297   9.922   5.023  0.1685 -0.1072  0.2413
24417W        W41265   9.197  16.520   5.973 -0.0961  0.0342 -0.1064
24418W        W41266  16.055   0.830   1.643 -0.3210  0.1244 -0.2689
24419W        W41267   6.967   6.698  13.112 -0.0118 -0.1305  0.1515
24420W        W41268   1.001   5.091  11.013  0.0331  0.3219 -0.1832
24421W        W41269  18.051   0.188   1.586  0.1654 -0.1903 -0.2378
24422W        W41270   9.528  11.053   4.080  0.2777 -0.1666 -0.2593
24423W        W41271   0.352  10.552   2.394  0.0808 -0.3053 -0.1927
24424W        W41272  16.338  11.201   5.217 -0.2885 -0.3750 -0.0238
24425W        W41273   4.508   2.440  13.498  0.1344  0.0616 -0.1752
24426W        W41274  12.615  15.272  13.283 -0.1829  0.3240  0.3800
24427W        W41275   8.158  14.683   2.114  0.4226 -0.0233  0.0283
24428W        W41276   4.029   5.521  14.893  0.0350  0.2834 -0.1492
24429W        W41277   9.485   5.799   4.813 -0.2432 -0.0065  0.0990
24430W        W41278   6.501   1.440  14.389 -0.0123 -0.0401 -0.0621
24431W        W41279   8.498  12.057   5.336  0.2325 -0.3454  0.1475
24432W        W41280  11.623  13.334  15.612 -0.1006  0.0528 -0.2960
24433W        W41281   8.088  13.678   5.369 -0.1701  0.0076  0.3791
24434W        W41282   8.242  11.145   2.786 -0.0383 -0.3797  0.1082
24435W        W41283   1.793   7.055   2.345 -0.0941  0.4240  0.1006
24436W        W41284   4.079  15.691  16.188 -0.1114  0.3418 -0.0424
24437W        W41285   1.324   2.586  12.172 -0.1240  0.3030  0.2135
24438W        W41286  10.448  13.021  14.549  0.0256 -0.1652  0.0010
24439W        W41287  13.875   5.860  12.304 -0.0306 -0.0258 -0.2851
24440W        W41288  13.703  12.069  12.016 -0.0320 -0.0631  0.1025
24441W        W41289   5.164  12.092  12.050 -0.2558  0.0518 -0.0125
24442W        W41290  13.429  10.715  14.156 -0.0868 -0.0296 -0.0287
24443W        W41291   1.215  15.590  15.858  0.1381 -0.0990 -0.0796
24444W        W41292  15.789   2.601  15.806 -0.1972 -0.1086  0.0576
24445W        W41293  16.432  11.017   2.540 -0.0950 -0.2139 -0.3531
24446W        W41294   6.776   1.695  14.076  0.1624  0.2253  0.3123
24447W        W41295   1.909   2.546   2.796 -0.1670  0.1524  0.2129
24448W        W41296  12.885  11.066  16.215  0.1119 -0.0715 -0.2552
24449W        W41297  10.439  16.767  11.514  0.2623  0.1281 -0.2438
24450W        W41298  12.979   0.254  14.042  0.0413 -0.1313 -0.2696
24451W        W41299   3.448   6.305  14.926 -0.2735 -0.0872 -0.0296
24452W        W41300   0.678   8.417  12.729  0.1739  0.2249  0.1479
24453W        W41301  11.335   2.182  13.186  0.0956  0.0997 -0.0411
24454W        W41302  13.582  14.104   1.345  0.4739 -0.2181  0.2818
24455W        W41303   7.184   4.856   5.785  0.0876  0.0768  0.1880
24456W        W41304   8.416   8.124   4.278  0.0667 -0.3044  0.1481
24457W        W41305   5.305   1.800   0.988 -0.2933 -0.3806 -0.1748
24458W        W41306  16.652  12.720   2.867 -0.1183 -0.2657 -0.1213
24459W        W41307   3.156  11.395  14.219  0.0916  0.2176 -0.0052
24460W        W41308   7.882   8.189   0.247  0.1194  0.0065 -0.1591
24461W        W41309  13.658   5.089   1.434 -0.0413  0.1941 -0.2609
24462W        W41310   9.183   2.986  13.118 -0.0254  0.1292 -0.1712
24463W        W41311   0.319   8.134  12.042  0.0606 -0.0493 -0.0075
24464W        W41312  14.152   4.463   5.007  0.0830  0.1231  0.1580
24465W        W41313   7.058  10.918  12.899 -0.0110 -0.0745 -0.0623
24466W        W41314  11.729  13.539   2.381  0.0360 -0.0206 -0.0920
24467W        W41315   8.709  14.277  12.581 -0.1421 -0.2710 -0.0086
24468W        W41316   7.738  14.452  15.722 -0.2319 -0.0751  0.3383
24469W        W41317  17.078  16.046  14.533 -0.1591  0.1005  0.3278
24470W        W41318   7.230   0.182   3.416  0.0128  0.2885  0.0317
24471W        W41319  12.519  11.755   2.549 -0.2468  0.0585  0.0600
24472W        W41320  17.683   5.395  15.188 -0.0815  0.1012 -0.1417
24473W        W41321  14.488  11.748  13.079  0.2931 -0.0360 -0.0338
24474W        W41322   3.071  15.423   1.375  0.1385  0.1068  0.1756
24475W        W41323   5.929   0.569   2.851  0.0976 -0.2961  0.0652
24476W        W41324   8.104   3.717  14.467  0.0223 -0.1101  0.0779
24477W        W41325  10.162   0.162   3.880 -0.2024 -0.0672 -0.0116
24478W        W41326  12.268   3.494  12.076 -0.1328 -0.0195 -0.1066
24479W        W41327   9.269  11.654   1.882 -0.3382  0.1076  0.2056
24480W        W41328  11.621   5.678  10.912  0.1145  0.2175 -0.2074
24481W        W41329  13.230   3.379  14.431  0.4893 -0.1566  0.3011
24482W        W41330  14.361  10.550   3.831 -0.0551 -0.1349  0.1135
24483W        W41331  14.521  16.246  12.611  0.1204 -0.3114 -0.1015
24484W        W41332   0.960   3.807  12.461 -0.1857  0.1855  0.1502
24485W        W41333  13.038   4.657  14.872 -0.0674 -0.1344 -0.3226
24486W        W41334   2.080  11.968  12.406 -0.0954  0.1563 -0.0475
24487W        W41335   4.571   0.174  14.467 -0.3979  0.1988 -0.4929
24488W        W41336   4.954   8.482  12.502 -0.0643  0.0575  0.1403
24489W        W41337  17.175   6.497  11.644  0.1397  0.1337 -0.1363
24490W        W41338   7.668  16.259  14.018 -0.0027  0.2264 -0.0045
24491W        W41339   4.495   3.006   1.073 -0.0324  0.0627  0.2680
24492W        W41340  17.793   2.078   1.158 -0.3834  0.0530 -0.1359
24493W        W41341   3.319   6.755  12.098  0.1533 -0.1164  0.1097
24494W        W41342   2.684  11.052   0.681 -0.2657 -0.2313 -0.2826
24495W        W41343   6.478   1.151   3.307  0.0895 -0.0279  0.2641
24496W        W41344   7.911   7.271  16.008  0.1162  0.0285  0.1527
24497W        W41345  15.313  14.760  12.635  0.3257  0.3703 -0.1911
24498W        W41346  16.323   2.621  15.143  0.0370  0.0289 -0.1579
24499W        W41347  14.944   9.356  12.457 -0.0353  0.1749  0.0356
24500W        W41348  13.021   5.925  11.888  0.0222 -0.4135 -0.2241
24501W        W41349   6.463  12.832   3.879 -0.0076  0.2476 -0.0942
24502W        W41350   0.190   0.999  14.411 -0.0713 -0.3982  0.2432
24503W        W41351  14.404   8.382   1.252 -0.3834  0.0049  0.1116
24504W        W41352  15.100  15.798  13.118 -0.2764 -0.1105  0.1873
24505W        W41353  10.576  16.737   2.502 -0.1668 -0.1934 -0.0561
24506W        W41354  15.034  13.534  11.526 -0.0103 -0.0603  0.0166
24507W        W41355   7.653   1.631   3.437  0.0627  0.0101 -0.0547
24508W        W41356   3.995   5.206   2.443 -0.0313  0.1182  0.2685
24509W        W41357   0.358   0.878   2.502 -0.0024 -0.2819 -0.1117
24510W        W41358   1.355  14.434   1.447  0.2097  0.0237  0.0083
24511W        W41359  13.443   9.515  11.819 -0.0354  0.1800  0.1616
24512W        W41360  10.676   2.004   1.976  0.1210  0.1188 -0.0549
24513W        W41361   2.926  15.811  12.422  0.2169  0.0322  0.0267
24514W        W41362  16.588  12.837   4.784 -0.2148 -0.0442 -0.1316
24515W        W41363  11.040   4.685   0.200  0.0925  0.0081 -0.0055
24516W        W41364  11.991  12.935   0.091  0.4061  0.2100  0.1083
24517W        W41365   2.023   7.645  13.827  0.0475 -0.0606 -0.1234
24518W        W41366   7.498   5.779  10.881 -0.0680 -0.1392 -0.1155
24519W        W41367   1.421   8.712  15.413 -0.1156  0.1425 -0.0876
24520W        W41368  13.508  12.850   4.383 -0.0229  0.1329 -0.0900
24521W        W41369  10.531  13.043   5.013 -0.4296  0.1415  0.0149
24522W        W41370   9.546  14.113  12.907  0.2125 -0.1402 -0.1684
24523W        W41371   2.028  11.781   3.687  0.2303  0.3267  0.1068
24524W        W41372  14.761   9.288   1.586  0.2256  0.0278 -0.2368
24525W        W41373   2.399  10.149   1.218  0.1827 -0.2120 -0.0818
24526W        W41374  17.124  13.887  15.890  0.2170  0.0500 -0.1718
24527W        W41375   7.475  14.290   2.460  0.1426  0.1838  0.0720
24528W        W41376  16.920  17.316   3.073  0.0501  0.0962 -0.2997
24529W        W41377   2.835  15.989   0.473 -0.3451 -0.2842  0.1763
24530W        W41378   4.856   4.393  13.944 -0.3030  0.3578  0.0020
24531W        W41379  10.263   1.030  15.912 -0.1132  0.2000 -0.4079
24532W        W41380   9.421  16.155   2.930 -0.0872 -0.0628  0.1028
24533W        W41381   0.816  16.809  10.932 -0.1939  0.0506  0.2771
24534W        W41382  10.788  13.512  14.605  0.1000 -0.2440  0.0097
24535W        W41383   7.899  13.060   4.110 -0.1344 -0.0839  0.0552
24536W        W41384  10.822   1.271   0.689  0.1563  0.0609  0.0976
24537W        W41385   5.748  15.151   4.829 -0.0294  0.1689 -0.5715
24538W        W41386   1.931  16.696  14.174 -0.2983  0.2179 -0.1055
24539W        W41387   3.052  10.189   3.769 -0.1323  0.1341  0.0453
24540W        W41388   3.654   5.416   0.588 -0.0924  0.0999  0.2702
24541W        W41389  11.226   6.837   5.287 -0.0241  0.0892 -0.0309
24542W        W41390   8.526   1.808   0.381  0.1179 -0.2823 -0.0244
24543W        W41391  10.638   1.054  11.765 -0.0723 -0.1324  0.0302
24544W        W41392  13.084   7.732   4.169 -0.0320 -0.4097 -0.1204
24545W        W41393  17.202   0.108  14.295 -0.3012  0.1889  0.0473
24546W        W41394  16.804   5.262   5.227 -0.1401  0.3640 -0.2911
24547W        W41395   8.581   5.162  12.831 -0.0064  0.0994  0.2505
24548W        W41396  17.624  17.640   9.915 -0.1553 -0.1302 -0.0695
24549W        W41397   8.985  15.237  14.372 -0.0664 -0.0866  0.3660
24550W        W41398   7.839   4.760   3.822  0.0479 -0.1538 -0.2700
24551W        W41399  14.368   5.030   5.495  0.2703 -0.2686  0.2786
24552W        W41400   5.312  16.461   0.341 -0.3837 -0.0649 -0.2288
24553W        W41401  11.782  16.614   1.057  0.1570  0.1289  0.2008
24554W        W41402  12.561  17.565   1.963  0.3445 -0.2880 -0.4872
24555W        W41403  14.167  17.449  16.076 -0.2294 -0.1624  0.0680
24556W        W41404   3.203  17.019  12.623 -0.3346  0.0239 -0.0423
24557W        W41405  16.300   2.428   1.434 -0.1301 -0.0808 -0.0055
24558W        W41406  15.584  11.569  12.082 -0.1256 -0.1640 -0.2552
24559W        W41407   8.751   2.525   2.284  0.1824 -0.1778 -0.3422
24560W        W41408   8.066   0.520  15.967  0.2098 -0.0993 -0.2124
24561W        W41409  17.735  17.853   5.912 -0.0998 -0.3458  0.1465
24562W        W41410   9.833  13.360  10.789 -0.0284  0.2592 -0.1250
24563W        W41411   4.177   1.861   5.032  0.0943  0.1252 -0.1752
24564W        W41412  13.641  12.994   2.368 -0.0916 -0.0425  0.0974
24565W        W41413   0.034   1.958  14.146 -0.2144  0.0838 -0.3405
24566W        W41414  17.555   7.911  11.942  0.3372  0.2760 -0.1251
24567W        W41415   3.021   0.582  15.558 -0.0081  0.0211 -0.0584
24568W        W41416   2.350   5.872  15.246  0.0568  0.2523  0.0642
24569W        W41417   1.009   4.813  13.307  0.2812  0.1495 -0.1986
24570W        W41418   5.174   1.856   3.287  0.0573  0.1616 -0.0116
24571W        W41419  10.686  14.907  15.227  0.1400  0.0263 -0.3525
24572W        W41420   6.794  12.582  14.942  0.3849 -0.0304 -0.0370
24573W        W41421   9.613   3.172   4.838  0.2396 -0.0775 -0.3396
24574W        W41422  12.603  11.705  11.597  0.1792 -0.0179  0.2277
24575W        W41423   0.599   2.636  14.415  0.2649 -0.0281  0.2020
24576W        W41424   9.083  15.717  14.221 -0.0677 -0.1032  0.0372
24577W        W41425  11.077   9.735  14.159 -0.0781 -0.1063  0.1333
24578W        W41426   4.941  15.986   2.005 -0.2507 -0.0827 -0.2306
24579W        W41427   0.574   7.256   0.898  0.1540  0.0201  0.0393
24580W        W41428   3.267  16.860  11.816  0.1508 -0.1519 -0.0618
24581W        W41429   9.680  13.122  14.328  0.0281 -0.1759 -0.3083
24582W        W41430   3.950   9.079   1.351 -0.0739  0.0182  0.0912
24583W        W41431  16.903   6.656  13.648  0.2108 -0.1730  0.2587
24584W        W41432  17.323   6.955  16.134  0.0092  0.1164 -0.1338
24585W        W41433  10.909  10.932  13.464  0.0004 -0.3048 -0.0516
24586W        W41434   6.259   1.837   2.204  0.0272  0.2755 -0.1820
24587W        W41435  13.806   2.476   4.686  0.0183 -0.2475  0.1893
24588W        W41436   4.950  13.587   4.267 -0.1549  0.1657  0.1408
24589W        W41437   3.784   2.830   3.139 -0.0489 -0.0667  0.1371
24590W        W41438   4.225  17.995  15.354 -0.1860  0.0124 -0.3974
24591W        W41439  17.103  15.733  13.625 -0.0125 -0.2312 -0.0119
24592W        W41440  11.099  16.041   3.109  0.0928  0.0335  0.1426
24593W        W41441  17.810   7.869   4.102  0.0928  0.0502 -0.0480
24594W        W41442  11.337   1.890   3.348 -0.3390  0.1348  0.0238
24595W        W41443   7.873  17.619   3.241  0.2497 -0.1620 -0.0847
24596W        W41444  13.734   7.316   4.108  0.0887  0.0935  0.1722
24597W        W41445  13.407   6.672  16.326  0.0048 -0.0771  0.1788
24598W        W41446  11.197   6.753   3.407  0.3529 -0.1563  0.0674
24599W        W41447   8.113  15.596  12.495 -0.0859 -0.0920  0.0946
24600W        W41448  13.526   3.907   3.360  0.0235 -0.0104 -0.4218
24601W        W41449  11.277   0.946   0.610  0.0275 -0.2398 -0.0053
24602W        W41450  13.195   9.234  12.228 -0.2357 -0.0183 -0.2129
24603W        W41451  11.163   0.599   5.173 -0.1718  0.2934 -0.1576
24604W        W41452   7.951  13.245   1.139 -0.4269  0.0845 -0.0387
24605W        W41453  14.319   9.991  12.647 -0.0619 -0.0699 -0.4739
24606W        W41454   3.349  11.472   1.042 -0.1268  0.0235 -0.1246
24607W        W41455   2.586   4.537  11.836 -0.3826 -0.0314 -0.1615
24608W        W41456   8.285   8.642   3.448  0.2406  0.3158  0.1691
24609W        W41457   6.497   7.632   3.853  0.2273  0.1915 -0.3349
24610W        W41458  14.746   1.352   1.316  0.0709  0.1240  0.2312
24611W        W41459   8.767  12.428  11.710  0.1382 -0.0606  0.1084
24612W        W41460  15.833   3.859   0.622  0.1333 -0.0774  0.2094
24613W        W41461   9.525   8.512  12.659  0.0069  0.1330 -0.2503
24614W        W41462   8.147   1.043   2.162  0.0142 -0.1136  0.0767
24615W        W41463   3.556  16.101   1.697 -0.1462 -0.3780 -0.1304
24616W        W41464  12.173   9.710   4.899  0.0680  0.1877  0.1844
24617W        W41465  17.344   2.702  14.293  0.2528 -0.3107 -0.0935
24618W        W41466  13.156  14.071  14.910 -0.1755 -0.3599 -0.0544
24619W        W41467   4.962  11.462   1.550 -0.0242  0.3411 -0.0140
24620W        W41468  14.854   9.165  14.480  0.0697 -0.5027 -0.0502
24621W        W41469  11.200   3.889  13.793 -0.2557  0.3278 -0.1494
24622W        W41470   0.079   9.625  14.109  0.1066 -0.0089 -0.2426
24623W        W41471  17.513  11.796   5.127  0.1671  0.1591 -0.1884
24624W        W41472  12.113   8.024   5.058  0.1212 -0.1247  0.1718
24625W        W41473  15.624  14.796  11.286  0.1217  0.0229  0.1523
24626W        W41474   9.967  14.901   3.363 -0.2250 -0.0873  0.0976
24627W        W41475   4.277   9.821  13.310 -0.3213 -0.0343  0.1149
24628W        W41476  17.419   8.986  11.542 -0.0683  0.0583 -0.0184
24629W        W41477  17.134  15.656   1.557 -0.0641  0.1831 -0.0100
24630W        W41478  11.647   1.198  13.154  0.2028 -0.0199 -0.2542
24631W        W41479   1.245   1.051  14.916  0.2450 -0.0499  0.2069
24632W        W41480   9.925  16.691  12.230 -0.3940 -0.0711 -0.1630
24633W        W41481  14.482   6.304   3.452  0.3351 -0.2923 -0.1407
24634W        W41482   1.107   8.937  11.128 -0.1345  0.2150 -0.0363
24635W        W41483  13.512   6.458   4.720 -0.0814  0.2573 -0.1360
24636W        W41484  13.007   2.877   4.040  0.1190  0.0605  0.2766
24637W        W41485   8.844   3.189  14.334  0.0551  0.0905 -0.0559
24638W        W41486   3.717  10.319  11.204 -0.0091  0.2313 -0.1564
24639W        W41487   8.106   8.124  13.836  0.3858 -0.0675 -0.2379
24640W        W41488  16.106  15.048   4.823  0.2014 -0.0314 -0.6382
24641W        W41489   4.657   0.826  15.261 -0.2439  0.2811  0.0200
24642W        W41490   6.511  16.779   4.794 -0.4327 -0.2188 -0.2553
24643W        W41491   0.377   9.808   0.255  0.0728 -0.2519 -0.1287
24644W        W41492   9.106  10.841   4.283  0.1420  0.0217 -0.2910
24645W        W41493   0.568   7.689  13.872 -0.2579  0.1723 -0.0942
24646W        W41494   9.880   1.228   0.968  0.0482 -0.1864 -0.2175
24647W        W41495  10.243   4.177  14.074  0.0128 -0.0285 -0.1677
24648W        W41496   6.518   4.290   3.788  0.0637 -0.1244 -0.4465
24649W        W41497  15.037  12.340   0.676 -0.2368 -0.0465 -0.2451
24650W        W41498   9.448   2.899   2.832  0.0435  0.0701 -0.2894
24651W        W41499   2.963   3.965   1.405  0.0684  0.2436 -0.2712
24652W        W41500   6.124  11.543   2.421  0.2160 -0.1239  0.0307
24653W        W41501   6.682   1.848  15.269 -0.3227  0.0832  0.1811
24654W        W41502   8.801   0.822  11.237  0.0477 -0.3013  0.1357
24655W        W41503  16.481   6.363  11.359  0.0483  0.4337  0.0431
24656W        W41504  15.742  17.821  14.042 -0.2095 -0.0037 -0.1289
24657W        W41505  12.051   2.594   2.074  0.3302 -0.1461 -0.1335
24658W        W41506   0.043   8.014   2.321 -0.2951  0.2885 -0.0147
24659W        W41507  15.870  12.157   1.631  0.1309  0.2865 -0.2557
24660W        W41508   5.494   1.611  15.279 -0.2805 -0.1881  0.0477
24661W        W41509   6.750  11.292   5.741  0.1882  0.3005  0.1765
24662W        W41510   4.110   8.406  11.659 -0.3002 -0.0009 -0.2140
24663W        W41511  13.899  11.968   4.788  0.1823  0.0693 -0.0613
24664W        W41512   0.158  17.113  15.878 -0.0360 -0.0517 -0.0150
24665W        W41513   1.635  14.090   0.046 -0.3337  0.4633  0.0639
24666W        W41514  11.018   1.782  11.121 -0.1329  0.0243 -0.0210
24667W        W41515  16.498   7.384   2.932  0.1345  0.0455 -0.1095
24668W        W41516  16.726  10.267  16.192  0.1384  0.1984  0.0185
24669W        W41517  11.626  17.608  11.838  0.0145  0.0556  0.0767
24670W        W41518  12.622  11.498   4.625  0.5016 -0.4152 -0.2164
24671W        W41519  11.631   4.406   0.994  0.0853  0.3437  0.1922
24672W        W41520  13.976  14.742  13.513  0.1329  0.1685 -0.2315
24673W        W41521   6.867  10.614   0.526  0.0591  0.0614 -0.0735
24674W        W41522  15.586   1.909   1.038  0.3304  0.0923  0.0618
24675W        W41523   7.795   7.441  13.244 -0.0329 -0.0124  0.0592
24676W        W41524   4.132   1.875   3.639 -0.0099  0.1309  0.1186
24677W        W41525   8.586  15.485  15.935  0.3068  0.2067  0.2577
24678W        W41526  10.408  17.886   5.507  0.1645 -0.0729 -0.1989
24679W        W41527  12.327   6.819   1.186  0.0732 -0.0691  0.0762
24680W        W41528  10.416   7.473   3.203  0.2463 -0.0574 -0.3157
24681W        W41529  15.371   3.562  14.043 -0.0208  0.3286  0.1084
24682W        W41530  18.066   4.944   0.264  0.4041 -0.0157  0.0354
24683W        W41531   9.508  16.643   1.914  0.0527  0.1476 -0.2437
24684W        W41532  11.610   5.488  14.380 -0.2316 -0.1777 -0.0382
24685W        W41533  15.185   2.203   1.228  0.1266  0.2210  0.3059
24686W        W41534   2.429   9.938  15.206  0.1568  0.0953  0.1284
24687W        W41535   3.644   4.150   4.904 -0.0110 -0.2186 -0.0727
24688W        W41536   8.965   1.726  14.381 -0.0673  0.1449  0.0017
24689W        W41537   0.233   2.237   1.104 -0.0808  0.1774 -0.1504
24690W        W41538   5.559  16.344  14.073  0.0268  0.1254 -0.0662
24691W        W41539   0.984  16.999   3.374  0.0547  0.2240  0.2554
24692W        W41540  16.842   1.247  11.183  0.2319  0.1329  0.1469
24693W        W41541  13.389   3.230   2.625  0.1845  0.1311  0.1815
24694W        W41542   7.576   6.519   1.242  0.1947 -0.0544 -0.2641
24695W        W41543   9.305   0.574   3.883 -0.1594 -0.0134 -0.0508
24696W        W41544   1.046   5.958  10.492 -0.2351  0.1663  0.0199
24697W        W41545   4.955  17.334  15.816  0.0833  0.0942 -0.1557
24698W        W41546  13.403  10.867  15.900  0.0107 -0.0978 -0.0558
24699W        W41547   3.185   7.014   3.525  0.2059  0.1880  0.0168
24700W        W41548   8.473   8.159  11.130  0.2447  0.1996  0.4164
24701W        W41549  13.213  13.844   4.922 -0.0500 -0.0859 -0.1664
24702W        W41550  13.219   0.687   2.249 -0.2356  0.3135 -0.0256
24703W        W41551  17.614  18.033   1.442  0.2255 -0.2211 -0.1037
24704W        W41552   3.374  16.473  11.515  0.2684 -0.0988 -0.2363
24705W        W41553   8.630  17.980   4.179 -0.1774  0.0466  0.1056
24706W        W41554   0.646   0.954  16.259 -0.1604  0.1483  0.0272
24707W        W41555  14.460  16.354   3.776 -0.2000  0.0969  0.1302
24708W        W41556  11.110   8.530   4.865 -0.1763 -0.2287  0.1351
24709W        W41557   7.561   7.919  11.526  0.1024  0.1159 -0.1553
24710W        W41558   8.423   5.700  12.889  0.3837  0.3227 -0.3690
24711W        W41559  16.772   6.971   2.807  0.1268 -0.1901 -0.0106
24712W        W41560  13.273  10.360   5.488  0.2656 -0.1471  0.2202
24713W        W41561   2.369  11.895  16.131 -0.0394 -0.1581  0.1471
24714W        W41562   5.899   3.277  12.311 -0.0643 -0.0225  0.1381
24715W        W41563   7.715  11.333   2.363 -0.2788  0.0624  0.0470
24716W        W41564  10.364  16.152  13.876 -0.0814 -0.3341  0.1496
24717W        W41565  15.335   6.894   2.745  0.1051  0.1166 -0.0872
24718W        W41566  14.057  11.195   0.822  0.1886 -0.1728 -0.1612
24719W        W41567   3.453   7.777   2.240  0.3919  0.1152 -0.1080
24720W        W41568   9.755  17.402  14.845  0.1891 -0.2002 -0.0115
24721W        W41569   0.354   4.042   3.212 -0.0024  0.1333  0.2452
24722W        W41570  10.915  14.611  12.829 -0.3572 -0.1023  0.3624
24723W        W41571  15.054   9.864  14.545  0.2170 -0.0083  0.0856
24724W        W41572   1.754  13.014   3.512  0.1136 -0.0176 -0.3231
24725W        W41573   2.419   2.510   2.843 -0.0418 -0.1054 -0.0039
24726W        W41574   2.498  12.009  12.165 -0.0678  0.0047  0.1234
24727W        W41575   9.054   6.350  11.265  0.1803  0.2024  0.0766
24728W        W41576  15.196  11.039   0.294  0.0920  0.3388  0.1562
24729W        W41577  15.923  14.787   1.324 -0.0612 -0.0201 -0.1086
24730W        W41578  17.710   3.478  14.538  0.2033 -0.0259 -0.2910
24731W        W41579  12.472  15.685  13.636  0.0085 -0.1576  0.0778
24732W        W41580  11.883  17.132   0.825 -0.0492 -0.1383  0.0264
24733W        W41581  11.944  12.278   1.145 -0.1837  0.0635  0.0847
24734W        W41582  17.662   0.775  16.257  0.1024  0.1336 -0.2477
24735W        W41583   9.568   8.031   3.498  0.0885  0.0312  0.2806
24736W        W41584  14.699  12.477   2.118 -0.2086 -0.1369 -0.0749
24737W        W41585  18.013  13.350   3.656  0.1099  0.0480  0.0384
24738W        W41586  10.710   8.632   4.569 -0.2224  0.0896  0.0466
24739W        W41587   1.226   0.750  10.537  0.1872  0.3084  0.0305
24740W        W41588  10.561   5.863   1.806  0.3217 -0.0952  0.0346
24741W        W41589  14.877   0.089   2.552 -0.2247  0.5939  0.3685
24742W        W41590  10.820   9.091  14.687 -0.0674  0.1182 -0.0191
24743W        W41591   3.330  10.590  16.310 -0.0789  0.0494  0.0218
24744W        W41592  10.213   7.839  11.153  0.0035 -0.0993  0.2444
24745W        W41593  12.867  10.265  13.355 -0.0123  0.1997  0.0948
24746W        W41594  15.227  14.865   4.434  0.2453  0.0356 -0.1705
24747W        W41595   2.813  14.507   0.605  0.0929  0.1583  0.3401
24748W        W41596   1.766  12.322  12.074  0.1019 -0.0248 -0.2953
24749W        W41597   8.568   1.977   1.552  0.2683 -0.0664 -0.2937
24750W        W41598   1.374   5.875  15.712 -0.0724 -0.0877 -0.2549
24751W        W41599   2.584   0.306  13.012  0.2271 -0.2849 -0.0663
24752W        W41600   1.364  13.873   0.486 -0.2030 -0.2713 -0.1414
24753W        W41601   2.145  16.902   4.138 -0.1682 -0.1674 -0.2235
24754W        W41602  16.294   5.957   3.632 -0.2072 -0.1128 -0.0002
24755W        W41603   6.141   9.795  11.606 -0.1634 -0.1447  0.3757
24756W        W41604   9.520   7.741  15.887 -0.0926 -0.2891  0.3121
24757W        W41605   6.938   3.218   2.980 -0.0267 -0.0520 -0.2960
24758W        W41606  16.637   6.923   0.830 -0.3200 -0.1126  0.2300
24759W        W41607   2.823  12.122  11.504 -0.1096 -0.0346  0.0469
24760W        W41608  15.738   1.812   1.964  0.3144 -0.1829  0.1519
24761W        W41609  14.208  12.636  12.731  0.0253 -0.2444 -0.0571
24762W        W41610  17.972  12.170   3.191 -0.2445  0.2117  0.1676
24763W        W41611  14.188   3.828   3.662  0.1767 -0.0896 -0.1532
24764W        W41612   0.616  13.123  11.121 -0.5492 -0.1876  0.0798
24765W        W41613   6.455   1.338  10.630 -0.1419 -0.3819 -0.0033
24766W        W41614   3.084   3.158   5.598  0.0085  0.1870  0.3204
24767W        W41615  11.618  10.655   1.883 -0.0447 -0.1719 -0.0528
24768W        W41616   4.067   0.448  15.462 -0.1741  0.0459  0.0808
24769W        W41617  14.341  14.356   5.043 -0.0030  0.1401  0.3103
24770W        W41618  17.488  11.734  11.891  0.1529  0.1941 -0.1867
24771W        W41619   6.899   6.506   3.072  0.1540  0.1121 -0.2562
24772W        W41620  13.342  12.362   1.548 -0.2099 -0.5506  0.0509
24773W        W41621   7.671   5.606  12.026 -0.1962 -0.0725 -0.0767
24774W        W41622   5.574   0.499   3.162 -0.0171  0.0100 -0.0729
24775W        W41623   4.132   5.354   0.507  0.2920 -0.0617  0.0341
24776W        W41624  15.936  11.101   2.552  0.2292  0.0362 -0.3867
24777W        W41625   4.188   3.823   0.781  0.2382 -0.1977 -0.3263
24778W        W41626   7.091   0.893   3.955  0.1923 -0.0998 -0.1702
24779W        W41627  16.021   8.357  12.455  0.0556 -0.0293  0.0536
24780W        W41628   8.039  13.227   5.632  0.0390  0.2901  0.5714
24781W        W41629   0.282   2.316  11.467 -0.0295 -0.0402 -0.0401
24782W        W41630  10.170  10.571   4.305  0.0288  0.1179  0.1088
24783W        W41631   7.079   6.810   4.598  0.3570  0.4579  0.1137
24784W        W41632   5.669   2.755   3.966  0.1836 -0.1343 -0.1480
24785W        W41633  15.969  14.554  15.417 -0.0697  0.0295 -0.0786
24786W        W41634  13.209  10.419  12.631 -0.0420  0.1717  0.0968
24787W        W41635  10.337   2.299   4.003 -0.1924 -0.2030 -0.1496
24788W        W41636  10.948   8.482   5.321 -0.1248  0.0810 -0.0479
24789W        W41637   7.128   8.964  14.315 -0.0668 -0.4052  0.2303
24790W        W41638   1.054   7.174   0.081 -0.0412 -0.0380 -0.1751
24791W        W41639  15.337   4.219   3.288  0.1061 -0.1470  0.1943
24792W        W41640  13.917  12.961  13.014 -0.1387 -0.1851  0.0463
24793W        W41641   3.863  12.115  13.739 -0.0270  0.0316  0.0744
24794W        W41642   6.332  14.682   0.914 -0.0688  0.4158  0.0352
24795W        W41643   6.375  12.371   0.919  0.0179 -0.0882 -0.3662
24796W        W41644  16.350   9.687   3.052  0.0195 -0.3822  0.1801
24797W        W41645  11.328   6.522  11.430 -0.8176 -0.0744 -0.3799
24798W        W41646  12.248  17.079   1.181  0.0143 -0.0226 -0.3621
24799W        W41647   2.011  14.729  14.746  0.1173  0.2476 -0.1430
24800W        W41648  16.081  13.734   5.291  0.2014  0.1949 -0.3915
24801W        W41649   2.347  10.927  13.119  0.1101  0.4344 -0.2158
24802W        W41650  17.913   4.442   0.082 -0.0600 -0.0247  0.0168
24803W        W41651   6.578   8.799  15.264 -0.0470 -0.1137 -0.1352
24804W        W41652   9.895  14.938  12.523  0.1794  0.1048 -0.2122
24805W        W41653   5.859   8.054  15.295  0.2761  0.1860  0.1429
24806W        W41654   9.347   8.194  11.066 -0.1732 -0.6923 -0.2987
24807W        W41655  15.477  13.845   3.437  0.3313  0.0880 -0.1976
24808W        W41656   4.023  10.386  15.801 -0.2050  0.0496 -0.3219
24809W        W41657  15.087   3.769  15.905 -0.0390 -0.1133  0.0572
24810W        W41658  12.390  16.971  15.875 -0.1934 -0.1412 -0.2511
24811W        W41659   3.836   9.636  12.181 -0.0693  0.2269  0.0150
24812W        W41660  16.412  10.431  15.773 -0.2583 -0.0187  0.1382
24813W        W41661  11.475   5.480  13.882  0.6208  0.0050 -0.4388
24814W        W41662   8.619   5.040   2.566 -0.1944  0.1746  0.0234
24815W        W41663  14.878  13.458   2.665 -0.0076 -0.1008 -0.1972
24816W        W41664   9.526  15.785   0.748 -0.0586  0.3968 -0.1947
24817W        W41665   3.143  10.697   4.224  0.3052  0.3036  0.1305
24818W        W41666  13.606   0.129   2.867 -0.0228 -0.2259 -0.0772
24819W        W41667  10.490  12.945  14.070 -0.0929  0.1465 -0.2082
24820W        W41668   8.892   5.317  11.353 -0.1658  0.1023 -0.1277
24821W        W41669   3.571   5.037  12.919  0.0637 -0.0965  0.1368
24822W        W41670   2.808  14.837   4.011 -0.0709 -0.1714 -0.0901
24823W        W41671   4.838   5.780  13.954 -0.2449  0.0423  0.0968
24824W        W41672   1.219  16.650  11.165  0.1747 -0.1019  0.2720
24825W        W41673   7.842  12.795   3.621 -0.1010 -0.0615  0.0280
24826W        W41674   8.809  16.037   0.315  0.2133 -0.0638 -0.0230
24827W        W41675   3.835  17.476   0.030  0.1272  0.2631 -0.1847
24828W        W41676   7.123   5.635   5.216 -0.1753 -0.0286 -0.0661
24829W        W41677  11.264   2.278   3.740 -0.0615 -0.0018  0.3405
24830W        W41678   2.664   9.301   3.654 -0.3926  0.1824  0.2406
24831W        W41679  10.422  15.554   2.288 -0.0394  0.0682 -0.2565
24832W        W41680   2.767  11.780  14.235 -0.0471 -0.1101 -0.1164
24833W        W41681   6.424   8.074   1.755 -0.1534 -0.1988 -0.2422
24834W        W41682   3.350   6.195  15.982  0.0504  0.0212  0.0831
24835W        W41683  16.957   9.850  13.734  0.1454  0.1205 -0.1378
24836W        W41684   4.435   8.090  13.479 -0.0922  0.0790 -0.1686
24837W        W41685   8.938   4.830   0.658  0.1186  0.2446  0.3810
24838W        W41686  11.323  15.434   5.257  0.1947 -0.0359 -0.2232
24839W        W41687  12.950   2.648  15.358  0.2796 -0.0134  0.1127
24840W        W41688  11.678  13.472   1.480  0.1299 -0.1153  0.2889
24841W        W41689  14.365   2.847   0.557  0.0611 -0.1323 -0.0632
24842W        W41690   9.682   4.020  10.922 -0.2574 -0.1933  0.0314
24843W        W41691   7.477  16.992   0.872  0.0379  0.3570 -0.0361
24844W        W41692   9.882   6.625  10.976  0.1674  0.1414  0.0945
24845W        W41693   8.197  16.396   1.910  0.3772 -0.0721  0.2559
24846W        W41694   4.570  14.263   5.208  0.4284 -0.1535 -0.2132
24847W        W41695   6.690  13.247  10.491 -0.2383 -0.0500  0.0024
24848W        W41696   9.876   0.265   1.414 -0.1751  0.2119 -0.0586
24849W        W41697   0.516   4.223  13.428 -0.0337 -0.2211 -0.3059
24850W        W41698  13.317  13.831   2.210 -0.0903 -0.1868  0.0749
24851W        W41699   7.535  15.861   5.255 -0.1354  0.1352  0.0855
24852W        W41700   9.544   1.701  13.077  0.2157  0.0221  0.3073
24853W        W41701   9.444  11.421  14.509  0.0205  0.0285  0.1177
24854W        W41702  10.529   5.710  11.753  0.2651 -0.0595 -0.1596
24855W        W41703   0.581  17.384  15.262 -0.1827 -0.1809  0.2728
24856W        W41704   9.842   4.582   4.894 -0.0930  0.2336  0.4634
24857W        W41705  17.425  13.945  15.075 -0.4168 -0.1916  0.0733
24858W        W41706   3.196  12.294   0.797 -0.1746 -0.1463 -0.5740
24859W        W41707   2.722  15.350   3.986  0.0788  0.0142  0.1472
24860W        W41708   9.272  13.091  15.798 -0.1628  0.1316 -0.3728
24861W        W41709   7.983   0.906  12.468 -0.2916  0.1903 -0.0532
24862W        W41710   8.818  13.498  15.009 -0.1845  0.2472  0.1630
24863W        W41711  16.472   8.732   0.916 -0.1713 -0.1404 -0.2723
24864W        W41712   7.431  17.144  11.652  0.2550  0.2071 -0.0397
24865W        W41713   9.614   2.883  12.852 -0.1171 -0.1064 -0.1053
24866W        W41714   8.292  12.243  14.014  0.0833  0.0665  0.2027
24867W        W41715   4.843   6.903  15.327 -0.1155  0.1196  0.0963
24868W        W41716   1.633  16.178   5.059 -0.0949 -0.0992 -0.1493
24869W        W41717  15.908  15.153  15.342  0.2177  0.1500  0.2064
24870W        W41718   8.087  15.069  15.985 -0.0957  0.4247  0.2097
24871W        W41719   8.880  11.371  11.272  0.1256  0.5208  0.0703
24872W        W41720   3.003   6.732   1.987 -0.1442 -0.2880 -0.2139
24873W        W41721  10.412  13.539   0.559 -0.0261  0.1657 -0.2356
24874W        W41722   5.505  14.470   2.286 -0.0117 -0.0475 -0.1199
24875W        W41723  12.355   9.432   4.442  0.4263 -0.5831  0.0464
24876W        W41724   9.865  17.736   3.363  0.0398  0.0155  0.0188
24877W        W41725   2.150   3.715   4.307 -0.0222 -0.0927 -0.1108
24878W        W41726   3.771  14.932   4.311  0.1458  0.2809  0.3069
24879W        W41727   4.275  17.091  15.830 -0.0471 -0.1476 -0.0753
24880W        W41728   2.330   6.352  12.721  0.2927  0.0348 -0.2998
24881W        W41729   9.436   1.710   0.440  0.2280  0.1014  0.0756
24882W        W41730   1.608   1.094   3.378  0.1074 -0.1860  0.1710
24883W        W41731   9.292   1.278  14.166  0.0143  0.2367 -0.1848
24884W        W41732  16.522  10.590  14.688  0.2476  0.1361 -0.0718
24885W        W41733  11.834   7.617  13.493 -0.0484 -0.0856 -0.0287
24886W        W41734  14.390   6.745   3.637  0.2461 -0.1975 -0.1181
24887W        W41735   8.346  17.932   3.210  0.0898 -0.4949 -0.1114
24888W        W41736  11.743  10.429   4.435  0.1160 -0.2326 -0.0519
24889W        W41737  10.314   3.365   1.342 -0.1482  0.5363  0.1739
24890W        W41738   8.706  10.592  14.461 -0.2327  0.0457 -0.0078
24891W        W41739  11.411  16.375   4.179 -0.1570  0.0470  0.1925
24892W        W41740  12.383   1.646   4.417 -0.0220  0.2888 -0.0443
24893W        W41741  16.578  12.116  14.645 -0.2682 -0.1250 -0.1770
24894W        W41742   9.512  12.091  13.377  0.0234 -0.1261 -0.2679
24895W        W41743   4.653   9.349   0.662 -0.1641  0.1294  0.0413
24896W        W41744   4.098   7.948   2.723 -0.1336  0.0777 -0.0562
24897W        W41745   0.723  15.791   3.371 -0.1305 -0.1516  0.1711
24898W        W41746   2.285   8.642   4.808  0.0694 -0.1416  0.3659
24899W        W41747  13.595   3.369  11.511 -0.2084  0.1913 -0.0399
24900W        W41748  15.265  10.322   0.852  0.1014 -0.0017  0.3424
24901W        W41749  11.762  14.117  15.696 -0.1844 -0.1097 -0.1507
24902W        W41750  14.783   9.600   0.242  0.2977 -0.1069 -0.1340
24903W        W41751  11.188   9.019  13.839 -0.0703  0.1106  0.3816
24904W        W41752  16.574   4.072   2.919 -0.3002 -0.0227  0.0943
24905W        W41753   4.248   5.763  11.758 -0.0972  0.1581 -0.1696
24906W        W41754   4.080  11.414   4.936 -0.0262 -0.0012 -0.0976
24907W        W41755   9.845  14.884  15.454 -0.1453  0.1284 -0.0053
24908W        W41756  10.005   2.378  14.727 -0.1353 -0.1665  0.1903
24909W        W41757   5.056   1.826  12.725  0.0948  0.2047  0.0242
24910W        W41758  16.874   0.887   0.524  0.1772 -0.0700 -0.0267
24911W        W41759   2.534   3.974  12.952  0.0077  0.0428  0.2437
24912W        W41760  12.478   9.122   1.016 -0.1214  0.1714 -0.2767
24913W        W41761   0.935   7.347  10.717 -0.0624  0.2192  0.0067
24914W        W41762   0.709   7.845   2.627 -0.2827  0.0859  0.1189
24915W        W41763   5.094  17.654   5.252  0.0301 -0.3469  0.0701
24916W        W41764   2.460   3.288   0.427  0.2280  0.3864  0.1710
24917W        W41765  13.219   1.191  16.152  0.0509  0.1118 -0.2033
24918W        W41766   4.094   2.487  12.761  0.0669 -0.1283  0.1254
24919W        W41767   1.150  10.270  15.064 -0.3647  0.0243 -0.0140
24920W        W41768   6.559   0.271  11.583  0.0962  0.1950  0.2260
24921W        W41769   3.618   8.986  12.941  0.0266  0.2138  0.0167
24922W        W41770   6.502   3.024   2.726 -0.1209  0.1945  0.1985
24923W        W41771  15.554  17.232   2.804 -0.0171 -0.4605 -0.0202
24924W        W41772   7.356   3.425  11.937 -0.1893 -0.2661 -0.0110
24925W        W41773  14.550  10.441  12.543 -0.0705 -0.1845  0.2075
24926W        W41774  10.162   7.303  11.859 -0.0642  0.3106 -0.2468
24927W        W41775  11.588   5.636  11.885 -0.0503 -0.2041  0.1920
24928W        W41776   3.578  16.029   4.955  0.1403  0.2793  0.0747
24929W        W41777  12.147   3.564   2.389  0.2212  0.0266  0.3340
24930W        W41778   2.621  16.310   1.980 -0.0753 -0.0567  0.3515
24931W        W41779  10.780  11.804  11.233 -0.1118 -0.0439  0.0797
24932W        W41780  13.244   3.980  13.781 -0.0941  0.1198 -0.1895
24933W        W41781  11.323  12.030  12.283  0.0968 -0.1115 -0.0412
24934W        W41782  10.035   6.611   0.236  0.5190  0.4089  0.0815
24935W        W41783   3.211   4.558  14.127 -0.3277  0.3287 -0.2385
24936W        W41784   4.138   7.943   0.617 -0.1296 -0.3933  0.2688
24937W        W41785   2.563  13.542  14.994  0.4994 -0.0747  0.0122
24938W        W41786   6.635   5.943  14.395 -0.1539 -0.1085  0.0079
24939W        W41787  10.709  15.892   4.944 -0.2873 -0.0785  0.1783
24940W        W41788   1.738  16.371   2.026 -0.0363 -0.0086  0.0388
24941W        W41789  13.741  10.806   0.776 -0.0102  0.2015  0.0057
24942W        W41790   5.924  17.738   0.893  0.0123 -0.2838 -0.2273
24943W        W41791   2.614   9.598  13.296 -0.3665 -0.1944 -0.0836
24944W        W41792  16.695   7.184  12.801  0.0273  0.3083  0.0228
24945W        W41793   9.712   4.848   1.878  0.1126  0.2337 -0.1174
24946W        W41794  14.864   4.350   4.463 -0.1229 -0.1503  0.2689
24947W        W41795  10.688   7.818   0.012 -0.0328 -0.0638 -0.1978
24948W        W41796   2.434  13.171  12.381  0.1579 -0.2921 -0.2308
24949W        W41797   2.423  10.565   1.994 -0.0298 -0.2335  0.0075
24950W        W41798   7.080  11.626  12.679  0.1580 -0.3032 -0.0823
24951W        W41799   1.775   6.926  12.441  0.1378 -0.0271  0.2023
24952W        W41800  11.386  13.623   2.898  0.1590  0.0021  0.0576
24953W        W41801   6.862   6.258   3.539  0.0064 -0.0363  0.0991
24954W        W41802  11.196   8.776   0.833 -0.0134  0.3054 -0.0903
24955W        W41803   1.022  12.957  12.687  0.2356  0.0529  0.3275
24956W        W41804  17.018  14.648   3.014 -0.4637 -0.0336 -0.3310
24957W        W41805  10.342  12.270   2.301 -0.0258 -0.2617 -0.1945
24958W        W41806  13.314   5.946   1.256 -0.3005 -0.0752  0.3606
24959W        W41807  17.733   3.793  13.231  0.1863  0.1685 -0.3084
24960W        W41808  16.152   8.974   5.405  0.0391 -0.0321 -0.0978
24961W        W41809  11.542  14.366   4.554  0.5895 -0.3028  0.0808
24962W        W41810   8.095  10.443   1.794  0.3810  0.0028 -0.2696
24963W        W41811  17.693  16.799   3.473 -0.0610 -0.0512  0.0575
24964W        W41812   3.955   4.333   4.532 -0.0321 -0.0553  0.0583
24965W        W41813  16.244  12.681   3.945 -0.0795  0.2819  0.2135
24966W        W41814  16.180   0.494   2.383  0.0974  0.1573 -0.6650
24967W        W41815   7.972   0.887   4.206 -0.1978 -0.3183 -0.0718
24968W        W41816   3.499   2.340   1.919 -0.0147 -0.0567 -0.3530
24969W        W41817   1.286   6.662  16.201 -0.4717 -0.2499  0.0979
24970W        W41818   7.008  14.897  14.666 -0.2930 -0.0317  0.3024
24971W        W41819  11.630  16.292  11.539  0.1349 -0.3089 -0.2677
24972W        W41820   8.017  10.644  13.016  0.3696  0.2331 -0.3967
24973W        W41821   2.425   2.889   0.727  0.0225  0.0644  0.0709
24974W        W41822   3.197  15.906  10.080  0.6339  0.1223 -0.0057
24975W        W41823  16.628  13.394  12.120  0.2268  0.0990 -0.3403
24976W        W41824   6.190   6.408  11.826  0.2103 -0.3005  0.0429
24977W        W41825   0.527  11.602  14.622  0.0981 -0.1603  0.2036
24978W        W41826   1.784   3.826  15.291  0.1161  0.1653  0.2325
24979W        W41827   1.419   7.495  14.531 -0.1375  0.1232 -0.1149
24980W        W41828   4.214  15.146   3.555  0.1640  0.0034  0.0710
24981W        W41829  14.171  12.914  11.596 -0.1696 -0.1801 -0.2577
24982W        W41830   1.705   1.049  12.498 -0.3513  0.0691  0.2143
24983W        W41831  17.457   7.565   6.167  0.2739 -0.0921 -0.3955
24984W        W41832  17.413   6.926  11.967  0.1531 -0.5050 -0.1736
24985W        W41833   9.218  10.026  15.256  0.0916 -0.0105  0.3517
24986W        W41834   5.223  10.185   0.976  0.1139  0.2003 -0.3250
24987W        W41835   7.447   0.976   1.203  0.0719  0.3587  0.0338
24988W        W41836  16.464   2.773  13.820  0.3419  0.0895  0.1371
24989W        W41837   0.131   3.769  12.541  0.0696 -0.2637 -0.2338
24990W        W41838  16.589  16.917   2.806  0.0176  0.1088  0.0457
24991W        W41839   3.657   2.527  15.536 -0.1067 -0.2972 -0.0896
24992W        W41840  15.786   7.110   0.261 -0.2209  0.3061 -0.3956
24993W        W41841  15.871  11.952  12.063 -0.0650  0.2944  0.1690
24994W        W41842   1.692  15.408  14.174 -0.1472 -0.1069  0.0863
24995W        W41843   7.739   9.046   5.946 -0.1731 -0.1666 -0.1402
24996W        W41844  17.792   7.396  15.385 -0.2784  0.0714  0.1723
24997W        W41845   2.482  17.318   2.348  0.0425 -0.0534 -0.1850
24998W        W41846  11.761   0.513   0.110 -0.0462 -0.0427 -0.2024
24999W        W41847   8.459   3.196  12.226 -0.0430  0.1438 -0.3538
25000W        W41848   1.067  13.132   5.386 -0.2646 -0.0120 -0.0159
25001W        W41849   1.778   9.244   2.033 -0.1836  0.0928  0.1192
25002W        W41850  14.594   7.934  15.052  0.2518 -0.2350  0.0903
25003W        W41851   0.504   3.840   2.727 -0.1240 -0.1306 -0.2196
25004W        W41852   1.443   6.920  12.817 -0.1274  0.1803 -0.2552
25005W        W41853   7.164  13.976   0.940  0.4730 -0.0160 -0.0454
25006W        W41854  14.455   3.622  11.699  0.4399  0.0604 -0.0884
25007W        W41855   8.856  12.874  11.261  0.3103  0.0330 -0.2544
25008W        W41856  11.357   0.212   5.382 -0.1773 -0.3923 -0.1509
25009W        W41857  15.795  15.732   2.709 -0.3581  0.0301  0.0738
25010W        W41858  16.574   8.837  13.078  0.1171 -0.1339 -0.4030
25011W        W41859  10.770   8.110  14.903 -0.5637  0.2970 -0.3229
25012W        W41860  16.996  11.621   0.105  0.0003 -0.2516 -0.0295
25013W        W41861  12.656   2.126  13.265 -0.0844  0.0479 -0.2002
25014W        W41862   2.492  12.201   4.494  0.0014  0.0673  0.1771
25015W        W41863  17.798   4.748  15.167  0.4721 -0.2090 -0.0846
25016W        W41864   2.952  16.613   3.252 -0.0959  0.0305 -0.1092
25017W        W41865  15.201   3.255   0.565  0.1671  0.2779 -0.1230
25018W        W41866   6.507  16.786  11.612  0.0866  0.3559 -0.2175
25019W        W41867   3.989   3.816   4.581 -0.3796  0.1639  0.0320
25020W        W41868  13.945  11.994  11.540  0.1356  0.1445  0.5752
25021W        W41869   3.578  11.811  12.077  0.3018 -0.0144  0.1989
25022W        W41870  13.135   9.646  11.336  0.1459  0.0183 -0.4425
25023W        W41871  15.076  10.087   0.053  0.0128 -0.1663 -0.0220
25024W        W41872  17.521   2.056  16.132  0.3379 -0.1347  0.0958
25025W        W41873  13.779  16.935   4.463 -0.0707  0.0205  0.0833
25026W        W41874   1.266   0.478  14.045  0.0652  0.1730 -0.0785
25027W        W41875   6.962  11.132  13.751 -0.2123  0.0413  0.0208
25028W        W41876   6.775   8.433  12.616 -0.0133 -0.1323 -0.2243
25029W        W41877   3.417   3.791   2.112 -0.0923  0.1734  0.0807
25030W        W41878   2.425   5.877  11.295  0.0265  0.4063 -0.2988
25031W        W41879   7.822  13.655   0.806  0.2799 -0.1497 -0.2043
25032W        W41880   2.793   3.505   2.307  0.1453 -0.3028 -0.0604
25033W        W41881  12.256  14.550   5.043  0.3211 -0.0566  0.3262
25034W        W41882  14.653  10.643   2.473 -0.2232  0.0814  0.0293
25035W        W41883   3.774  15.231   2.141 -0.1316 -0.0633 -0.1955
25036W        W41884   5.235   8.332  15.437  0.3667  0.4167 -0.3361
25037W        W41885  10.500  11.837  11.701 -0.0005  0.3306 -0.0465
25038W        W41886   7.926   5.191  16.234  0.0366 -0.0565 -0.2547
25039W        W41887   4.242   4.846   0.656 -0.2263 -0.2458  0.0129
25040W        W41888  10.676   3.821  13.935  0.0058 -0.0968  0.0629
25041W        W41889   9.563   4.885   3.586 -0.1601  0.1456 -0.0222
25042W        W41890   6.788   6.932  11.508  0.1573 -0.0710 -0.0564
25043W        W41891  15.001   1.191   4.084  0.0011 -0.0302  0.1361
25044W        W41892   4.205   1.803   1.955 -0.0835 -0.0294  0.0017
25045W        W41893  14.768  12.454  14.226  0.0753 -0.0918 -0.1040
25046W        W41894   9.890  17.387   0.056  0.0059  0.0386 -0.3765
25047W        W41895   3.786   3.554  14.568  0.2634 -0.1990  0.3737
25048W        W41896   2.555  10.543   0.989  0.1042 -0.1040 -0.1708
25049W        W41897  12.871   3.675  13.899  0.0258  0.3970  0.1902
25050W        W41898   5.418   2.584   5.021 -0.0200 -0.3085  0.4800
25051W        W41899   8.516  17.365  15.974 -0.2761  0.1686 -0.2306
25052W        W41900   7.403   5.183   0.254 -0.6932  0.2392 -0.0649
25053W        W41901  17.157   5.038  14.326  0.2021  0.4495 -0.1152
25054W        W41902   5.177   8.991  14.153  0.0580  0.3257 -0.2252
25055W        W41903   5.076  17.225   1.349 -0.2036 -0.1008 -0.1426
25056W        W41904  10.041   5.565  11.797  0.0885 -0.3150  0.1792
25057W        W41905  13.353   1.463  12.076  0.1005 -0.1764 -0.0016
25058W        W41906   1.488   5.568   0.374 -0.2531  0.3267 -0.1543
25059W        W41907   2.565  18.040  12.703  0.2460  0.0440 -0.2583
25060W        W41908   0.184   1.268  13.825  0.1867 -0.0177  0.0944
25061W        W41909  10.180   2.034  13.413 -0.0395  0.0591  0.0509
25062W        W41910   6.544   7.230   4.156 -0.1666  0.0932  0.1679
25063W        W41911   3.486   6.447  12.435 -0.2592 -0.0635  0.2041
25064W        W41912   5.970  10.099  12.665  0.0463 -0.1704 -0.1150
25065W        W41913  10.970  12.635  15.949  0.0213  0.1744 -0.1309
25066W        W41914  11.364  17.839  14.766 -0.3773 -0.0778  0.0210
25067W        W41915  17.646   1.088  12.147  0.0350 -0.0660 -0.1752
25068W        W41916  13.293  15.958   2.652 -0.1146 -0.1224 -0.1332
25069W        W41917   7.453  13.286   0.997  0.1201 -0.3139 -0.1166
25070W        W41918  10.037   2.597   0.757 -0.1405 -0.1804  0.3733
25071W        W41919   5.832  11.544  14.886  0.3150  0.2085  0.1221
25072W        W41920   0.834   3.583  13.921  0.2865  0.1492 -0.0739
25073W        W41921   7.409   1.390  11.587  0.0017 -0.1355 -0.1447
25074W        W41922  16.451   9.141  11.373 -0.0476 -0.0806 -0.0341
25075W        W41923  12.584  15.024   4.237 -0.0012  0.1037 -0.0659
25076W        W41924   7.295  14.425   1.227  0.0725  0.0621  0.5350
25077W        W41925   0.029   0.645   3.153  0.0662 -0.6153 -0.0670
25078W        W41926   8.841   7.817  13.325  0.0931 -0.0830 -0.3844
25079W        W41927  15.324   8.926   4.374  0.2674  0.1715  0.2490
25080W        W41928  14.363   5.643  12.449  0.1713 -0.1767 -0.1711
25081W        W41929  16.119  17.905   0.383 -0.0700  0.0936 -0.0145
25082W        W41930  15.215  13.595   3.796  0.1461  0.0506 -0.1487
25083W        W41931  16.509  16.440   2.565 -0.1561  0.1830  0.0302
25084W        W41932   1.319  17.312   3.575  0.0084 -0.1022  0.3274
25085W        W41933   8.040  16.043  12.133  0.0452 -0.1385 -0.1262
25086W        W41934   3.302   6.806   0.592  0.1955  0.1055 -0.1870
25087W        W41935   3.454   8.573   5.722  0.0020  0.0506  0.1109
25088W        W41936  12.026   4.966   1.658  0.0985  0.1386 -0.2195
25089W        W41937  16.384  12.789  15.065  0.0362  0.0688 -0.0824
25090W        W41938   9.941  16.859   2.137 -0.4637  0.2939  0.0096
25091W        W41939  12.667  12.024  12.962  0.2624 -0.2683  0.2567
25092W        W41940   2.308   6.407   0.656 -0.1894 -0.0163  0.1948
25093W        W41941  17.294  10.478  11.777 -0.2790  0.0583  0.1398
25094W        W41942  11.101   6.593   4.751  0.1204  0.2046 -0.0919
25095W        W41943   9.116  12.362  14.455 -0.0285  0.1028 -0.0808
25096W        W41944   8.681   1.883  12.599 -0.1593 -0.0909 -0.0520
25097W        W41945   3.776  13.681   0.708 -0.0097 -0.0848  0.3114
25098W        W41946  17.559  15.187   3.849  0.1660 -0.0046 -0.2351
25099W        W41947  14.740   8.272   0.343 -0.0820  0.0014  0.3594
25100W        W41948   6.925   9.601   1.191 -0.1196  0.2044  0.0390
25101W        W41949  13.502  12.719   1.966 -0.0724 -0.0719 -0.0665
25102W        W41950   9.341   4.412  10.949  0.1853 -0.0282 -0.1627
25103W        W41951  17.870   1.723  12.445 -0.4246  0.2321 -0.2678
25104W        W41952  12.690   3.813   3.084  0.0569 -0.1667  0.0087
25105W        W41953   3.603   1.093   0.322 -0.0562 -0.2494 -0.0818
25106W        W41954  17.062   0.901   1.632  0.0845 -0.2263  0.1290
25107W        W41955  15.918   7.358   5.105 -0.1697  0.0852  0.0082
25108W        W41956  17.546   2.700   3.183  0.3101 -0.0458 -0.0793
25109W        W41957   5.117   8.527   3.701  0.2308 -0.1712 -0.1082
25110W        W41958   4.574  13.030  14.521  0.0073 -0.1245  0.0586
25111W        W41959   3.115   5.497   3.451 -0.1796 -0.1319 -0.0227
25112W        W41960   2.975   1.143  15.393 -0.2119 -0.0814 -0.0117
25113W        W41961   2.332   7.045   0.633  0.1760 -0.0454 -0.0808
25114W        W41962  16.737  14.356  10.722  0.0524  0.2920  0.2704
25115W        W41963   6.789   4.932  12.607  0.1433 -0.0105 -0.0225
25116W        W41964   7.694   9.757  12.805  0.0896  0.0084  0.3824
25117W        W41965   5.339   5.103  10.674  0.0587 -0.0979 -0.2757
25118W        W41966   6.541  11.328   1.309 -0.0249  0.0001 -0.0062
25119W        W41967   3.006   6.949  12.486 -0.0204  0.1092 -0.0476
25120W        W41968   2.882   4.167  15.841 -0.0195 -0.0115  0.1189
25121W        W41969   6.146  16.898  12.866  0.0698 -0.1351  0.1882
25122W        W41970  10.274   1.448  14.929 -0.1633 -0.1504  0.0899
25123W        W41971   9.221   8.465  15.805 -0.2400  0.1580  0.3128
25124W        W41972   9.238  17.116   0.637  0.0124 -0.1105  0.0019
25125W        W41973   5.124  13.795  15.696 -0.2073  0.2868 -0.1344
25126W        W41974  13.714   2.823  11.386  0.1800  0.1043 -0.0114
25127W        W41975   1.199   7.170  13.725  0.1577 -0.3982  0.0770
25128W        W41976   3.177   6.119   1.099  0.0305  0.1974 -0.2537
25129W        W41977   7.525  14.766  15.285  0.3609  0.1857 -0.1698
25130W        W41978   9.622   8.740  11.159 -0.4033 -0.0290  0.1841
25131W        W41979   2.336   2.616  12.834 -0.0606 -0.0159  0.1273
25132W        W41980   8.775  14.369  15.879 -0.1330 -0.0271 -0.0987
25133W        W41981   3.146   3.468   4.417 -0.0044  0.2956  0.2267
25134W        W41982  15.352   1.524   1.789 -0.0867  0.0806 -0.2585
25135W        W41983  14.204   0.117  12.433 -0.0390 -0.1449 -0.2279
25136W        W41984   5.035   9.873   1.413  0.2213 -0.1593 -0.3139
25137W        W41985   3.800   3.650   3.382  0.0777  0.0044  0.1566
25138W        W41986   5.573  11.306  14.473 -0.3040  0.1131 -0.0374
25139W        W41987   6.511   4.843   2.363  0.1369 -0.1110 -0.0094
25140W        W41988   5.532  12.471  13.614 -0.0009 -0.0851  0.2712
25141W        W41989   5.733   5.850  12.911 -0.1480 -0.0115  0.3220
25142W        W41990   4.086   8.549  14.800  0.2263  0.0558  0.0417
25143W        W41991   1.012  10.237   4.722 -0.0515  0.1081  0.4553
25144W        W41992  14.363   1.842  13.416 -0.1422  0.0578 -0.0875
25145W        W41993   5.169  12.127  13.438  0.0581  0.0122  0.1294
25146W        W41994   6.634  12.265  14.592 -0.2268 -0.1156  0.1992
25147W        W41995   2.238   9.283   2.102 -0.3012 -0.0220  0.0444
25148W        W41996   0.151   5.216   0.639 -0.0535  0.2266  0.0756
25149W        W41997  15.188   4.772  14.523  0.1571  0.0099 -0.0810
25150W        W41998   1.961  16.030  16.274  0.0824 -0.0407 -0.0674
25151W        W41999   7.299   4.823  12.491  0.0017 -0.0516  0.0066
25152W        W42000   6.229   8.722   1.248  0.0839 -0.0709 -0.0457
25153W        W42001   3.441  11.393   2.875  0.0837 -0.0157  0.4861
25154W        W42002   9.243   7.497  13.589  0.0526  0.0501  0.0395
25155W        W42003  14.687  10.860  12.806  0.0124  0.0830 -0.2343
25156W        W42004   7.627  16.479   1.863  0.0240 -0.0722  0.0782
25157W        W42005  15.347   1.527   3.907 -0.1020  0.5678  0.0076
25158W        W42006  17.936  11.556  11.925  0.2019  0.2633  0.1644
25159W        W42007  10.160  13.036   3.995 -0.1033  0.0486  0.1772
25160W        W42008  17.966   3.088   3.535  0.0992  0.0074 -0.1298
25161W        W42009  16.021  13.517   2.011 -0.0584 -0.1317  0.0179
25162W        W42010   6.225  10.503  13.317 -0.0728  0.1363  0.1880
25163W        W42011   2.391  16.469  14.769 -0.2852  0.2077  0.0511
25164W        W42012   7.717   0.688   2.280 -0.0545 -0.0389 -0.0386
25165W        W42013   8.547   3.148  11.759  0.1342  0.0186  0.2428
25166W        W42014  13.008  16.552   4.479  0.2586 -0.0664  0.2460
25167W        W42015  15.966   5.784   0.965  0.1744 -0.2182  0.1036
25168W        W42016  16.490   2.526   5.940 -0.1182  0.1459  0.0420
25169W        W42017   6.364   2.142  11.282  0.1115 -0.2361  0.0649
25170W        W42018   1.724   1.512  13.436  0.0207 -0.0381 -0.1715
25171W        W42019   3.917   3.962  12.424  0.1182  0.0598  0.1854
25172W        W42020  15.614  16.491  14.594  0.0508 -0.0974  0.0642
25173W        W42021   5.370   1.169   5.243  0.1117  0.0699 -0.1605
25174W        W42022   8.905  14.246   0.146 -0.0399 -0.1739  0.0612
25175W        W42023   0.351   6.454   2.645  0.1265  0.1209  0.1813
25176W        W42024   2.476  15.908   2.337 -0.0810  0.3924  0.0600
25177W        W42025   6.686   1.649   2.451  0.0368  0.1588 -0.0023
25178W        W42026  17.596   4.109  12.362 -0.1210  0.1038 -0.0195
25179W        W42027  17.288   4.600  15.699  0.0708  0.0645  0.1451
25180W        W42028  12.163  11.666  13.666 -0.1341  0.4008 -0.0935
25181W        W42029  11.495  10.926   4.442  0.1365 -0.1558 -0.0908
25182W        W42030   8.934   0.358  12.107 -0.3045  0.0761  0.2389
25183W        W42031   3.099  16.170  13.207 -0.0820  0.1689  0.2690
25184W        W42032  10.408   8.719  14.927 -0.1171  0.1836 -0.2780
25185W        W42033   5.960  17.649   1.864 -0.4644 -0.2019  0.0961
25186W        W42034   4.483  16.047  11.326 -0.1250 -0.2547  0.1117
25187W        W42035  16.547   4.559   2.720  0.1672  0.0015  0.1016
25188W        W42036  10.179   6.690   2.720  0.0145  0.1413  0.1059
25189W        W42037   1.897  17.733   0.762 -0.2064 -0.0200  0.3434
25190W        W42038  15.403   0.673   2.266  0.0397 -0.0744  0.1635
25191W        W42039  12.401  14.742  15.095 -0.1692 -0.2419 -0.0518
25192W        W42040  12.360  15.858  12.281 -0.2960  0.2029  0.0932
25193W        W42041  11.200   2.655  13.012 -0.0247  0.3049 -0.0357
25194W        W42042  15.987  14.745  16.235  0.0805 -0.0081  0.0606
25195W        W42043   5.084   9.410   2.146 -0.2510  0.1058 -0.1688
25196W        W42044  13.272  11.145  12.388  0.0339  0.1069  0.2252
25197W        W42045  13.732  10.623  13.190  0.0323 -0.0174  0.3866
25198W        W42046  15.872   9.992   3.827  0.1405  0.0543  0.0499
25199W        W42047  11.301  14.966  12.724  0.3911 -0.1871  0.0507
25200W        W42048   3.973   2.292  12.059 -0.0508 -0.1651 -0.5050
25201W        W42049  16.800   5.920  12.285 -0.1473  0.1455 -0.1644
25202W        W42050   6.759  17.110   5.142 -0.1842 -0.1324  0.2643
25203W        W42051  14.724   3.347  14.849 -0.0878  0.2852 -0.1402
25204W        W42052   4.558   4.385   1.938  0.0200  0.0127  0.0205
25205W        W42053  15.645   3.897  15.905  0.1079 -0.1494  0.2697
25206W        W42054  17.417   0.295   1.160  0.0784  0.0551  0.0718
25207W        W42055  10.356  11.335   0.230  0.0296 -0.0503 -0.1107
25208W        W42056  13.258  11.621   2.133  0.4100 -0.1174  0.2492
25209W        W42057  14.520   4.836  15.224 -0.2540  0.0104 -0.1127
25210W        W42058   7.481  11.052  12.600 -0.0035 -0.0135 -0.0251
25211W        W42059   9.540   1.335  11.849  0.0305 -0.0015 -0.0882
25212W        W42060  15.818  16.110  15.020  0.0900 -0.1515 -0.1911
25213W        W42061  15.427   7.758   3.782  0.0075  0.2225 -0.0995
25214W        W42062   7.385  15.438   3.350 -0.1025  0.2358  0.0414
25215W        W42063  16.442   3.628  14.051  0.2919  0.2526 -0.2618
25216W        W42064  11.101  15.088   3.782 -0.3237  0.2538  0.0125
25217W        W42065   5.636  13.801   1.541 -0.1204 -0.0587  0.2339
25218W        W42066   9.372   1.300  12.738  0.0798 -0.1676  0.1964
25219W        W42067  10.030  14.418   4.233  0.0658 -0.0215 -0.0092
25220W        W42068   4.648  15.781   2.979  0.0245 -0.0114  0.0024
25221W        W42069  10.162  13.294  14.244 -0.2033  0.1429  0.1087
25222W        W42070  10.507   0.019  11.056  0.0126  0.1776 -0.1879
25223W        W42071   5.279  18.015   3.006 -0.0441 -0.0779  0.0434
25224W        W42072  14.258   0.602   2.174  0.2539 -0.0988  0.0724
25225W        W42073   2.393   7.916  13.630  0.0180  0.0456 -0.1423
25226W        W42074  15.021  17.831   4.627 -0.1781 -0.0086  0.0536
25227W        W42075   0.451   9.404   0.529  0.3824  0.0918 -0.1960
25228W        W42076  12.301   4.645   5.149 -0.0568 -0.0312  0.2431
25229W        W42077   2.051   6.483  16.285 -0.1215 -0.1397  0.0924
25230W        W42078  16.384   5.904   4.957 -0.2012 -0.0874 -0.0262
25231W        W42079   6.259  12.473  16.330 -0.0689 -0.0795 -0.2123
25232W        W42080   2.959   5.942   2.710  0.3833 -0.2432  0.2979
25233W        W42081  13.282   8.804  12.987  0.0573 -0.0965  0.0026
25234W        W42082   1.626  16.235   1.564 -0.0918 -0.0221  0.1280
25235W        W42083   4.553   9.277  12.031 -0.0859  0.1577  0.1513
25236W        W42084   7.091   5.754  13.585  0.3500  0.1999  0.2736
25237W        W42085  11.513  14.494  10.491 -0.1020 -0.0994 -0.1515
25238W        W42086  17.356   7.426  11.266  0.3677 -0.1460  0.0148
25239W        W42087   2.887   9.634   2.740 -0.1606 -0.0766  0.0619
25240W        W42088  16.073  13.000   2.496  0.0082  0.0374 -0.0075
25241W        W42089   5.727   1.928  15.010 -0.1240  0.0265  0.0161
25242W        W42090   0.749   6.972  15.851  0.0943  0.1267 -0.3920
25243W        W42091   8.355   6.615   2.336  0.0875  0.1013  0.0989
25244W        W42092   2.904  12.666  13.021 -0.2985 -0.0345  0.3225
25245W        W42093  11.252  14.197   2.885  0.3871 -0.0697  0.0967
25246W        W42094   8.776   1.098  15.867 -0.0576  0.2916  0.1708
25247W        W42095   6.492   9.443  11.683 -0.3510 -0.0364 -0.2313
25248W        W42096  13.178   4.669  12.286  0.0415 -0.3435  0.2784
25249W        W42097  13.859   4.116   4.632  0.3267  0.1219  0.1777
25250W        W42098  13.934  12.462  14.094  0.2009 -0.0555 -0.0661
25251W        W42099  16.222  12.473   2.648 -0.1144 -0.0457  0.0073
25252W        W42100  17.699   1.788  15.399 -0.2875  0.2295  0.0072
25253W        W42101  14.106  17.292   1.124 -0.0656  0.2257 -0.1742
25254W        W42102  16.340   5.678   0.661 -0.1068 -0.2393  0.2097
25255W        W42103   5.821   9.773  14.891 -0.2226 -0.3767 -0.1624
25256W        W42104   7.202  15.130  11.583 -0.1619  0.0484  0.1224
25257W        W42105   7.516   8.649   2.949  0.0355  0.0440 -0.1050
25258W        W42106  10.782  10.927  14.820 -0.3182  0.1830 -0.3210
25259W        W42107   1.482  10.937  12.185 -0.0310  0.0144 -0.1721
25260W        W42108   0.573  15.102  14.747 -0.1513  0.1290 -0.0946
25261W        W42109   7.041  17.748   1.535  0.1184  0.0815  0.1290
25262W        W42110  14.907   5.044   4.345  0.2479 -0.0421 -0.1242
25263W        W42111   1.456  13.336   2.279 -0.0467  0.2533 -0.0653
25264W        W42112   2.912  14.489   3.569  0.0314 -0.2126 -0.0417
25265W        W42113   4.099  13.677  11.490 -0.2512 -0.0546  0.0387
25266W        W42114  11.103  13.214   3.250  0.0756 -0.0462  0.1924
25267W        W42115  10.441   0.848   3.032  0.0851 -0.3839 -0.0172
25268W        W42116  13.674   9.078  10.961  0.0076 -0.0032 -0.2803
25269W        W42117   5.699   6.330  12.708 -0.0011  0.1807 -0.0524
25270W        W42118  17.550   4.723  14.174 -0.1414  0.3720 -0.1050
25271W        W42119  15.216   1.932   4.807  0.0430  0.0954 -0.0181
25272W        W42120  17.937  17.988   0.584 -0.3219 -0.2084 -0.0892
25273W        W42121  10.102   7.055  15.679  0.0658  0.0051  0.2471
25274W        W42122  17.169   3.343  13.091  0.2501 -0.0620 -0.1063
25275W        W42123   3.171  13.432  11.734 -0.5188  0.0249 -0.2900
25276W        W42124  16.848  15.091  15.331 -0.2304  0.0311 -0.1187
25277W        W42125   4.942  17.450   2.720  0.2701  0.2756  0.1939
25278W        W42126  10.488  12.372   0.510 -0.1616  0.0278 -0.0281
25279W        W42127  14.644   8.746  15.278  0.2510 -0.0761 -0.1131
25280W        W42128   0.701   8.773   2.799  0.3159 -0.1432 -0.3199
25281W        W42129   7.665  10.898  10.360 -0.4845 -0.0452  0.1766
25282W        W42130   7.669  15.951   4.034 -0.3894  0.0749 -0.2242
25283W        W42131  10.988  10.413  15.926 -0.1471 -0.0743 -0.1796
25284W        W42132   1.107  15.911  16.246  0.1871  0.2048 -0.1101
25285W        W42133   7.449  16.183  12.249 -0.2088 -0.1910  0.2002
25286W        W42134  16.948   8.759  12.119 -0.1502  0.0565  0.0688
25287W        W42135   2.975   2.251  16.009  0.4372  0.2101  0.1424
25288W        W42136   9.057   3.518   1.050  0.2716 -0.0502  0.3710
25289W        W42137   8.039   2.688  13.253  0.1298  0.0881  0.1769
25290W        W42138   3.340  11.834  12.918  0.0789  0.2417 -0.0722
25291W        W42139   3.674  14.235   5.172 -0.0079 -0.1767 -0.1354
25292W        W42140  15.911   0.038   4.988  0.0164  0.0005 -0.1394
25293W        W42141  13.852   2.119   3.226  0.0834 -0.0260 -0.2711
25294W        W42142  11.287  12.013  14.665 -0.0232 -0.2992  0.0891
25295W        W42143  15.924  17.905   5.452  0.1556 -0.1385 -0.1344
25296W        W42144   6.487  14.415   4.904 -0.1595  0.0213  0.0536
25297W        W42145  15.938  12.097  12.595 -0.0673 -0.0231 -0.0377
25298W        W42146   8.212   4.412   0.027  0.2193  0.0533 -0.0053
25299W        W42147  11.132   5.622  13.528  0.0150  0.1174  0.2818
25300W        W42148  12.964  14.654  11.890  0.1200  0.2432 -0.0676
25301W        W42149   1.786  11.642   1.415 -0.2411  0.0075 -0.0406
25302W        W42150  11.897   0.757  13.144  0.1379 -0.0001 -0.0884
25303W        W42151   3.788  14.675  16.227 -0.0194 -0.3096  0.2930
25304W        W42152   4.288   2.608   4.434 -0.3819 -0.1666  0.0940
25305W        W42153   3.350  18.040   1.884  0.0116  0.2009  0.2422
25306W        W42154  12.852  10.528   3.793  0.2703 -0.0243 -0.2081
25307W        W42155  14.112   8.052   3.075  0.2418  0.3675  0.0922
25308W        W42156   5.444   0.237   4.673 -0.1043 -0.3626  0.0182
25309W        W42157   1.334  10.414  12.876  0.0733  0.2639 -0.0058
25310W        W42158   7.641   1.587  13.844 -0.0991 -0.0207  0.1567
25311W        W42159   9.245  16.163   1.829 -0.0735  0.0436 -0.4379
25312W        W42160   8.310  15.121   4.311 -0.2153 -0.2274  0.0744
25313W        W42161  16.315   1.541  13.516 -0.1423 -0.1388  0.0738
25314W        W42162  13.818   5.948   3.846 -0.1202 -0.3518 -0.1127
25315W        W42163   3.290   9.774  11.703 -0.1174  0.2809  0.1337
25316W        W42164   1.249  17.838  11.734 -0.1920 -0.3830  0.1054
25317W        W42165  10.876  13.734   4.461 -0.1349  0.2794 -0.1871
25318W        W42166   8.179  13.702   1.138 -0.2588 -0.0772  0.3503
25319W        W42167   2.012   6.460   4.993 -0.0631  0.1158  0.1365
25320W        W42168  17.941   0.049  11.965  0.3416 -0.3661 -0.0745
25321W        W42169   7.876   6.210  13.646 -0.2996 -0.2329  0.1196
25322W        W42170  16.954  10.549  11.430  0.0423 -0.2144  0.2399
25323W        W42171  12.508   6.938   1.651 -0.1541 -0.2445  0.1006
25324W        W42172   9.328   7.053  10.193  0.3596 -0.2116 -0.0995
25325W        W42173   1.553   6.821   0.612 -0.0075  0.0885  0.0146
25326W        W42174   5.428   5.180  12.407 -0.3151  0.1557  0.1824
25327W        W42175   9.725   7.883   1.711  0.0818 -0.1685 -0.0621
25328W        W42176   9.455  10.659  14.893 -0.1890  0.1712 -0.0041
25329W        W42177   1.038   4.792   4.775  0.1663  0.0412 -0.0869
25330W        W42178  16.175   8.801  12.644  0.1093 -0.3765  0.0650
25331W        W42179   8.063  15.708   2.530 -0.4833 -0.0176 -0.1131
25332W        W42180   8.594  14.749   4.512 -0.3084 -0.2410 -0.1031
25333W        W42181  15.357  17.708   0.883 -0.1404  0.1217  0.3411
25334W        W42182  13.036  11.891   5.224  0.0572 -0.0045 -0.0092
25335W        W42183  16.379  11.200   3.785  0.0106 -0.1247 -0.1392
25336W        W42184   9.614  10.510  10.320 -0.0902  0.1400 -0.2185
25337W        W42185  14.254   2.217   2.267 -0.0045 -0.0422  0.0780
25338W        W42186  11.827   3.416  11.105 -0.0723 -0.0159  0.1774
25339W        W42187   4.125   2.307   0.015  0.1871  0.1556  0.0028
25340W        W42188   0.538  11.132  15.772  0.5469 -0.1040 -0.0422
25341W        W42189   5.530  16.970   2.283  0.2976 -0.1642  0.3460
25342W        W42190  14.752   8.156  11.924 -0.2669 -0.2094  0.3254
25343W        W42191  16.469   8.975  12.055  0.2604 -0.3131  0.0153
25344W        W42192  16.135  13.404   2.864 -0.2553  0.1533 -0.1361
25345W        W42193   9.640   9.730   0.481  0.2382  0.1998  0.1428
25346W        W42194   6.335  13.451  11.746 -0.0582 -0.2099  0.2762
25347W        W42195   6.726   5.013   1.940  0.0366  0.2905 -0.1682
25348W        W42196   6.365   3.982  14.729  0.0902  0.0503 -0.0567
25349W        W42197  10.269   9.092  14.574  0.3303  0.2415 -0.2054
25350W        W42198   8.848   6.742  12.302 -0.0406 -0.0774 -0.4596
25351W        W42199   6.107   7.929   2.688  0.3182  0.0442  0.1033
25352W        W42200  12.851   0.925   4.737  0.3592  0.0173 -0.5422
25353W        W42201  14.174  16.218  12.993  0.1839 -0.1970  0.0888
25354W        W42202   8.931  14.792   2.650 -0.3127  0.0991 -0.1672
25355W        W42203   4.338   7.842   0.202  0.1304  0.4409  0.1646
25356W        W42204  16.748   5.770   2.347  0.1697 -0.0811 -0.0747
25357W        W42205   8.517   2.449   1.809 -0.1711  0.0327  0.1010
25358W        W42206   9.705  12.265  11.919 -0.1297  0.2164 -0.0995
25359W        W42207  17.751  14.101  13.772 -0.0474  0.1250 -0.1842
25360W        W42208  15.950  10.425  13.621  0.0914  0.1782 -0.0164
25361W        W42209   0.857  13.141   0.302  0.3202  0.1617 -0.2398
25362W        W42210   9.847  11.324   3.755 -0.0800  0.0496  0.1506
25363W        W42211  17.402   5.614  13.307 -0.3109  0.1550 -0.0666
25364W        W42212   1.805   8.099   1.161  0.0127 -0.0499 -0.2057
25365W        W42213  17.122  16.596   1.287 -0.2321  0.2614 -0.1637
25366W        W42214   1.547   9.647   3.972  0.2560 -0.3218  0.0294
25367W        W42215   1.300   2.177   2.085  0.1516 -0.0313  0.1681
25368W        W42216  15.506  10.347   1.332  0.1065  0.1041 -0.1715
25369W        W42217   9.490  12.156  12.488  0.3549  0.2284 -0.1422
25370W        W42218   9.604   4.633  13.440  0.2331 -0.0258  0.1636
25371W        W42219  13.731  10.992   2.373  0.2141 -0.0043 -0.0974
25372W        W42220   0.612   4.456  11.604 -0.0846 -0.0780 -0.1785
25373W        W42221  16.968   6.983  15.762  0.2966 -0.0629 -0.0739
25374W        W42222   1.339   8.796  13.906  0.1114 -0.1706 -0.1970
25375W        W42223  14.814   2.993   0.735 -0.0720 -0.1098  0.1946
25376W        W42224   4.506  13.595   3.527  0.1320 -0.1253  0.0683
25377W        W42225  11.521   0.778  16.043 -0.0453 -0.2254  0.2589
25378W        W42226   5.838  13.253  14.084 -0.0834  0.0410 -0.0791
25379W        W42227   3.938   7.054   2.947 -0.2358 -0.1107  0.2484
25380W        W42228   1.495  11.657   6.126  0.3598  0.2025 -0.1254
25381W        W42229   7.583  10.390   1.843 -0.0466 -0.2220 -0.0528
25382W        W42230  17.091  14.369   3.503  0.2624  0.0891 -0.2315
25383W        W42231  14.712   7.465   2.208 -0.1468 -0.0898  0.1120
25384W        W42232  10.410  17.943   2.195 -0.2363  0.3710 -0.2920
25385W        W42233  13.827  17.430   2.927 -0.2100 -0.0358 -0.0980
25386W        W42234   2.972  14.023  11.351  0.0051  0.1610 -0.1061
25387W        W42235   0.731   6.134   4.241 -0.1095 -0.1861 -0.0303
25388W        W42236  10.022   6.218   2.889  0.0628  0.4209  0.2097
25389W        W42237   2.586  16.822   4.645 -0.0265 -0.0602 -0.2487
25390W        W42238   7.765  11.512  13.920  0.3076  0.4058  0.0961
25391W        W42239   2.256  13.873  15.295 -0.0244 -0.0878 -0.0046
25392W        W42240  12.708  10.145   0.495 -0.2428  0.1538 -0.0748
25393W        W42241   9.394  10.544   4.779 -0.5030 -0.2963 -0.1140
25394W        W42242   6.673  13.160   4.235 -0.1674 -0.2276 -0.0122
25395W        W42243  10.124   8.208  10.812 -0.1104 -0.0379  0.1601
25396W        W42244   0.248  10.818  13.333 -0.1679  0.1031 -0.0939
25397W        W42245  14.884  10.709  15.059 -0.1819  0.0078 -0.3072
25398W        W42246   5.865   4.240  16.175 -0.2324 -0.1574 -0.0016
25399W        W42247   8.270   5.042   0.827  0.1045 -0.1703  0.0799
25400W        W42248   5.253   0.345   5.703  0.2674  0.1193  0.0214
25401W        W42249   7.652  15.697  13.230 -0.2454 -0.0182  0.1220
25402W        W42250   4.595   9.253   4.672 -0.2124  0.3079  0.2441
25403W        W42251  16.409   4.541   1.362  0.0594  0.0533 -0.1498
25404W        W42252  11.111  14.832  11.884  0.4422 -0.1939  0.3130
25405W        W42253  15.706  11.248  11.687 -0.0255  0.0267  0.0198
25406W        W42254  17.908   9.996   0.876  0.3425 -0.1316  0.1995
25407W        W42255   4.348   9.299  12.812 -0.0461  0.1582 -0.0737
25408W        W42256   9.303   7.821  14.329 -0.1137 -0.1526  0.1242
25409W        W42257   3.528  14.543   3.060 -0.3894 -0.4020 -0.0229
25410W        W42258   3.748   3.832   1.507  0.1111  0.0450 -0.0746
25411W        W42259   5.429   0.863  11.602 -0.3367  0.0582  0.2378
25412W        W42260   0.775  12.453   4.434  0.0658 -0.1873  0.1635
25413W        W42261   0.957   3.755   4.189 -0.0751  0.1014 -0.1001
25414W        W42262   0.171  14.653  13.397 -0.3285 -0.0493  0.0165
25415W        W42263  17.762   2.759  13.932  0.1432  0.2793 -0.0802
25416W        W42264  17.570  10.381   0.037  0.1879  0.0916  0.1180
25417W        W42265   6.376   8.512   3.447 -0.1074 -0.5117  0.0347
25418W        W42266   7.707   2.190   1.395 -0.1410 -0.0043 -0.0837
25419W        W42267  13.373   0.194   3.957 -0.0315  0.0608  0.0263
25420W        W42268   4.693  14.678   3.391  0.0722  0.0562  0.0760
25421W        W42269  14.143  11.825   4.342  0.1549  0.0077  0.1713
25422W        W42270  14.273  13.107   1.481  0.2264  0.0322  0.2045
25423W        W42271   0.680   4.450  10.747 -0.0264  0.0144 -0.2285
25424W        W42272   7.997  13.257  14.471 -0.2848 -0.0169 -0.1878
25425W        W42273   4.721  16.318   2.934 -0.0703  0.0287  0.0454
25426W        W42274   9.806  13.296  12.256 -0.3356 -0.1470  0.0354
25427W        W42275   1.785  15.127   1.489  0.0975  0.0534  0.1232
25428W        W42276  11.763   4.426   5.864  0.3130 -0.3827 -0.0250
25429W        W42277   3.035   6.763  14.014 -0.1596  0.2199  0.0562
25430W        W42278   6.627   9.335   4.072  0.2502 -0.2525  0.0132
25431W        W42279   8.225  11.729  13.771 -0.1513  0.5926 -0.3749
25432W        W42280  13.546   0.074  13.119 -0.0771 -0.4703  0.0873
25433W        W42281   8.702  11.126   4.135  0.0593 -0.1968  0.2165
25434W        W42282   1.584   8.031   2.289  0.2349 -0.0125  0.1639
25435W        W42283   1.121  16.412   2.690 -0.0889  0.0912 -0.0108
25436W        W42284   3.338  17.023   4.508  0.2565 -0.2130 -0.2467
25437W        W42285  11.166   0.605   2.805  0.0090  0.0302  0.0431
25438W        W42286   7.845  17.724  12.247 -0.2039 -0.0364 -0.0141
25439W        W42287  13.024   8.063  13.279  0.1309  0.0045 -0.2108
25440W        W42288  10.595  12.952   1.188  0.1324  0.1632 -0.2803
25441W        W42289  11.964   4.653   1.326  0.0969  0.1486  0.1834
25442W        W42290  17.749   8.318   5.731 -0.2079  0.1703 -0.0398
25443W        W42291   2.744   8.970   4.628 -0.1463 -0.0199 -0.2883
25444W        W42292  18.070   7.359  14.134  0.0434  0.1461  0.1629
25445W        W42293   0.716  13.377  16.235  0.0559 -0.0607 -0.0962
25446W        W42294   7.670   9.176  14.388 -0.0880  0.1550 -0.3508
25447W        W42295   6.124   6.350  11.282 -0.0849  0.0618  0.0442
25448W        W42296  17.677  12.138   3.702 -0.0770 -0.4150  0.4986
25449W        W42297  15.002  13.778  15.058 -0.0183 -0.1800  0.0410
25450W        W42298  13.368  16.567  13.514 -0.3721  0.1297  0.2174
25451W        W42299   1.448  17.844   4.678 -0.2386 -0.1989 -0.2480
25452W        W42300   9.919  12.369  13.401 -0.3030 -0.1895  0.0591
25453W        W42301   6.412   8.982   4.438  0.0344  0.4803  0.0185
25454W        W42302   2.394   3.432   0.901 -0.2336  0.1569  0.0481
25455W        W42303   3.554   7.096  11.671 -0.1704  0.0748  0.0193
25456W        W42304  11.538   7.520   0.191 -0.0461 -0.1290  0.0020
25457W        W42305   0.697   7.344   2.715  0.3284 -0.0927 -0.0538
25458W        W42306  14.979  17.512   1.231  0.2536 -0.0066 -0.1750
25459W        W42307   9.063   5.234  11.784 -0.0264  0.3205  0.1742
25460W        W42308  15.326   4.533   4.192  0.0265 -0.1477 -0.0726
25461W        W42309   0.322   8.277  14.398  0.1442 -0.2894  0.0596
25462W        W42310   3.934  13.720   5.424  0.0254  0.1557  0.2411
25463W        W42311  13.904  12.297   1.339 -0.0048  0.1333 -0.0492
25464W        W42312   4.110   9.475   1.617  0.2779 -0.0756 -0.1129
25465W        W42313   9.873  14.253  14.254 -0.1327  0.0054 -0.1807
25466W        W42314   5.706  10.582  12.759  0.1794 -0.0225 -0.0529
25467W        W42315   6.658  14.687   2.066 -0.3755  0.2096  0.2364
25468W        W42316   5.170   3.272  16.111 -0.2673 -0.2073  0.2312
25469W        W42317   7.229  11.650   2.282  0.0171  0.2779  0.2480
25470W        W42318  15.908   0.288   0.244  0.1496 -0.0376 -0.1539
25471W        W42319   2.933  18.040  16.217 -0.0649  0.0210  0.2525
25472W        W42320   7.440  12.678   2.945  0.1234 -0.0983  0.0569
25473W        W42321  16.081  11.806  15.218  0.1371  0.0596 -0.0304
25474W        W42322   6.992  17.237  15.923  0.2980  0.1036 -0.1251
25475W        W42323   4.679   6.726   2.462  0.0305 -0.1358  0.1761
25476W        W42324   5.436  16.337  14.681 -0.5718 -0.2465  0.2617
25477W        W42325  14.492   4.828  13.537  0.1894  0.0136  0.2423
25478W        W42326   7.575  15.128   2.387  0.1155  0.1971 -0.2260
25479W        W42327  17.870  11.350   3.686  0.1303 -0.1686  0.1910
25480W        W42328   9.897  15.958  14.616 -0.1638 -0.0431 -0.0343
25481W        W42329   5.492  13.598   3.936  0.0693 -0.1421 -0.1112
25482W        W42330  12.284  17.061  11.690  0.1612  0.0294  0.2542
25483W        W42331  12.999  13.182   0.735 -0.0525  0.3002 -0.0026
25484W        W42332   8.984  10.305   3.394 -0.0247 -0.0298 -0.0142
25485W        W42333   5.897   7.156   4.212  0.3388  0.2032 -0.2639
25486W        W42334   8.848   8.380   4.089  0.0630 -0.2274 -0.1780
25487W        W42335   3.508   6.672  15.756 -0.1807 -0.0932 -0.0586
25488W        W42336   7.473  15.242  15.057  0.1438 -0.1510 -0.1574
25489W        W42337  14.309   5.973   0.746 -0.0923  0.1763 -0.0439
25490W        W42338   8.942   0.826   4.146 -0.1402  0.1898 -0.0097
25491W        W42339   5.269  17.660  13.845 -0.3352 -0.3492  0.0385
25492W        W42340   6.423  10.879  15.453  0.1505 -0.0042  0.0760
25493W        W42341  17.471  14.142  16.114  0.0453 -0.1107 -0.1949
25494W        W42342  17.063   7.037  12.350 -0.1148 -0.0404 -0.0682
25495W        W42343  17.894   2.957  16.281  0.0694  0.0201 -0.4162
25496W        W42344  17.717   9.624  15.028  0.0717  0.3070 -0.0892
25497W        W42345   3.440   0.969  15.259  0.0435 -0.0715  0.1181
25498W        W42346   9.845   0.680  12.465 -0.3936 -0.1228 -0.2978
25499W        W42347  17.020   7.111   3.216 -0.0091 -0.1548  0.3684
25500W        W42348   1.405   4.919  13.734  0.0502 -0.2475 -0.2897
25501W        W42349  15.254   7.337   0.492 -0.0089 -0.0837  0.1935
25502W        W42350  11.177   6.663  13.326  0.0990 -0.2977 -0.1034
25503W        W42351  14.436   7.503   4.677 -0.1167  0.0986 -0.0681
25504W        W42352  10.029  10.695   2.969 -0.2614  0.0895  0.1511
25505W        W42353   9.465   9.153  10.952 -0.1040 -0.0518 -0.1251
25506W        W42354   3.426  11.849   0.734 -0.1023  0.3023  0.0485
25507W        W42355  11.659  10.537   2.957 -0.2155  0.0920 -0.0448
25508W        W42356  13.357  12.144  14.077  0.3026  0.0315  0.2275
25509W        W42357  15.474  14.458   5.198 -0.1188  0.0811  0.1365
25510W        W42358  16.630   5.752  11.724 -0.2272 -0.1914 -0.0409
25511W        W42359   1.512   7.281   3.936  0.0531 -0.1527 -0.0234
25512W        W42360  17.095   4.846   5.185  0.0203 -0.3208  0.0059
25513W        W42361  13.755  12.665   0.597  0.0305  0.1646 -0.2933
25514W        W42362  14.376   1.885  14.159 -0.1629  0.2074  0.0538
25515W        W42363   8.787  16.672   3.591  0.0486 -0.0860  0.0668
25516W        W42364   3.361   7.658   1.739 -0.0309 -0.0342  0.0537
25517W        W42365   7.170  13.643  16.103 -0.2668  0.1676 -0.2400
25518W        W42366  12.518  14.056   5.219 -0.1672 -0.0003  0.0552
25519W        W42367   1.237   2.781   0.966  0.1254  0.0047  0.0042
25520W        W42368  11.297   3.450  14.030  0.3230  0.2204 -0.0538
25521W        W42369  14.132  12.870  13.902 -0.1067 -0.1746 -0.0431
25522W        W42370  10.311  14.912  13.397 -0.1174  0.0130  0.0380
25523W        W42371  14.958   2.353   3.980 -0.4251  0.1367  0.0108
25524W        W42372  11.159  12.708  14.988 -0.0536 -0.2035 -0.1309
25525W        W42373  12.961  17.187  12.378 -0.2162 -0.3630  0.0196
25526W        W42374  16.505  15.146  11.298  0.2583 -0.0785 -0.1378
25527W        W42375   2.497  18.019   0.707  0.2829 -0.1798 -0.0049
25528W        W42376  17.945  14.839  13.076  0.2774  0.1711  0.3381
25529W        W42377  11.701   0.588  14.565 -0.2694  0.0510  0.0942
25530W        W42378   7.584   2.956   4.415  0.0270  0.0544 -0.0852
25531W        W42379  13.916  15.779   0.118 -0.2732 -0.2313  0.0848
25532W        W42380   0.699   8.584  13.508 -0.0756  0.0870 -0.0904
25533W        W42381   3.572   9.222   4.746  0.1652  0.2715  0.0548
25534W        W42382  17.878   4.721  14.633  0.1524 -0.3397 -0.1587
25535W        W42383   0.132  13.749   0.197  0.0236 -0.2670  0.1236
25536W        W42384   6.721   2.726   3.087 -0.0791  0.1685 -0.0248
25537W        W42385   2.018   8.325  15.238  0.0496 -0.0538 -0.2467
25538W        W42386  10.507  11.705  12.747 -0.3538 -0.1483 -0.2556
25539W        W42387   8.281   6.164  13.360  0.0265  0.0606  0.3212
25540W        W42388  14.239  10.836  13.043  0.1272 -0.0471  0.1378
25541W        W42389  13.820   0.233  12.174  0.5066 -0.2624 -0.0200
25542W        W42390   1.775  13.526   4.147  0.1812 -0.0159 -0.3205
25543W        W42391  10.008  16.271  15.552  0.0158  0.2005  0.2064
25544W        W42392  10.520   9.128  11.501  0.1194 -0.3497 -0.1439
25545W        W42393   6.878  12.804  13.847  0.1339 -0.0837  0.3591
25546W        W42394   7.627  15.626  14.214 -0.1919 -0.3465 -0.0472
25547W        W42395  10.607   1.385   4.274  0.2546  0.0264  0.1037
25548W        W42396  15.827   1.559   4.128  0.1141 -0.1069  0.1134
25549W        W42397  13.234   6.362   3.354 -0.0410 -0.2256  0.1084
25550W        W42398   1.865   4.926   2.212  0.1380  0.0184  0.2365
25551W        W42399   2.999   1.268   4.731  0.0581 -0.1029  0.1022
25552W        W42400   7.100  15.535   2.031 -0.0255 -0.1802 -0.0922
25553W        W42401   2.843   8.876   0.316 -0.3356  0.1667 -0.1760
25554W        W42402   9.181   4.048   2.110  0.1955 -0.0166  0.1104
25555W        W42403  13.658   9.685   4.977 -0.4762  0.0601  0.0259
25556W        W42404  12.274   6.005   1.555 -0.1908  0.0692 -0.2339
25557W        W42405   1.170  17.319  15.932 -0.1167 -0.0669  0.0282
25558W        W42406  12.379   2.060  15.996  0.1111  0.0983  0.1790
25559W        W42407  13.697   7.562   3.170 -0.0054 -0.2332  0.3446
25560W        W42408  13.632  16.073  11.831  0.2138  0.1130  0.4314
25561W        W42409   1.246  14.852  13.338  0.1653 -0.2490 -0.1782
25562W        W42410   0.314  10.903  10.823  0.0023 -0.0631 -0.0553
25563W        W42411  15.680  13.611  11.036 -0.0811 -0.1156  0.0310
25564W        W42412   7.465   8.550   2.441  0.0856  0.1481 -0.1051
25565W        W42413  16.845  11.251  15.817 -0.0538  0.0035 -0.2994
25566W        W42414  16.359   8.785   6.326  0.1906  0.0863 -0.4068
25567W        W42415  10.594  12.352  12.071 -0.2643  0.1471  0.1865
25568W        W42416   1.459  16.431  14.918  0.2127  0.2312  0.0280
25569W        W42417  10.420  10.188   0.134  0.3687  0.4245  0.1755
25570W        W42418  12.376   4.091   2.165  0.1220  0.0149  0.2063
25571W        W42419  17.859  16.895  13.546 -0.1975 -0.2180 -0.2287
25572W        W42420  17.172  17.752   4.834  0.1164 -0.0395 -0.1621
25573W        W42421  12.167   9.649   5.631  0.0651 -0.1407 -0.1034
25574W        W42422  12.863   5.897  12.403 -0.1149  0.3067 -0.0542
25575W        W42423  14.732   2.663   4.407  0.0613  0.1552 -0.0916
25576W        W42424   3.755   9.360  10.796 -0.0618 -0.1404 -0.0693
25577W        W42425  17.029  17.034  13.991  0.2127 -0.2318 -0.1315
25578W        W42426  16.952  16.976  12.100  0.3193 -0.1566  0.1779
25579W        W42427  15.496   8.341   5.534 -0.0742 -0.1130 -0.0100
25580W        W42428   7.547  11.915   6.073  0.0342  0.1841  0.2125
25581W        W42429  16.482  17.300  12.052 -0.2046 -0.0525 -0.1501
25582W        W42430   5.521   0.672   2.559 -0.2115 -0.0429 -0.1134
25583W        W42431   2.744  11.099  14.051 -0.1134 -0.0657  0.5770
25584W        W42432   3.701   6.403  14.510  0.4739  0.0912 -0.0179
25585W        W42433  16.156   6.990   0.647 -0.0069  0.1553 -0.0538
25586W        W42434   6.454   6.948   2.724  0.0425  0.1443  0.0608
25587W        W42435   0.760  15.469   2.870  0.2107  0.0659 -0.1154
25588W        W42436  15.054  10.736  16.289 -0.1198 -0.1497 -0.0882
25589W        W42437   6.230   3.693   3.079  0.1769  0.0274  0.0215
25590W        W42438  13.377   2.384  11.320  0.2479  0.2440 -0.0244
25591W        W42439  13.474  14.761   5.839 -0.1651 -0.3030  0.0020
25592W        W42440  17.228  12.743   3.375 -0.1584 -0.2561 -0.0512
25593W        W42441   9.622   9.280  13.044  0.1029 -0.3224 -0.3466
25594W        W42442  16.467  13.600  14.727 -0.2494 -0.0842  0.0870
25595W        W42443  15.065  12.603   5.287  0.1168 -0.0682  0.0893
25596W        W42444  11.280  16.706   0.215  0.2893 -0.0120 -0.0620
25597W        W42445   2.955   0.951   5.664 -0.1866 -0.2395  0.0566
25598W        W42446   0.172   0.746  16.159  0.4166 -0.0822 -0.0609
25599W        W42447   2.402   8.727   1.580 -0.0521 -0.3957 -0.0896
25600W        W42448  14.350   2.975  12.664  0.0866 -0.1768  0.3439
25601W        W42449   6.646   4.432   2.649 -0.0344  0.0766  0.0346
25602W        W42450  13.609  15.341  15.110  0.0720 -0.1392 -0.2915
25603W        W42451   7.100   1.597  11.091 -0.0206  0.0656 -0.1707
25604W        W42452   8.830  17.556   3.676  0.0225 -0.3672 -0.0689
25605W        W42453  13.047  13.490  11.549 -0.1412 -0.0279 -0.2938
25606W        W42454  14.352   3.493   2.436 -0.0068 -0.2833  0.2125
25607W        W42455  13.840   8.793   5.245 -0.1591  0.0368 -0.0261
25608W        W42456   6.832  10.977   0.971 -0.1398  0.1854 -0.2204
25609W        W42457   3.772   7.360   1.703  0.0723 -0.1903 -0.1657
25610W        W42458   2.199  10.428  13.373  0.0843 -0.0151 -0.5568
25611W        W42459   7.627   5.620   0.705  0.1981  0.0530 -0.0912
25612W        W42460  13.106   0.540   1.778  0.1467 -0.1016 -0.1558
25613W        W42461   6.102   4.787   5.216  0.0074  0.0258  0.1913
25614W        W42462   5.598   9.025  11.553 -0.1165 -0.2333 -0.1301
25615W        W42463  14.085   2.299  13.507  0.2138 -0.0420 -0.0981
25616W        W42464   8.631  11.127   2.118  0.1591 -0.1379 -0.1508
25617W        W42465   3.441   1.164  11.443  0.2041 -0.0441 -0.0730
25618W        W42466   0.461   3.038   3.556 -0.1572  0.0834 -0.2202
25619W        W42467  12.624  12.411   4.481  0.0103 -0.0639  0.0440
25620W        W42468  14.740   3.533   4.783 -0.3596  0.0876 -0.1518
25621W        W42469  15.398   3.371  16.001  0.2154  0.0983  0.1568
25622W        W42470   2.251   8.278   1.354 -0.0563  0.2023  0.2019
25623W        W42471   3.236   7.620  10.500  0.0403  0.1720  0.0447
25624W        W42472   4.216  14.717  13.741  0.0347  0.2314  0.0712
25625W        W42473   0.144   6.061   0.942  0.1440 -0.0406  0.4217
25626W        W42474   9.245  13.732  13.062  0.2124  0.2299 -0.0975
25627W        W42475   7.184  16.053   5.605  0.3411 -0.0863 -0.2545
25628W        W42476   7.304  17.511  16.197 -0.0554 -0.0391  0.1347
25629W        W42477   3.643   2.745   1.161 -0.1258 -0.2018 -0.0731
25630W        W42478   1.199  10.576   3.120  0.2738  0.0733 -0.1162
25631W        W42479  12.224   1.248  14.413  0.1161 -0.1476  0.1009
25632W        W42480   2.396  10.826   1.476  0.0736 -0.1892  0.2180
25633W        W42481  10.921   5.367  15.991 -0.2577 -0.1364  0.3567
25634W        W42482  17.324  10.561   4.294 -0.1120  0.3108 -0.2542
25635W        W42483   5.464  14.996   4.060  0.0717  0.1385 -0.1180
25636W        W42484  17.657  15.953  13.456 -0.3202 -0.3012 -0.1649
25637W        W42485   4.468   6.872   2.005 -0.0476  0.0007 -0.0603
25638W        W42486  12.699   9.664   0.230 -0.1211  0.0555 -0.1301
25639W        W42487  11.443   8.859   3.737  0.3101 -0.2008  0.0306
25640W        W42488  13.513   6.177   5.157  0.0346 -0.3496  0.0635
25641W        W42489  11.181   2.185  15.324 -0.0699 -0.0546 -0.2284
25642W        W42490   4.475   0.707  13.718  0.2014  0.0230  0.2395
25643W        W42491   3.489  15.620   0.469  0.1157 -0.1844  0.0466
25644W        W42492   3.041   0.550   3.145 -0.3002 -0.2788 -0.0185
25645W        W42493   1.638   3.311  14.437  0.0775 -0.0076  0.2028
25646W        W42494  14.005  17.520   0.672  0.0863 -0.0259 -0.2298
25647W        W42495   6.399   4.410  14.154  0.0537  0.0442 -0.0305
25648W        W42496  10.345   4.513   5.674 -0.4889  0.0667  0.0179
25649W        W42497  10.045   7.971  13.427 -0.1041  0.1384  0.0178
25650W        W42498  10.903  15.150   1.050  0.1650  0.1449 -0.2526
25651W        W42499   6.668  10.637  13.065 -0.1678  0.4197 -0.0297
25652W        W42500  12.310   8.037  13.967  0.1915  0.0442  0.1405
25653W        W42501   2.412   0.891   3.002 -0.1543 -0.1346  0.2293
25654W        W42502   3.846   0.571  13.891 -0.2153  0.1071  0.0549
25655W        W42503   6.179   6.678   1.244 -0.0394 -0.3101 -0.1790
25656W        W42504  11.162   9.022   2.204  0.4164 -0.3131  0.1713
25657W        W42505   5.235  16.045  12.987  0.4375 -0.1632  0.1484
25658W        W42506   5.928   4.260   4.371  0.2385 -0.3906  0.0576
25659W        W42507   4.421   7.359   1.865 -0.1922  0.4481  0.0202
25660W        W42508   0.659   3.265  14.259 -0.0063  0.0629 -0.2752
25661W        W42509   9.720   6.275   0.509 -0.1199 -0.1720  0.1491
25662W        W42510   9.829   8.323   5.846 -0.1116 -0.1700  0.2745
25663W        W42511  17.166   5.378  12.462 -0.0384  0.1083  0.0274
25664W        W42512  17.791   3.508   2.223 -0.2717 -0.0413 -0.1038
25665W        W42513  12.122   4.154   3.690  0.0047 -0.0616  0.1822
25666W        W42514  13.458   5.927  12.051  0.1204 -0.0491  0.2281
25667W        W42515   6.861   1.118   2.996  0.2505 -0.0546  0.2177
25668W        W42516   8.983  17.418   1.885 -0.0029  0.2031  0.1047
25669W        W42517  14.881  10.922  12.351 -0.0606  0.0118 -0.1339
25670W        W42518  14.594  10.810  15.913 -0.2329  0.0743  0.4300
25671W        W42519   9.073   6.583  14.589  0.3531  0.0543  0.0166
25672W        W42520   0.879  12.757  11.371 -0.0131 -0.1438  0.0871
25673W        W42521  14.893  17.884   2.945 -0.2995 -0.1335  0.0916
25674W        W42522   3.829   6.523  12.799  0.2314  0.2977  0.1959
25675W        W42523  15.388  11.084   5.243 -0.1899 -0.4050  0.2977
25676W        W42524   9.320   2.484  13.009 -0.2199 -0.2185 -0.2097
25677W        W42525  10.116   9.924  11.713 -0.2176 -0.1629 -0.1526
25678W        W42526   7.145  15.754  13.434 -0.0466  0.2058  0.1336
25679W        W42527  14.801   5.396   2.132  0.1951  0.2826 -0.2350
25680W        W42528  13.051  11.863  15.556  0.0170 -0.0107  0.0822
25681W        W42529  15.095  12.886   4.909  0.0874  0.1852 -0.4306
25682W        W42530  10.869   6.965  14.133 -0.0978 -0.1360  0.1100
25683W        W42531   4.054   7.137   4.017 -0.1506 -0.2866 -0.1975
25684W        W42532  17.369   7.592  13.067  0.1534 -0.2107  0.5128
25685W        W42533  10.037  11.051  15.287  0.0335  0.1936 -0.0327
25686W        W42534   1.935   7.857   4.135  0.2708 -0.1460 -0.3864
25687W        W42535   6.285   2.452  14.053 -0.3764 -0.1809 -0.2500
25688W        W42536   2.074  14.033   1.055  0.3217 -0.0187 -0.1768
25689W        W42537  11.379   2.996   2.532  0.0917  0.3274 -0.2315
25690W        W42538   3.430   1.520   1.564  0.1076  0.0566 -0.0789
25691W        W42539   0.757   6.813   2.696  0.0198  0.0901 -0.2970
25692W        W42540  16.100   2.939  16.049  0.1340  0.1590 -0.1332
25693W        W42541   0.948  17.962  13.918  0.0580 -0.0977 -0.2604
25694W        W42542  10.333   8.779   0.131 -0.0004  0.0364  0.1166
25695W        W42543  15.484  11.922  12.404 -0.4401 -0.1243  0.3038
25696W        W42544   2.948  13.276  12.115 -0.0137  0.0397 -0.2451
25697W        W42545  13.561   9.165   4.918 -0.0813  0.2164 -0.1911
25698W        W42546   8.945  17.114  15.629 -0.2474  0.2139 -0.4335
25699W        W42547  12.842  16.679   0.298  0.0586  0.1867 -0.1182
25700W        W42548   5.484  13.381  15.550 -0.1426  0.0307 -0.0066
25701W        W42549   1.674   5.427  14.077 -0.1354 -0.0680 -0.0707
25702W        W42550  13.260  12.675  14.183  0.2178 -0.1509 -0.0800
25703W        W42551  10.187   6.711  14.637 -0.1520  0.4393 -0.0422
25704W        W42552   5.792  15.818   3.907  0.2262 -0.2480 -0.1380
25705W        W42553   5.292  12.686   4.142  0.0707  0.2905  0.0587
25706W        W42554   5.713   1.079   1.859  0.0340 -0.1184 -0.2194
25707W        W42555   0.143   0.744  11.301 -0.1787 -0.1718 -0.2973
25708W        W42556   1.425   5.442  11.053  0.3951 -0.1835 -0.0083
25709W        W42557   1.514   1.399   3.720  0.1007  0.0473 -0.1393
25710W        W42558  17.312  14.796  13.876 -0.0072  0.1897 -0.2377
25711W        W42559  10.841  11.937  14.968 -0.1274 -0.1706 -0.1461
25712W        W42560   7.974  16.167  13.567  0.1198  0.0754 -0.1788
25713W        W42561  12.070  17.364  15.593  0.0004 -0.3505 -0.5820
25714W        W42562  15.554   4.267   0.819  0.0017  0.0850  0.1017
25715W        W42563   7.599   7.027  13.630 -0.0415 -0.0815 -0.1911
25716W        W42564   5.728   1.791   1.274  0.0303  0.0421  0.1191
25717W        W42565  18.032  12.162  10.769  0.0859  0.3123 -0.2110
25718W        W42566   4.193   3.400  12.696 -0.0902 -0.1474  0.1779
25719W        W42567   2.585  16.772   3.541 -0.1458  0.0041 -0.0224
25720W        W42568  10.487   4.804   3.745  0.0844 -0.3712  0.0006
25721W        W42569  14.662   1.244   2.635  0.1301 -0.0822 -0.2149
25722W        W42570  11.662  14.335  13.841  0.3329  0.0059 -0.2326
25723W        W42571   8.705  12.463   2.560  0.2479 -0.6383  0.1021
25724W        W42572   6.705   4.996  11.579  0.4034 -0.1593 -0.1205
25725W        W42573  15.180  10.275  14.321  0.1634 -0.1680  0.0270
25726W        W42574  17.031  13.501   5.392  0.0692 -0.1569 -0.1477
25727W        W42575   3.209  16.432   4.870 -0.1550 -0.0170  0.1455
25728W        W42576  13.098  13.404  13.306  0.0555  0.2802 -0.0158
25729W        W42577  13.339   0.353  11.936 -0.0616 -0.1061  0.1218
25730W        W42578  13.111   5.658   4.477  0.0050 -0.0973  0.1080
25731W        W42579   2.419   7.627  12.188 -0.0265  0.0130  0.1031
25732W        W42580  13.878  10.140   2.094 -0.4005  0.1330 -0.3635
25733W        W42581  12.583   0.046   0.711 -0.1559 -0.3491  0.0023
25734W        W42582   8.812  13.572  14.080  0.0024 -0.1341 -0.0571
25735W        W42583   3.445  16.016   2.274 -0.2490 -0.0093  0.2042
25736W        W42584  13.414  16.815   5.271  0.2156 -0.1917  0.2394
25737W        W42585  10.821  10.262  11.758 -0.1872  0.5058 -0.0338
25738W        W42586  17.438  17.145   0.443  0.2150  0.0983 -0.0483
25739W        W42587   4.738   4.591  11.373 -0.0120  0.1603  0.0978
25740W        W42588  16.351   9.660   6.349  0.0198 -0.0514 -0.1438
25741W        W42589   2.535  12.091   0.418  0.0421  0.3918 -0.4508
25742W        W42590   9.940   3.139   1.715  0.1435  0.0705  0.2202
25743W        W42591   7.933   3.481   0.860  0.1689 -0.0493 -0.0596
25744W        W42592   6.024   8.538   3.854  0.0034 -0.1829 -0.1532
25745W        W42593   9.586   3.267  11.805 -0.0276 -0.1413  0.1811
25746W        W42594   8.494  17.857   1.426  0.4237 -0.3134 -0.0161
25747W        W42595  13.814   1.254   1.505 -0.2813  0.0462  0.1531
25748W        W42596  13.695   6.973  13.835 -0.2950  0.1881 -0.1442
25749W        W42597   8.478  12.545  15.037 -0.1467  0.2327  0.3045
25750W        W42598  13.465  15.418   1.667 -0.0419  0.2851 -0.0520
25751W        W42599  10.858   8.136   2.297  0.0772 -0.1438 -0.1234
25752W        W42600   6.046   4.487  12.780  0.0225  0.1189  0.0644
25753W        W42601   0.792   0.695  13.842 -0.0371  0.0702  0.0764
25754W        W42602   6.801   2.017  15.756  0.0785  0.0358 -0.1387
25755W        W42603  15.334  10.700   4.453 -0.1485 -0.3327  0.0795
25756W        W42604   3.095  15.447   4.617  0.1251  0.4133 -0.3360
25757W        W42605   3.295   9.036  15.276  0.1007 -0.0513  0.2956
25758W        W42606  14.692  14.252  13.970 -0.2639 -0.2582  0.2568
25759W        W42607   8.768   3.415   5.548 -0.2331  0.2590  0.0190
25760W        W42608  11.761  13.443   3.128  0.2582 -0.2060  0.0065
25761W        W42609  17.500  13.379  13.199 -0.0540  0.1176  0.1523
25762W        W42610   8.299   6.723   3.244 -0.2104  0.1271 -0.0644
25763W        W42611  18.092   7.096  13.423  0.0418 -0.4461 -0.0011
25764W        W42612  13.102   8.968  15.458  0.3141 -0.0777 -0.1119
25765W        W42613   1.523   9.161  13.531 -0.0343 -0.0906 -0.0646
25766W        W42614   7.989   2.879  14.342  0.0904 -0.2373 -0.2541
25767W        W42615  15.131   8.552  13.286 -0.3932 -0.1113 -0.0869
25768W        W42616  16.792  15.569  14.914 -0.1456 -0.0823 -0.2781
25769W        W42617  16.500   9.007   3.880  0.0970  0.0412 -0.0253
25770W        W42618   3.154  14.198   3.180  0.1694 -0.1324  0.1978
25771W        W42619   5.075   1.506  11.179 -0.0300  0.2224  0.2594
25772W        W42620  12.689   0.938  14.504  0.1693 -0.0252  0.2484
25773W        W42621   7.623  17.351  13.963  0.1783 -0.0614  0.0076
25774W        W42622   4.883   2.539  16.207  0.0251 -0.1246  0.1420
25775W        W42623   1.149   7.450   2.584 -0.3159  0.1080 -0.0146
25776W        W42624   0.220  18.019  12.418  0.0398  0.1206  0.0515
25777W        W42625  15.088   8.592   3.492 -0.2374 -0.4654 -0.2351
25778W        W42626   1.962   1.679   1.599  0.0600  0.2901 -0.1501
25779W        W42627  14.930  15.244  14.159  0.0334  0.0417 -0.1045
25780W        W42628   0.482  11.039   3.801 -0.1510  0.2985 -0.1506
25781W        W42629  13.951  12.613   2.289 -0.0275 -0.0258 -0.0995
25782W        W42630  13.116   8.285   4.807  0.1218 -0.0212  0.1360
25783W        W42631  10.148  15.992   4.581  0.0123  0.0258 -0.2134
25784W        W42632   2.551  11.941   2.526  0.1759  0.1444  0.4340
25785W        W42633   1.906  16.733   1.704 -0.1061  0.0626 -0.2410
25786W        W42634   6.237   3.329  14.027  0.2072 -0.2346 -0.3352
25787W        W42635   8.154   5.323  12.655  0.1620  0.2538  0.2156
25788W        W42636   2.207  16.459  13.431 -0.1342  0.0419  0.0419
25789W        W42637  11.414  17.923   2.997 -0.0161  0.3067  0.3897
25790W        W42638   9.081  13.762  15.385  0.1095 -0.1575 -0.1616
25791W        W42639   6.092   9.581   2.724 -0.2399 -0.1201  0.0438
25792W        W42640   9.881   5.142  10.782 -0.0595 -0.0840 -0.0855
25793W        W42641   5.268   2.921  11.978  0.1090 -0.0188 -0.0006
25794W        W42642  16.153   4.041   2.083 -0.2365 -0.0410  0.0736
25795W        W42643   3.669   9.067   0.746 -0.1617  0.0710  0.1178
25796W        W42644   8.576   7.869  12.920 -0.0610  0.1510 -0.3133
25797W        W42645  15.120  17.643  15.855  0.2817  0.1439 -0.0058
25798W        W42646   1.210   1.380   2.581 -0.2725 -0.1069 -0.2441
25799W        W42647   0.050  14.424  11.735  0.0897  0.1345 -0.0318
25800W        W42648   2.385  17.480   0.639  0.1561 -0.1271 -0.0345
25801W        W42649   9.087  10.155   1.401  0.0951 -0.1971  0.0537
25802W        W42650   2.557  17.776  13.906 -0.0394 -0.1127  0.1458
25803W        W42651   2.461   2.017   2.865  0.1150  0.0511 -0.4436
25804W        W42652   0.487   5.426  12.607 -0.2001  0.0792 -0.1733
25805W        W42653  14.878  17.039  12.431  0.1336 -0.2169  0.0615
25806W        W42654  12.845   7.401  15.179  0.0285 -0.1259  0.0785
25807W        W42655   3.049  12.052   3.664  0.3768  0.0424  0.2204
25808W        W42656  16.496  10.280  13.753 -0.0170  0.0155  0.0162
25809W        W42657   4.504  15.357   2.629  0.0764 -0.0687 -0.1521
25810W        W42658  10.600   0.680  16.082 -0.4459 -0.1517 -0.2800
25811W        W42659   7.978   4.879  15.424  0.1316 -0.0030  0.0950
25812W        W42660  11.668   9.499  15.171  0.0264 -0.0861 -0.4679
25813W        W42661  13.794   7.606   2.383 -0.1582  0.0751 -0.1411
25814W        W42662   8.742  14.792  12.413 -0.0600  0.3205  0.0195
25815W        W42663   3.942   3.942   2.691  0.4034  0.1453  0.0527
25816W        W42664  12.655  14.943   5.288 -0.1532 -0.2302 -0.0118
25817W        W42665   5.524  16.880  14.640  0.1172  0.1938 -0.3200
25818W        W42666  13.806  16.124  14.705 -0.1544 -0.2216  0.1071
25819W        W42667   6.500  10.037   3.617 -0.0260 -0.3055 -0.0060
25820W        W42668   5.338  11.349   1.858 -0.0368 -0.1619  0.0683
25821W        W42669  10.745   1.132  16.141  0.0179  0.2039  0.0805
25822W        W42670   8.857  11.340  13.319  0.0501 -0.0114 -0.1304
25823W        W42671  11.944   5.290  14.101 -0.1552  0.0873 -0.0290
25824W        W42672   5.521   7.462   1.705 -0.1978 -0.0720  0.1232
25825W        W42673   9.984   7.011   1.469  0.0463  0.0325 -0.0853
25826W        W42674   1.619   7.337   4.681  0.1875 -0.0061  0.2165
25827W        W42675  13.297  18.038   3.502  0.2153 -0.0346  0.1657
25828W        W42676  12.102   3.054  12.851 -0.2038  0.3026 -0.0024
25829W        W42677   7.945   6.612   2.915 -0.0635 -0.1054  0.1793
25830W        W42678  13.402   5.938  11.040 -0.0579  0.0067 -0.0025
25831W        W42679  12.507  16.917  13.988 -0.1979 -0.2217 -0.0887
25832W        W42680   7.672  14.571  12.636  0.1744 -0.0302 -0.0146
25833W        W42681   4.800   8.964   0.230  0.1589 -0.1258 -0.1400
25834W        W42682   3.457   3.214   3.316  0.3313  0.3532  0.0413
25835W        W42683  15.359   0.863   4.838 -0.1542  0.1135 -0.1131
25836W        W42684  10.020   4.738   3.460  0.3060  0.2295  0.0431
25837W        W42685   9.469   2.443   3.094  0.0977 -0.1422  0.1034
25838W        W42686   0.328   7.851  14.687  0.0150 -0.1036  0.0640
25839W        W42687   5.510  13.572   0.561 -0.0472  0.1173 -0.1190
25840W        W42688  16.734   4.603  12.295  0.1107 -0.4004  0.0537
25841W        W42689  15.655  16.918  13.757  0.0746 -0.0355 -0.1449
25842W        W42690  10.657   2.058  13.267 -0.3874  0.1357 -0.1909
25843W        W42691  11.057   7.761   2.087  0.2136  0.0357  0.1385
25844W        W42692   4.853  13.878  12.597 -0.1610  0.0563 -0.4447
25845W        W42693   0.020   7.513   0.077 -0.1109 -0.1811  0.1834
25846W        W42694  15.791   4.396  10.974  0.0454 -0.0355  0.3197
25847W        W42695   5.646  16.756  15.618  0.3338 -0.2481  0.4040
25848W        W42696   3.151   8.007   1.489 -0.0616  0.1956 -0.1513
25849W        W42697  13.151  11.604   2.808 -0.0011 -0.0149 -0.4470
25850W        W42698   8.978   6.842   1.453 -0.0821  0.4428 -0.4576
25851W        W42699   5.662  13.020   2.072 -0.0134 -0.0315  0.3372
25852W        W42700  11.309  11.086  13.821  0.1375 -0.0932  0.0728
25853W        W42701  16.750   9.324   4.270 -0.0062  0.3417  0.1037
25854W        W42702  11.234  14.362  13.557 -0.2096 -0.2887 -0.0264
25855W        W42703   8.026  14.261   1.846 -0.3112 -0.3363  0.0867
25856W        W42704   4.667  13.920   3.950 -0.0581  0.0487  0.0160
25857W        W42705  16.355  12.817  13.712 -0.0797  0.2521 -0.2350
25858W        W42706  10.800  17.601  15.208  0.0373  0.1227 -0.0435
25859W        W42707  14.009   7.485  13.151 -0.2072 -0.0224 -0.0876
25860W        W42708   4.768  17.779  10.788  0.2017  0.0063 -0.0596
25861W        W42709  15.153  15.907  15.220 -0.2186 -0.2552  0.2933
25862W        W42710   7.410  10.698   0.304 -0.2535  0.0511  0.1118
25863W        W42711   6.411  12.478  12.092 -0.3892 -0.0311  0.1963
25864W        W42712  12.395   4.785   0.099  0.0636 -0.2070 -0.1438
25865W        W42713   2.216   9.461  13.610 -0.2223  0.0386  0.1768
25866W        W42714   3.712   1.630  12.666 -0.1630  0.0943  0.0961
25867W        W42715   5.211   5.092   0.225  0.1504 -0.1387  0.0651
25868W        W42716  12.058   4.298  12.986  0.1487 -0.1424 -0.0205
25869W        W42717  11.432   7.699  13.847 -0.1712  0.0454  0.1313
25870W        W42718   7.986  15.462   4.058  0.0489 -0.1848 -0.2424
25871W        W42719  11.663  10.977   2.532  0.4294 -0.3157 -0.2893
25872W        W42720   6.848  15.487  11.721  0.0304 -0.1025 -0.1497
25873W        W42721  14.627   1.484  12.474 -0.0447  0.0854 -0.2042
25874W        W42722  11.838   9.153  12.853  0.0387 -0.1009 -0.0890
25875W        W42723  12.936  16.978   4.085  0.1108 -0.0800 -0.3672
25876W        W42724  14.826   2.465  10.010 -0.3286  0.1031  0.1452
25877W        W42725   6.105  12.287   1.815  0.0881 -0.0995 -0.0447
25878W        W42726  17.555  17.355   2.058 -0.1478 -0.0003  0.1079
25879W        W42727  11.307  13.157  14.266 -0.1937  0.1381  0.0320
25880W        W42728  11.422   2.167  12.101 -0.1348 -0.1616  0.0646
25881W        W42729  12.461  15.418   2.139 -0.0595 -0.0556  0.1337
25882W        W42730  14.574  10.453  13.071  0.0347 -0.1278  0.2475
25883W        W42731   1.001  17.155  14.043  0.1131 -0.0166 -0.3273
25884W        W42732  17.508   1.574   1.879 -0.3661 -0.1128  0.2541
25885W        W42733   5.464   7.552   2.738 -0.0814 -0.0790 -0.0354
25886W        W42734  15.373   5.020   4.365  0.1822 -0.0115  0.2837
25887W        W42735  12.902  13.099   0.252  0.4744  0.0884  0.1368
25888W        W42736   2.740  15.193   0.818 -0.1241  0.0966 -0.0480
25889W        W42737  14.651   5.115  14.775  0.0782 -0.1129  0.0607
25890W        W42738   9.030  17.911   3.365 -0.3782 -0.2922 -0.3365
25891W        W42739  14.440   1.048  15.678  0.1415  0.0235  0.4096
25892W        W42740   2.910  16.864   1.306  0.4126 -0.0060 -0.0580
25893W        W42741  10.301  14.657   1.881 -0.0395 -0.0964  0.1772
25894W        W42742  16.662   4.851  13.928  0.3199  0.1027 -0.1352
25895W        W42743   5.965   2.090   4.492 -0.2778  0.0922  0.2566
25896W        W42744   2.963   1.415   1.613  0.0648  0.2189 -0.2319
25897W        W42745   9.071   5.180   1.391  0.0308 -0.0304 -0.2470
25898W        W42746   2.912   3.624   5.373 -0.1040  0.0501 -0.2794
25899W        W42747   4.772   2.586   0.932  0.4899  0.2130  0.0839
25900W        W42748  13.602   5.764  14.118  0.1150  0.1844 -0.2186
25901W        W42749  14.815   4.732  11.734  0.0068 -0.1587  0.1037
25902W        W42750   5.539  15.886  11.823  0.0484 -0.2579  0.3946
25903W        W42751   8.200   9.357   3.976 -0.2360  0.3714 -0.1663
25904W        W42752   5.965  10.307   9.975  0.1740 -0.2410 -0.0947
25905W        W42753   8.819  11.523  15.317 -0.0132  0.1529 -0.2289
25906W        W42754  12.886  14.224  12.258 -0.1726 -0.1449  0.1354
25907W        W42755   3.026   7.426   2.124 -0.2818 -0.0238  0.0164
25908W        W42756  17.356   4.633  13.659 -0.1249 -0.0417  0.0266
25909W        W42757   2.199   3.109   4.106  0.1652 -0.1048 -0.1413
25910W        W42758  10.097   1.429   4.095 -0.2400 -0.1300  0.0388
25911W        W42759  14.818   7.984  15.525 -0.0984  0.0922 -0.1348
25912W        W42760   5.732   9.297   1.489 -0.2413  0.0694  0.0014
25913W        W42761   4.984   2.764  15.342 -0.1507  0.2571 -0.0361
25914W        W42762   4.393   1.219   0.181  0.2628 -0.0369  0.0060
25915W        W42763  15.279   3.155   1.016 -0.0525  0.1688 -0.0507
25916W        W42764   3.153   8.004  13.299 -0.0581 -0.2277  0.0975
25917W        W42765  16.895  13.533  13.754 -0.0607  0.4950  0.2628
25918W        W42766   5.829   9.829  12.179 -0.0413 -0.1267 -0.1590
25919W        W42767  16.388   2.132   4.170 -0.3948  0.0509  0.2194
25920W        W42768   9.856  15.431   0.849  0.0507 -0.1999 -0.0690
25921W        W42769  15.058   0.635  14.658 -0.0194  0.1760 -0.1628
25922W        W42770  14.095   8.670  12.328  0.0464 -0.0919  0.1888
25923W        W42771  17.767  15.679   3.725 -0.0266 -0.3242 -0.0956
25924W        W42772   9.483   8.499  14.347 -0.2880 -0.3104  0.1206
25925W        W42773  18.030   0.339   0.046 -0.1225 -0.1518 -0.2618
25926W        W42774   5.643   8.899  15.111  0.1607 -0.1834 -0.2515
25927W        W42775  16.407  12.383   3.144  0.3007  0.1123 -0.0352
25928W        W42776   5.294   3.554  12.268  0.3888  0.2842 -0.3108
25929W        W42777   5.955  17.961   6.136 -0.1772 -0.2054  0.0734
25930W        W42778  16.581  14.972   4.676 -0.1272 -0.0678  0.1068
25931W        W42779  14.108  17.660   3.984  0.1407  0.0720  0.2917
25932W        W42780   4.659   6.395  13.124  0.0038  0.3086 -0.1929
25933W        W42781  17.079  13.989  12.409 -0.1324 -0.0910 -0.0906
25934W        W42782  15.724  15.253   1.175 -0.0699 -0.0169 -0.0026
25935W        W42783  12.598  15.932   1.979 -0.1220 -0.1880 -0.1871
25936W        W42784  13.710   1.972  12.241 -0.1488  0.1605 -0.2167
25937W        W42785   1.984   5.493  12.394  0.0462  0.3317 -0.3395
25938W        W42786   9.076   2.379   4.546 -0.3256  0.0462 -0.0553
25939W        W42787   8.725   9.828   4.040 -0.3479 -0.1558 -0.2157
25940W        W42788  12.330   7.775  13.444 -0.3656  0.1482 -0.0409
25941W        W42789   3.644  13.919  12.511 -0.0898 -0.0399 -0.1810
25942W        W42790   2.642   7.210  10.988 -0.1726  0.0730  0.4004
25943W        W42791  12.420   4.425  14.061 -0.0742  0.1103  0.2085
25944W        W42792   8.402   7.174   1.413 -0.4372  0.0812  0.0580
25945W        W42793  11.254   0.191   1.876 -0.0974  0.0941 -0.1891
25946W        W42794   7.157   0.985   4.739 -0.0706  0.0603  0.0748
25947W        W42795   1.839   2.451  13.231  0.0625 -0.0630  0.0544
25948W        W42796  13.881  14.717   4.363 -0.2188  0.1396 -0.0203
25949W        W42797  12.414  14.213   1.689 -0.0469 -0.0490 -0.0240
25950W        W42798  14.624   5.611   2.569 -0.0251  0.0521 -0.1847
25951W        W42799   4.853   9.318  15.005 -0.0695 -0.0389  0.0386
25952W        W42800   7.784   2.642   1.980 -0.0570 -0.0335  0.0212
25953W        W42801  11.727   9.831  13.471  0.3737 -0.1570  0.3199
25954W        W42802  17.849   2.199  12.555 -0.0097 -0.0135  0.2068
25955W        W42803  13.155   8.157   3.789 -0.0959 -0.0475 -0.0698
25956W        W42804   1.301   5.383  14.484  0.0757 -0.1328 -0.0441
25957W        W42805   3.051  13.372  16.087 -0.0695 -0.3435  0.1879
25958W        W42806   4.616  17.790  15.717 -0.0497 -0.0327  0.2439
25959W        W42807   1.950   8.875   2.410 -0.0764 -0.3146  0.0093
25960W        W42808   3.225  14.091  10.870 -0.1606 -0.1897  0.1385
25961W        W42809  15.293  11.173  12.055 -0.1875  0.4555 -0.0813
25962W        W42810  13.684  13.105  16.142 -0.5144 -0.0806  0.1029
25963W        W42811   7.467   8.484   4.846  0.0330  0.0363  0.0001
25964W        W42812   6.331  10.321   4.066  0.0046  0.0750  0.0029
25965W        W42813   1.512   3.287  14.924  0.2317  0.0928  0.2393
25966W        W42814  11.787   3.542  13.234  0.0641  0.0056  0.2587
25967W        W42815   9.079  13.442  11.918  0.0042  0.2633  0.0331
25968W        W42816  11.799   4.934   2.111  0.0929  0.0839  0.1378
25969W        W42817   2.344   5.188  14.225  0.1381 -0.1771 -0.2156
25970W        W42818  16.643   7.176  13.609  0.2306 -0.0600 -0.0744
25971W        W42819   9.503  17.735  11.802  0.2976  0.0250 -0.2494
25972W        W42820   4.794   4.599   0.738 -0.1638 -0.2771  0.1637
25973W        W42821   4.214   4.176  12.133 -0.2286 -0.2137  0.0420
25974W        W42822   2.416   3.151   2.279 -0.0707 -0.1775  0.4084
25975W        W42823  13.688   1.087   2.843  0.1662  0.0187  0.0804
25976W        W42824   5.984  17.149   4.818  0.0278 -0.3664 -0.0782
25977W        W42825   8.161   8.587   0.995 -0.2549  0.0137  0.2067
25978W        W42826   7.078   5.417   4.783 -0.0473 -0.1713 -0.3297
25979W        W42827  10.642  17.477   0.614 -0.2791  0.1004 -0.1981
25980W        W42828   7.546   6.935   0.929 -0.0135  0.1258  0.0946
25981W        W42829   9.781  10.673  14.446 -0.1149 -0.2417  0.0139
25982W        W42830  17.846  14.914   3.641 -0.2386  0.3066  0.2512
25983W        W42831   8.156   9.878   3.309  0.1215 -0.1677 -0.2795
25984W        W42832   0.812   8.178   1.458  0.2590  0.2148 -0.2761
25985W        W42833   1.423   7.412  13.118 -0.1854  0.0640  0.3444
25986W        W42834   7.812   2.367   4.943 -0.2272  0.1438 -0.2326
25987W        W42835   1.872  13.306   2.586  0.1701  0.3235 -0.3948
25988W        W42836  12.029  14.996  12.015 -0.1492 -0.1700 -0.0790
25989W        W42837   4.323   0.007  12.131  0.0387 -0.1300  0.2791
25990W        W42838   6.088   5.251  16.052  0.0674  0.1535 -0.0415
25991W        W42839  17.329   1.455   1.042  0.2472  0.1197  0.0386
25992W        W42840  10.067   2.388  14.135  0.0159 -0.1761 -0.1777
25993W        W42841  12.059   8.537  13.813 -0.0601  0.1623 -0.0774
25994W        W42842   0.077   5.093  13.779 -0.1356  0.1109  0.2846
25995W        W42843   6.693   9.776   2.743  0.1257 -0.0769  0.1475
25996W        W42844   4.449   9.959  13.850 -0.1579  0.0100  0.0459
25997W        W42845   6.400  14.818   4.073 -0.2742 -0.1501 -0.1660
25998W        W42846  15.493   3.540   2.597 -0.1980 -0.0567  0.0466
25999W        W42847   8.239   0.816  15.166 -0.0993 -0.2286 -0.2657
26000W        W42848   5.217  16.565   2.118  0.1693 -0.0068 -0.3223
26001W        W42849   9.077   8.296  12.635  0.1812 -0.1882  0.3789
26002W        W42850   6.756  16.440  15.684 -0.1573  0.1061 -0.2737
26003W        W42851   5.296   4.096   0.268 -0.4738 -0.0702 -0.1404
26004W        W42852   0.505  13.201   0.801 -0.0946  0.0609 -0.3331
26005W        W42853   4.236   2.358   3.665 -0.0858 -0.0535  0.1534
26006W        W42854   7.960   8.895   1.738 -0.0677  0.1572  0.2526
26007W        W42855   1.322   8.167   1.430 -0.3942  0.1184 -0.0494
26008W        W42856   5.372  10.611   3.596  0.0090  0.1401 -0.0886
26009W        W42857  13.666  11.737   0.077  0.1659  0.0789 -0.0678
26010W        W42858   1.813  13.076   0.078  0.0400 -0.0110 -0.3368
26011W        W42859  12.609   8.513  11.258  0.3483 -0.4286  0.2298
26012W        W42860  14.577   2.869  14.723  0.2500  0.0050 -0.2008
26013W        W42861  10.340   1.938   4.875  0.1021  0.0862 -0.0781
26014W        W42862   2.884   3.776  11.659 -0.2982  0.2675 -0.1535
26015W        W42863  15.888  16.803  11.560 -0.1762  0.4235 -0.0877
26016W        W42864  11.532  16.788  11.352  0.0388 -0.2690 -0.1374
26017W        W42865   6.659   1.011   4.587 -0.0510  0.0814  0.1163
26018W        W42866   4.100   9.473   0.566  0.0449 -0.2815  0.0200
26019W        W42867  13.940  13.698   0.619 -0.3710  0.0044  0.0120
26020W        W42868   4.199  11.927   5.015 -0.0826 -0.0878  0.1728
26021W        W42869   2.633   2.819  12.482 -0.0107  0.0615 -0.0759
26022W        W42870   0.479   5.958   2.880 -0.1200 -0.4286 -0.1641
26023W        W42871  12.294   9.705   2.038  0.0196  0.1764  0.0581
26024W        W42872   3.773   1.604  14.007 -0.1407 -0.0037  0.3755
26025W        W42873   9.989   7.251  16.175  0.2034  0.0462  0.3805
26026W        W42874  17.214   9.709   2.104 -0.0245 -0.0081 -0.2378
26027W        W42875   6.255  11.938   2.109  0.2931  0.0974  0.0563
26028W        W42876  12.127   4.097   5.627 -0.1597 -0.2073 -0.1507
26029W        W42877   1.223   2.133  14.719 -0.1603  0.1770 -0.0290
26030W        W42878   7.237   5.490   3.781 -0.1062  0.0054  0.1497
26031W        W42879   7.875  11.507  12.331 -0.3733  0.1625 -0.1607
26032W        W42880  10.281   0.248  16.070  0.0884  0.0063 -0.4223
26033W        W42881   4.012   7.859  13.401 -0.1130 -0.1447  0.1133
26034W        W42882  11.927  10.508   0.940  0.0024 -0.3254  0.0653
26035W        W42883   9.245  17.428  13.556 -0.1593 -0.0393 -0.0608
26036W        W42884   7.783  10.449   0.672  0.0285  0.0261 -0.1319
26037W        W42885   7.765   0.366   4.688 -0.1836  0.0130 -0.3303
26038W        W42886  10.009  15.969  11.636  0.0926 -0.0261  0.2261
26039W        W42887  14.756  10.418  15.391 -0.1087  0.1507 -0.0959
26040W        W42888   4.331  17.626   3.200 -0.1858 -0.0020  0.1157
26041W        W42889   2.372  13.503   2.733  0.3507  0.1558  0.0539
26042W        W42890  15.756  10.873  15.612 -0.0158  0.3896 -0.0810
26043W        W42891  15.578   0.819  13.325  0.0336  0.1687  0.2265
26044W        W42892   7.707   0.564  14.185  0.0193  0.0278  0.0536
26045W        W42893  10.512   9.951   1.445 -0.1586  0.0174  0.0301
26046W        W42894  13.698   4.842   0.193  0.2259  0.0661  0.3699
26047W        W42895   8.286   4.186  13.731  0.0862  0.0766  0.4189
26048W        W42896   0.096  11.429   0.708  0.1728  0.2299  0.2488
26049W        W42897   7.446  13.974   3.468  0.4913  0.2065  0.0261
26050W        W42898   2.752   5.312   0.960 -0.1640 -0.0746  0.2627
26051W        W42899   1.808   5.577  15.915  0.3051 -0.3038 -0.2854
26052W        W42900   4.449  11.025   5.058 -0.0764  0.2213 -0.2845
26053W        W42901  17.278  16.452   4.593 -0.1630 -0.1164  0.0332
26054W        W42902   7.598  10.919   2.026  0.1775 -0.2031  0.0810
26055W        W42903  15.112  12.837  12.663  0.1031  0.1070  0.1134
26056W        W42904  16.402  14.173  15.525  0.2161 -0.0483  0.0288
26057W        W42905  10.481   5.640   4.362 -0.1072  0.1066  0.1449
26058W        W42906  16.447   4.981   3.927  0.0749  0.1502 -0.0256
26059W        W42907  17.066   2.685  11.553  0.1165  0.2612  0.1600
26060W        W42908   9.337  13.446   1.781  0.1207  0.0409 -0.1394
26061W        W42909  16.518  14.728   4.155 -0.0151 -0.1799 -0.2389
26062W        W42910  10.996   5.176   0.992 -0.1829  0.0579 -0.3468
26063W        W42911  10.395   7.083  11.417  0.0696  0.3704  0.0684
26064W        W42912  14.491  12.211   0.645  0.1314  0.0758 -0.1568
26065W        W42913  16.465   8.282  13.801 -0.1394  0.1986 -0.1051
26066W        W42914  15.140   6.526  10.618 -0.1996 -0.1501  0.1073
26067W        W42915   7.965  15.144   2.096  0.3248  0.0483  0.0999
26068W        W42916   9.579  16.456  15.275 -0.0067  0.0076  0.0159
26069W        W42917   2.289  17.199   1.571 -0.1609 -0.1760 -0.1287
26070W        W42918   5.430   9.687   1.237  0.2894  0.3898 -0.3532
26071W        W42919  14.518   6.121  13.521 -0.0668  0.1996 -0.3334
26072W        W42920  12.450   1.216  14.860 -0.0812 -0.3965  0.0786
26073W        W42921   2.354  10.448  12.253 -0.1331 -0.3235  0.2213
26074W        W42922   6.987  17.735   3.557 -0.3163 -0.0553  0.2171
26075W        W42923  16.548   8.875  15.349  0.2971  0.0914 -0.0153
26076W        W42924  13.603   6.535   2.472 -0.0453  0.1346 -0.3688
26077W        W42925  17.710  14.936  14.254 -0.2917  0.2100  0.1440
26078W        W42926   2.951   0.526  14.083 -0.0052 -0.3141 -0.1536
26079W        W42927   7.129   4.066   2.602 -0.0656  0.0452  0.0898
26080W        W42928  16.886  13.941  11.970 -0.1959 -0.0821  0.1764
26081W        W42929   9.400  17.634  16.169  0.0597 -0.0967  0.4468
26082W        W42930   7.451  17.198   3.116  0.2296 -0.0134 -0.2394
26083W        W42931   7.361  14.599  16.063  0.2911  0.1256  0.2330
26084W        W42932   6.106   4.535   3.686 -0.0276 -0.0388 -0.2405
26085W        W42933   9.384  14.318  14.047  0.2259 -0.0571  0.0803
26086W        W42934   0.965   1.998   2.520 -0.3184  0.1339 -0.1732
26087W        W42935   2.828   1.131  14.207 -0.1073 -0.0729  0.0592
26088W        W42936   0.214  15.634  11.293  0.1232 -0.0705 -0.0364
26089W        W42937   4.782  11.090   2.687  0.0772  0.6984 -0.0689
26090W        W42938   7.217  17.383   2.673 -0.0606 -0.1516 -0.0494
26091W        W42939   3.371   6.159  11.821  0.0938 -0.1203  0.0035
26092W        W42940  13.377   2.960  12.401 -0.0935  0.0392 -0.2668
26093W        W42941  14.566  11.762   4.610  0.1593  0.1195  0.0200
26094W        W42942  18.037  15.435  10.938  0.1363 -0.1019 -0.1242
26095W        W42943  10.955   3.837  14.373 -0.2009 -0.0498  0.0166
26096W        W42944   1.688   1.407   2.690 -0.1830  0.1812 -0.2232
26097W        W42945   7.526   5.985  12.824  0.1744 -0.0659 -0.0180
26098W        W42946   1.889   9.081   4.927  0.2770  0.1158 -0.1390
26099W        W42947   8.502  16.543  12.497 -0.1194 -0.1260 -0.0015
26100W        W42948  17.808  11.802  16.273 -0.0483  0.1559 -0.0427
26101W        W42949   1.755   6.431  12.331  0.2496 -0.0462 -0.1531
26102W        W42950   5.918  10.263   0.481  0.3323  0.0613 -0.1927
26103W        W42951  12.718   6.104  14.913  0.0229  0.0048  0.1222
26104W        W42952   1.024  15.809   1.631  0.1932  0.1904  0.1122
26105W        W42953   8.150   7.251   2.248 -0.0302  0.3056  0.2584
26106W        W42954   8.329   6.048  16.320 -0.1401 -0.1456  0.3032
26107W        W42955   1.864  14.866  11.828 -0.1461 -0.1836  0.0170
26108W        W42956  12.299  10.647   1.700  0.2017 -0.1762  0.2849
26109W        W42957   3.670  14.695   6.188 -0.1148 -0.1249  0.0332
26110W        W42958   6.776   9.772  12.342 -0.1829  0.0739  0.3331
26111W        W42959   6.360   1.182  11.558  0.2621  0.1755 -0.0887
26112W        W42960   9.368  16.761  16.122 -0.1019 -0.0820  0.1509
26113W        W42961   3.520  15.011  10.788  0.2691 -0.0486 -0.0715
26114W        W42962  10.567   3.211  15.013 -0.0785  0.0236 -0.0725
26115W        W42963   9.021  10.056  12.724  0.1110  0.0077  0.0694
26116W        W42964  13.895  11.289  12.041 -0.1560  0.0955  0.2557
26117W        W42965   2.146   1.729  14.466 -0.0811 -0.3403  0.1245
26118W        W42966   0.382   4.077  11.902 -0.1842 -0.1041  0.2084
26119W        W42967   2.387  11.641   4.496  0.0790 -0.0819  0.2221
26120W        W42968   4.045   5.263  11.540  0.0128 -0.1693  0.4045
26121W        W42969  13.016  11.486   4.954 -0.0721  0.1295 -0.0093
26122W        W42970   9.806  16.788  15.543  0.0231 -0.1717 -0.1204
26123W        W42971  16.941   5.947   1.127  0.0096 -0.0549  0.0393
26124W        W42972   0.257   2.966   4.349 -0.0608  0.0172 -0.0767
26125W        W42973   1.042   0.528  11.346 -0.2100  0.2368 -0.0403
26126W        W42974   1.102   7.930  11.065 -0.2642 -0.0892 -0.2074
26127W        W42975  13.594  15.629  16.030 -0.1181  0.2157 -0.0974
26128W        W42976  12.218  11.465   4.169  0.1208 -0.1041  0.0711
26129W        W42977  17.053  14.734  11.286 -0.0172 -0.2080  0.0441
26130W        W42978   5.432  14.242  15.460 -0.1221  0.1699  0.0116
26131W        W42979  13.353  15.411   2.387  0.0480 -0.4335 -0.1294
26132W        W42980   7.857   8.785   5.532 -0.2240  0.1378  0.1918
26133W        W42981   0.732  16.999  15.607  0.1126  0.2208  0.2526
26134W        W42982   0.582  11.709  12.275  0.0222 -0.2139  0.0423
26135W        W42983   5.830  12.833   3.174 -0.1438  0.0706  0.0336
26136W        W42984  15.675   9.900  13.187 -0.0889  0.3244  0.0573
26137W        W42985   2.623   4.001  11.985 -0.1186  0.0493 -0.1274
26138W        W42986  13.852  12.836   5.642  0.0586  0.0154  0.2645
26139W        W42987  10.770   7.698   2.524 -0.2115 -0.1752  0.2639
26140W        W42988  15.622  14.935   0.668  0.0431 -0.4079 -0.2320
26141W        W42989   5.710  14.545   4.625  0.1027 -0.0142  0.0315
26142W        W42990   4.835   6.711   1.609 -0.0446 -0.3428  0.2609
26143W        W42991  16.729   0.292  11.156  0.0177  0.0162  0.0973
26144W        W42992  14.107  10.003   4.809 -0.1226  0.1815  0.2396
26145W        W42993   0.097  16.974  12.096  0.3488  0.0320  0.0098
26146W        W42994   4.183   1.794  12.287 -0.0705  0.1674 -0.0734
26147W        W42995   7.646   5.039  13.093 -0.2252 -0.0933  0.0464
26148W        W42996  10.325  13.584   3.724 -0.1454 -0.2692 -0.1124
26149W        W42997  15.253  10.526   3.954  0.0159  0.0779 -0.0540
26150W        W42998   3.762  18.072  11.993  0.1296 -0.0686  0.3172
26151W        W42999   8.856  12.387  12.699  0.1305  0.2765  0.0655
26152W        W43000   3.054  10.477  15.764  0.1230  0.4235 -0.1401
26153W        W43001  11.495   0.897   0.167  0.1162 -0.3000  0.1883
26154W        W43002   3.689   9.746  10.449 -0.0730 -0.0618 -0.2304
26155W        W43003  15.165  14.780   0.160  0.2264  0.2254  0.3626
26156W        W43004   5.393   2.801   2.563 -0.2231 -0.0884 -0.0226
26157W        W43005  13.287   0.559  12.924 -0.0211 -0.3363 -0.0739
26158W        W43006  10.019   4.990   0.932  0.1217 -0.0876 -0.2464
26159W        W43007  15.625   0.601   1.554 -0.3481  0.2805  0.3284
26160W        W43008   1.238   1.694  13.392  0.3443 -0.1074  0.0834
26161W        W43009   3.338   2.477  15.152 -0.0547 -0.0779  0.1267
26162W        W43010   7.667  14.923  15.775 -0.0618 -0.1296 -0.1246
26163W        W43011  17.591   1.763  13.691  0.1388  0.1884  0.0130
26164W        W43012  15.343   4.106  15.584  0.1190 -0.1573 -0.1758
26165W        W43013   5.705  12.275  12.297  0.1243  0.2534  0.0245
26166W        W43014  17.257   1.744   2.920 -0.0593 -0.0848  0.0461
26167W        W43015   1.601  12.802   2.554  0.1821 -0.3096  0.2264
26168W        W43016   8.177  13.731  12.538  0.0195  0.0700  0.0563
26169W        W43017  14.993  14.439   4.295  0.1179 -0.1248  0.1403
26170W        W43018  13.551  12.317   3.564  0.0166  0.3323 -0.3233
26171W        W43019  17.786  16.394  13.615 -0.1294 -0.0478  0.2091
26172W        W43020   0.735   3.009  11.452 -0.0399  0.0864 -0.0236
26173W        W43021   0.263  16.882  13.087 -0.1172  0.0392 -0.1242
26174W        W43022  14.848  14.973  12.452  0.2540  0.2952 -0.2272
26175W        W43023   0.471   1.409   3.785 -0.0712  0.0623  0.1578
26176W        W43024  10.904   3.950   6.018  0.2066  0.0328  0.1655
26177W        W43025   8.817  15.409   1.982  0.1418  0.0826 -0.0400
26178W        W43026   0.569  11.886   0.259  0.1424 -0.3803  0.0091
26179W        W43027  15.707   3.762  10.317 -0.1460 -0.1682  0.0663
26180W        W43028  16.654  11.480   2.629 -0.1502  0.1147 -0.0735
26181W        W43029   4.225   2.774   3.298  0.1243  0.0607  0.0757
26182W        W43030   0.197   8.035  13.706  0.0911  0.1119 -0.1555
26183W        W43031   7.110  12.029   0.121 -0.0589  0.4791 -0.3238
26184W        W43032   5.849   4.638  15.475 -0.5883  0.2716  0.2966
26185W        W43033  12.254   9.802   3.505 -0.2601 -0.3482  0.2446
26186W        W43034  17.492   5.221   1.537 -0.1866 -0.1334 -0.1836
26187W        W43035  15.904  16.419   0.445 -0.3046 -0.1497  0.0865
26188W        W43036  14.139   8.328   4.016 -0.0963 -0.1041 -0.0297
26189W        W43037   9.860   5.284  14.366  0.2572 -0.3280 -0.2111
26190W        W43038   5.012  14.011   4.570 -0.0491  0.2041  0.4453
26191W        W43039  17.027  13.495   1.563  0.4832  0.3658 -0.1041
26192W        W43040  17.935   9.316  14.615  0.1047 -0.1754 -0.2487
26193W        W43041   3.341   0.189  12.309  0.0864 -0.1577  0.0146
26194W        W43042  13.072  15.311   0.809  0.1730  0.0226 -0.0507
26195W        W43043   9.370   4.058  15.148  0.0409  0.3464 -0.1800
26196W        W43044  11.671   6.828  14.311 -0.1780 -0.3217  0.2190
26197W        W43045  17.412  12.556   3.835 -0.0740  0.1423 -0.1208
26198W        W43046   1.564   7.982   3.221 -0.0397  0.0453  0.0209
26199W        W43047   4.106   6.516  13.205 -0.1597 -0.0687  0.1441
26200W        W43048   3.152   5.251  15.166  0.2051 -0.2921 -0.1602
26201W        W43049   0.824  11.328   1.736 -0.1663 -0.1085  0.1695
26202W        W43050  15.859  14.888  15.754  0.3179 -0.1493  0.0984
26203W        W43051   9.128  10.136  12.117 -0.0151  0.1694 -0.1294
26204W        W43052   7.063   5.323   3.295  0.1187 -0.0794  0.1339
26205W        W43053  16.481   2.162  12.613  0.2992 -0.0166 -0.0575
26206W        W43054   7.482  12.127  15.342  0.1494 -0.0290 -0.2637
26207W        W43055   1.235   2.736   3.023  0.0978  0.0108  0.3096
26208W        W43056  11.421  11.333  14.313 -0.1024 -0.1459 -0.0872
26209W        W43057   9.614   3.757   3.767  0.1297  0.0396  0.0242
26210W        W43058  11.857   9.661  10.360 -0.2032 -0.2119 -0.2697
26211W        W43059  14.996   0.608   1.698 -0.2531  0.1042 -0.0163
26212W        W43060  14.017  10.751  11.241  0.0089  0.2320 -0.5761
26213W        W43061   4.762  16.747   2.020  0.1592 -0.0477  0.2445
26214W        W43062  12.639   5.718   4.163  0.0819 -0.0430  0.1747
26215W        W43063   0.904   1.288   5.531  0.0763  0.0083 -0.0617
26216W        W43064   7.342  11.938  11.341  0.0117  0.2588 -0.3979
26217W        W43065   5.767  11.109  11.458  0.1074  0.2814 -0.0523
26218W        W43066  17.899   2.278   3.006 -0.0444 -0.3737 -0.0632
26219W        W43067   5.542  17.846   2.059  0.1825 -0.0021 -0.0696
26220W        W43068   8.129  10.790  15.748 -0.0457 -0.0567  0.0088
26221W        W43069  13.513  13.667   4.515  0.1334 -0.1207  0.0528
26222W        W43070   3.032  10.072  12.124  0.1436  0.1507  0.2061
26223W        W43071  10.681  11.762   4.839 -0.1401  0.0598  0.0059
26224W        W43072   7.909   0.090  16.186  0.2765  0.0089  0.2932
26225W        W43073   6.814  10.284  14.704 -0.0097 -0.1810  0.1030
26226W        W43074  17.904   4.938  13.420 -0.1645  0.2317 -0.1133
26227W        W43075  15.307  15.049   2.625 -0.4406 -0.0922  0.0085
26228W        W43076  13.300  17.826   5.250 -0.1028  0.3168 -0.2803
26229W        W43077   7.610   8.126  14.252  0.0434 -0.0327 -0.0924
26230W        W43078   8.081   6.632  11.701  0.1892  0.1999  0.2049
26231W        W43079  16.800   9.769   2.463 -0.0496 -0.2311  0.0798
26232W        W43080   8.749  16.263   2.123  0.2520 -0.1508  0.0230
26233W        W43081   4.988  15.196   4.079 -0.1578 -0.3339  0.0812
26234W        W43082  13.274  13.222   4.211 -0.1817 -0.0633  0.0346
26235W        W43083  13.633   9.507  14.061  0.2236  0.0568  0.3165
26236W        W43084  10.158   7.173  12.768  0.0626 -0.1361 -0.1917
26237W        W43085   6.263  17.282  13.334  0.0982 -0.1768  0.3379
26238W        W43086   6.623  13.190   0.524 -0.2331  0.0629  0.0720
26239W        W43087  10.264  12.100   4.926  0.0405 -0.1542 -0.2311
26240W        W43088  15.978  16.329   5.965 -0.0397 -0.3522  0.0187
26241W        W43089   4.904   1.589  14.720  0.2981  0.0603 -0.0213
26242W        W43090  13.844  13.322   2.618 -0.1241 -0.0597 -0.0663
26243W        W43091  16.975   2.085  14.057 -0.1605  0.0446 -0.0244
26244W        W43092  11.298   1.289   1.923 -0.0499 -0.1359 -0.1493
26245W        W43093  15.135  15.358   0.949 -0.2345 -0.1102 -0.0928
26246W        W43094  15.787   3.151  15.717 -0.0261 -0.0012  0.2599
26247W        W43095  11.473   5.192  10.696 -0.2020 -0.0410  0.0559
26248W        W43096   4.075  17.477   6.176 -0.0630  0.0546  0.1271
26249W        W43097  10.896   2.105   0.349 -0.1519 -0.4403 -0.2383
26250W        W43098   0.105  13.692   3.903 -0.0657 -0.2505  0.0591
26251W        W43099   2.429   2.312   4.160 -0.1085 -0.4986  0.0708
26252W        W43100   5.571  10.894   0.267 -0.3449 -0.0972  0.4623
26253W        W43101  11.596  14.943   3.770 -0.2861  0.4769  0.1682
26254W        W43102  13.956  17.150  12.498 -0.0166  0.2582 -0.1050
26255W        W43103  16.688   2.896  15.432 -0.0821 -0.1958  0.0654
26256W        W43104   6.726  15.028   3.167  0.0310 -0.0948 -0.0823
26257W        W43105   1.129  11.750  13.204  0.0105  0.0294  0.0642
26258W        W43106   9.029   4.944  10.947  0.0693  0.2184  0.4375
26259W        W43107   9.827   6.490   2.403 -0.1965  0.3471  0.2498
26260W        W43108   9.094   0.940  16.191 -0.0680 -0.2791  0.0143
26261W        W43109  10.759   3.999  12.802 -0.0186  0.4165  0.2035
26262W        W43110   8.520  18.097  15.115 -0.2334 -0.2791  0.3528
26263W        W43111   2.724   6.364  13.044 -0.0471 -0.0183  0.1754
26264W        W43112   0.865  13.485  12.059  0.1035 -0.0463 -0.3355
26265W        W43113  11.137  11.771   2.456 -0.0776 -0.1906 -0.1731
26266W        W43114   8.235   4.931   0.279 -0.0438 -0.0147 -0.3648
26267W        W43115  16.515   1.073   3.027  0.0426  0.0854  0.0981
26268W        W43116   8.364  15.306   0.453 -0.3257 -0.0885 -0.0009
26269W        W43117  10.476  17.941  14.067 -0.0753  0.1836  0.0629
26270W        W43118  17.136   2.478  16.175 -0.0396  0.1275  0.1533
26271W        W43119   7.413   9.972   5.612  0.2953  0.1465 -0.1000
26272W        W43120  17.668  11.149   0.700  0.1665  0.0205  0.0957
26273W        W43121  14.525  11.197  16.267  0.0948  0.2843  0.0976
26274W        W43122  16.571  17.130   5.449 -0.1058 -0.1413 -0.1732
26275W        W43123   1.406  12.727  15.572  0.1224  0.0603  0.0491
26276W        W43124   2.709  13.628   4.647  0.0232 -0.1909 -0.1151
26277W        W43125   9.106  13.756   2.666  0.1058  0.1538 -0.1889
26278W        W43126   2.714   6.114   4.449 -0.0987 -0.2702 -0.1148
26279W        W43127   8.211  14.686   4.011 -0.1532  0.2265 -0.3281
26280W        W43128  17.273  16.582  15.861 -0.0463 -0.1333 -0.0011
26281W        W43129  12.832  14.801   1.258 -0.4438  0.0970  0.1722
26282W        W43130   1.649  10.398  11.570  0.0215  0.0470  0.0590
26283W        W43131   3.327   9.730   4.520 -0.0158  0.0481  0.0481
26284W        W43132  12.912   0.620   5.685 -0.1813 -0.3929 -0.0128
26285W        W43133   3.682  11.813   4.084  0.1110  0.1822  0.0677
26286W        W43134   1.966   6.235  15.182  0.1471  0.0595  0.1535
26287W        W43135  17.591   5.662   1.960 -0.1396  0.0510 -0.1695
26288W        W43136  10.781  13.929   1.607  0.1493  0.0055  0.1588
26289W        W43137  16.015   2.614  12.371  0.0707  0.0681  0.2288
26290W        W43138   7.703  15.003   3.997  0.0403 -0.1083 -0.0705
26291W        W43139   5.224   4.662   3.755 -0.0537 -0.0914 -0.0236
26292W        W43140   3.830  13.006   3.608  0.0119  0.1180 -0.0932
26293W        W43141   3.747  16.126   0.295 -0.0704  0.0667 -0.1327
26294W        W43142  17.057  18.001  10.936 -0.0829  0.1869 -0.0772
26295W        W43143  16.614   6.559  15.756 -0.2396  0.0558 -0.1279
26296W        W43144   5.929   9.822  13.042  0.1591  0.1792 -0.3387
26297W        W43145  14.949   3.178  16.095 -0.0405  0.1005  0.0406
26298W        W43146   3.841   6.962   4.737 -0.1011 -0.0446 -0.0035
26299W        W43147  10.926   1.315  10.892 -0.3172 -0.2320  0.2387
26300W        W43148  14.042  11.483   1.535 -0.3722  0.0807  0.1320
26301W        W43149   4.486   2.187  14.954 -0.0808 -0.1482  0.0710
26302W        W43150  15.120  10.908  11.632 -0.2200  0.1666  0.0166
26303W        W43151  15.447   3.833  11.567 -0.3513 -0.2885 -0.3143
26304W        W43152   0.653   6.855   0.495 -0.3694  0.0600 -0.1440
26305W        W43153   6.691   9.174  11.385 -0.2955 -0.1125  0.4156
26306W        W43154  15.860   2.717  15.331  0.2396 -0.0833 -0.2319
26307W        W43155   2.802   5.760   3.882 -0.0030 -0.0651 -0.0744
26308W        W43156   1.334   4.249   0.457 -0.4829  0.4767 -0.0296
26309W        W43157  15.216   2.791  15.952  0.1638 -0.0211 -0.0430
26310W        W43158   3.864  13.707   1.718  0.2218 -0.2132 -0.1690
26311W        W43159  14.518   0.485   1.526 -0.1205  0.3972 -0.8408
26312W        W43160   8.088  15.973   5.109 -0.3600  0.0321  0.1137
26313W        W43161   8.292  11.888  11.012 -0.0899  0.0432  0.0883
26314W        W43162  12.030  13.671   0.584  0.0323  0.0570 -0.3196
26315W        W43163   8.189  11.237  13.557  0.1225 -0.0786  0.1023
26316W        W43164  17.414   7.458   3.128  0.1576 -0.2407  0.0598
26317W        W43165   5.332   0.354  13.265  0.0735  0.1949  0.2562
26318W        W43166   0.645  13.827  11.810  0.1795  0.0999 -0.0407
26319W        W43167  11.809   5.837   0.097  0.1498  0.0319  0.0484
26320W        W43168  16.416   5.757  15.122 -0.2564 -0.0671  0.0738
26321W        W43169   6.326   6.883   0.781 -0.0412  0.1217 -0.2412
26322W        W43170  15.625  13.487   4.950 -0.2612 -0.1454  0.1094
26323W        W43171   6.852   1.406   0.312 -0.0065 -0.1939  0.1020
26324W        W43172   9.338  12.225   1.966 -0.2116 -0.0392  0.0209
26325W        W43173   6.084  14.806  13.495  0.1349  0.1424 -0.3228
26326W        W43174   4.066   7.536   0.935 -0.3781 -0.1812 -0.0938
26327W        W43175  11.965   7.752  12.984 -0.0401 -0.2677  0.0519
26328W        W43176   3.382   8.182   0.356 -0.2257  0.2297 -0.2115
26329W        W43177   7.927   9.520  13.892 -0.1570 -0.5801 -0.3288
26330W        W43178  13.292  17.215  14.747  0.2000  0.2030 -0.3221
26331W        W43179  12.252   2.760  13.903  0.2544  0.0268 -0.0893
26332W        W43180   5.872   0.804  14.397 -0.1804  0.0880  0.0476
26333W        W43181  12.902   2.515  14.385  0.1347 -0.1563  0.3716
26334W        W43182  10.158   6.539   3.214 -0.0742 -0.0162 -0.2672
26335W        W43183  12.378  11.885   3.924  0.0542  0.1221  0.0575
26336W        W43184   1.770   4.318   2.167  0.1745 -0.0101 -0.1135
26337W        W43185   2.067   2.997   1.017  0.1969 -0.2073 -0.1293
26338W        W43186  14.642   3.333  15.356  0.0675  0.3533 -0.2526
26339W        W43187  14.820   9.905   0.983  0.3047 -0.2298 -0.0039
26340W        W43188   4.326  14.381   3.842  0.1161  0.1848 -0.0450
26341W        W43189  16.846  17.278  14.716 -0.2402 -0.3206 -0.2538
26342W        W43190   9.896   7.758  16.254 -0.0981  0.0254  0.1031
26343W        W43191   1.794  17.861  13.477  0.1609 -0.1228  0.2101
26344W        W43192   8.682  10.181  16.135 -0.4776 -0.1334 -0.2777
26345W        W43193  13.095  16.720  14.700  0.1942 -0.1853 -0.2681
26346W        W43194   3.247  15.855  15.420  0.1270 -0.1054  0.1580
26347W        W43195  15.046  16.683  13.063  0.2864 -0.3498 -0.0564
26348W        W43196   6.018   7.932  14.591 -0.2247 -0.2948 -0.0460
26349W        W43197   4.148   2.192   1.600 -0.0273  0.2887 -0.1519
26350W        W43198  11.100   2.065  14.692  0.0704 -0.0279  0.1030
26351W        W43199  16.344  18.050   3.143  0.2233 -0.0326 -0.0301
26352W        W43200  14.043  14.166  12.255 -0.0273 -0.2996 -0.2172
26353W        W43201  11.148   4.098  15.610 -0.1370  0.1258 -0.2364
26354W        W43202   3.595   6.668  10.572  0.3076  0.3004 -0.1742
26355W        W43203   6.809  16.933   4.366 -0.5364 -0.2254  0.2706
26356W        W43204   6.396  16.630   1.971  0.2112  0.1731  0.0979
26357W        W43205   2.709   9.185   2.737  0.1760 -0.2611 -0.1115
26358W        W43206  11.158  12.424   4.117 -0.2901 -0.1321 -0.1435
26359W        W43207  17.091   2.382   6.097 -0.0981  0.3066  0.2835
26360W        W43208   9.009   7.591  11.778 -0.2507  0.2111  0.1228
26361W        W43209   4.981  12.843  11.694  0.0156 -0.0218 -0.5738
26362W        W43210   2.803  17.725   2.381 -0.0247  0.1565  0.4289
26363W        W43211  14.127   1.607   0.262  0.1519 -0.3143  0.0580
26364W        W43212   8.955   5.687   4.695 -0.2082  0.1017 -0.2286
26365W        W43213  14.659   0.480  12.387 -0.0784 -0.3284  0.0655
26366W        W43214  15.581  15.111   1.608 -0.0176  0.2406 -0.2466
26367W        W43215   2.684   6.946   3.307 -0.1727  0.1215  0.0721
26368W        W43216   0.179  13.722  15.072  0.2229 -0.4218  0.0235
26369W        W43217   3.862  15.658  14.778 -0.3409  0.0532  0.1427
26370W        W43218  17.661  15.542   4.218 -0.0183 -0.0235 -0.2185
26371W        W43219  13.023   3.746   1.798  0.3022 -0.3548 -0.1773
26372W        W43220  10.513   2.146  14.312 -0.3011 -0.2556  0.3630
26373W        W43221  11.217  15.867  13.230 -0.1305  0.4443  0.0913
26374W        W43222  12.184  16.134  15.284 -0.0168  0.1277 -0.1028
26375W        W43223   5.213   5.209   1.275 -0.0653  0.0107  0.1658
26376W        W43224   4.458  16.737  13.700 -0.2961 -0.3691 -0.2724
26377W        W43225   3.664  11.138   4.893 -0.1008 -0.2290  0.2974
26378W        W43226  12.110   6.851   1.907  0.3697 -0.0518  0.1724
26379W        W43227   9.823   1.650   2.488  0.1850  0.2913 -0.3430
26380W        W43228   0.091   6.174   3.213  0.3857 -0.0720 -0.1807
26381W        W43229   7.702  15.748  11.181 -0.0791  0.2545  0.0037
26382W        W43230  16.803  11.902  15.325  0.1248 -0.3262  0.1617
26383W        W43231   3.730   6.813   4.233 -0.0529 -0.2402  0.0677
26384W        W43232  17.230   6.200  13.652 -0.1199  0.0362 -0.1406
26385W        W43233   4.175   7.882  11.610 -0.2953 -0.0716  0.3017
26386W        W43234   5.957   6.713   2.572 -0.2072  0.2315  0.0455
26387W        W43235   8.586   8.725  13.745  0.1314  0.0816  0.0347
26388W        W43236   0.981  16.273   0.713  0.1566 -0.3407  0.3882
26389W        W43237   8.551   7.279   4.827 -0.2129 -0.0689  0.0177
26390W        W43238   0.344  16.379  12.549 -0.1274 -0.1598 -0.1020
26391W        W43239   0.239  11.316  12.349  0.1741 -0.1494 -0.0258
26392W        W43240   2.843   7.446   1.645 -0.1064 -0.0800  0.0174
26393W        W43241  11.855  13.286   3.676  0.0732 -0.0092 -0.2563
26394W        W43242   1.784   4.316   2.749 -0.3743  0.1314 -0.0197
26395W        W43243   6.137  14.588  14.616  0.2625  0.3962  0.0085
26396W        W43244  12.857   5.481  12.748 -0.0820 -0.0209  0.0450
26397W        W43245   4.282  10.452   1.983  0.1604  0.1201  0.2288
26398W        W43246   5.372  16.023   4.159  0.0324  0.0322  0.3528
26399W        W43247  12.234   2.576  13.081 -0.1116 -0.0393 -0.2113
26400W        W43248   1.190  12.336  11.271  0.1732  0.1119 -0.1329
26401W        W43249   1.462  14.039  13.666 -0.1346 -0.4492 -0.3597
26402W        W43250   7.805  14.458  13.762  0.0555  0.0275  0.1993
26403W        W43251   0.606   7.830   1.167  0.1887  0.1087 -0.0490
26404W        W43252   7.124  13.310   3.400  0.4351 -0.2895 -0.2774
26405W        W43253  16.389  14.217   2.439  0.0223  0.2958  0.0273
26406W        W43254   2.364  15.883   3.409  0.0845 -0.1909  0.0674
26407W        W43255   6.149  16.128  14.517 -0.0142  0.0171 -0.0794
26408W        W43256   1.651   4.067  13.791  0.6031  0.3143 -0.0498
26409W        W43257   5.144  10.659   1.094  0.1207  0.1481 -0.1546
26410W        W43258  15.733   3.840   0.049  0.0155  0.0127 -0.0550
26411W        W43259   8.505  17.723   2.675  0.2395  0.3241  0.2225
26412W        W43260  17.998   4.461   2.237  0.3425 -0.0728 -0.0791
26413W        W43261   5.807   0.531  11.527  0.2744 -0.1576 -0.4768
26414W        W43262  11.349  12.288  12.777  0.0392  0.1130  0.0129
26415W        W43263   5.415  10.577  13.345  0.2031 -0.1235  0.1306
26416W        W43264   4.318   3.557  14.594  0.1029  0.2099  0.2261
26417W        W43265  14.282  11.221   4.438 -0.0378 -0.0364  0.0437
26418W        W43266  17.907   4.595   3.779 -0.2010 -0.0249  0.2425
26419W        W43267  13.835  12.118   2.354  0.0014  0.1083 -0.2863
26420W        W43268  17.675   4.222  15.960  0.1471  0.1754  0.1212
26421W        W43269  16.565   0.873  12.607 -0.3827  0.0637 -0.0789
26422W        W43270  11.094  10.170   2.406 -0.1969 -0.0963  0.4910
26423W        W43271   2.301  15.134   5.130  0.1114  0.0300 -0.1731
26424W        W43272   7.219   6.685  13.967 -0.2010 -0.0422 -0.2148
26425W        W43273   7.046   2.101   5.294  0.1979 -0.2080  0.1478
26426W        W43274   4.004   5.074  15.664 -0.4121  0.3684  0.0869
26427W        W43275  13.667  16.611   1.176 -0.0311 -0.1385 -0.2614
26428W        W43276  10.329   2.398  12.943  0.2178 -0.1198 -0.1344
26429W        W43277   9.394   9.010  13.552  0.1394 -0.1079 -0.0359
26430W        W43278   2.245  17.962  16.154 -0.1097  0.1437 -0.3050
26431W        W43279  12.100  11.540  11.484  0.1244 -0.2644 -0.2486
26432W        W43280  12.411  11.287  13.405  0.0137 -0.0145  0.4309
26433W        W43281  12.738   3.947   0.357  0.4171 -0.0074  0.1128
26434W        W43282   0.302  17.198  14.417  0.2601  0.0546 -0.1179
26435W        W43283  16.123   7.987  11.837 -0.1048 -0.1510 -0.1806
26436W        W43284   7.704  16.883   5.214 -0.0568 -0.2224  0.1688
26437W        W43285  10.021  13.715  13.063  0.1443 -0.1861  0.2355
26438W        W43286  13.813   6.058   2.511 -0.2524 -0.0190 -0.1781
26439W        W43287   4.976  17.218   5.496  0.3751  0.1075  0.0907
26440W        W43288  16.760  17.885   4.397  0.4368 -0.1889  0.0152
26441W        W43289   5.374   2.354   4.129  0.0544 -0.3019  0.3506
26442W        W43290   2.660   4.262   0.809 -0.2695  0.0276  0.0244
26443W        W43291   6.104   0.215  11.834  0.0639 -0.4035 -0.0640
26444W        W43292   4.090   3.548  12.193  0.0534  0.1844  0.1030
26445W        W43293   8.407   0.098  15.809 -0.4295 -0.0786 -0.2172
26446W        W43294  17.733   0.326   4.469 -0.2554 -0.1015  0.0755
26447W        W43295  11.871   9.760   0.161  0.1367 -0.1610  0.0221
26448W        W43296   5.584   8.448  13.326  0.1780 -0.1889  0.1106
26449W        W43297  15.248   3.518   5.004 -0.1222  0.2126 -0.1551
26450W        W43298   8.126   7.862  11.979  0.0252  0.4062  0.1030
26451W        W43299   1.246  12.137   1.247  0.1921 -0.0466  0.0748
26452W        W43300   7.582  10.089   4.907  0.1113 -0.3323 -0.0468
26453W        W43301  12.228   6.394  14.191  0.1052 -0.0550 -0.2209
26454W        W43302  17.198   3.966   5.061 -0.0114  0.0411  0.1188
26455W        W43303   7.524   3.133  15.407  0.2603  0.0666 -0.0342
26456W        W43304  14.703   1.017  12.283 -0.0881  0.2879 -0.1103
26457W        W43305  14.133  10.113   3.645  0.1030  0.3321 -0.1022
26458W        W43306   0.929   2.819  12.050 -0.0197 -0.2808  0.1130
26459W        W43307   4.890   7.627   2.544  0.0106 -0.2639 -0.1942
26460W        W43308  14.584   5.999  14.401  0.1235 -0.1517 -0.0246
26461W        W43309  11.659   9.343  13.321 -0.0146  0.0056 -0.1884
26462W        W43310   2.077  13.516  16.255 -0.0635 -0.1279  0.6130
26463W        W43311   7.779  17.344   1.040 -0.3576 -0.1932 -0.0566
26464W        W43312   8.558  15.107   3.359 -0.1572 -0.1130  0.0150
26465W        W43313   7.081   5.692  15.163  0.0666  0.0947  0.2986
26466W        W43314  17.290  13.200  13.627 -0.1896 -0.3535  0.1347
26467W        W43315   9.527   1.156   1.983  0.3724  0.1683  0.0125
26468W        W43316   9.811   9.243   1.202  0.1251  0.0512  0.0408
26469W        W43317   1.745   7.227   1.771 -0.0722  0.1169  0.3258
26470W        W43318   9.219  11.415  12.976 -0.2612 -0.0089 -0.1933
26471W        W43319  14.501  15.208   2.214  0.0956 -0.0327  0.0218
26472W        W43320   7.410  17.679  11.788 -0.0239 -0.1087  0.3305
26473W        W43321  16.593   3.951   0.139 -0.0431 -0.4656 -0.0479
26474W        W43322   0.937   8.495   4.160  0.0557  0.3423 -0.2160
26475W        W43323  10.308  11.217  14.065 -0.1358  0.1518  0.0099
26476W        W43324   1.537  17.567  15.697  0.2694  0.0952  0.0471
26477W        W43325  15.334   8.171   5.100 -0.0987  0.1083 -0.4190
26478W        W43326  16.193   4.152   2.571  0.2121 -0.3051  0.0117
26479W        W43327  13.598   1.203   3.994  0.0736  0.1398 -0.3024
26480W        W43328  11.645   1.156   4.293 -0.0495 -0.3292 -0.3344
26481W        W43329   6.725   4.316   4.488 -0.4148  0.0482 -0.0515
26482W        W43330   7.200   9.943  14.336 -0.1845 -0.2331 -0.0913
26483W        W43331   8.371   9.977  11.554 -0.0030 -0.0232  0.2251
26484W        W43332  11.209  10.322  14.227  0.2733 -0.1054  0.0550
26485W        W43333   5.667  13.445  12.972  0.1973  0.0088  0.1657
26486W        W43334  13.845   7.119   0.184  0.0856  0.0196  0.0233
26487W        W43335   5.366   8.804  13.588  0.0163  0.0274 -0.0039
26488W        W43336  16.673   6.459   3.720 -0.0040  0.3601  0.0255
26489W        W43337   9.694   9.658  11.092  0.0822 -0.2196 -0.0794
26490W        W43338  15.431   4.416  14.266 -0.0531  0.0190  0.2091
26491W        W43339  14.766  13.125  11.431 -0.1727  0.1105  0.1439
26492W        W43340   4.673   0.587  14.848  0.0450 -0.1917 -0.1341
26493W        W43341  17.992  15.136   4.037  0.2188 -0.1448 -0.1544
26494W        W43342  17.849  11.387   2.500  0.0010  0.0974  0.1320
26495W        W43343   5.663  13.618   5.579 -0.0765 -0.2177  0.0510
26496W        W43344   3.382  10.610  13.689  0.0824  0.0564  0.2879
26497W        W43345  13.558   2.008   4.969  0.0317  0.2241 -0.0114
26498W        W43346   2.554   2.261   0.975  0.2287  0.0875 -0.0185
26499W        W43347  15.645  11.145  12.358 -0.1595  0.0508  0.0934
26500W        W43348   1.732  10.507   5.056  0.0500  0.5349 -0.0280
26501W        W43349   9.259  10.561   0.987  0.0531  0.2104  0.0531
26502W        W43350   4.830   1.128   2.136  0.0255 -0.2976  0.0613
26503W        W43351   7.379  14.316  12.259  0.1047  0.2379  0.0418
26504W        W43352   3.061  11.864  13.399 -0.2349  0.0374  0.1407
26505W        W43353  10.321  10.884   1.968  0.2202 -0.3770 -0.1837
26506W        W43354  12.906   5.027  12.984  0.1825  0.0145  0.0826
26507W        W43355   7.598   5.232   4.471  0.0521  0.1328 -0.1516
26508W        W43356   8.127  13.144  16.104  0.1543 -0.4077  0.1264
26509W        W43357  12.191   4.759   3.821  0.3228 -0.0610  0.1009
26510W        W43358   2.963  13.645   5.510  0.2405  0.2389 -0.4363
26511W        W43359  14.132   2.637  11.648 -0.0937  0.0388 -0.1877
26512W        W43360   7.738  12.886   2.589  0.2531 -0.1096 -0.0198
26513W        W43361  16.282   3.907   4.265 -0.0655 -0.0117 -0.1886
26514W        W43362  15.406  11.665   2.140 -0.1817  0.0652  0.2602
26515W        W43363   5.865   1.345   4.961  0.1747  0.3062  0.0645
26516W        W43364   1.692   1.547   3.205 -0.1750  0.2509  0.2902
26517W        W43365  11.624   3.159   1.547 -0.0933 -0.1723  0.2100
26518W        W43366   7.467   9.646   3.900  0.0016 -0.2702 -0.0890
26519W        W43367  10.291  16.098  11.977  0.0224 -0.1066 -0.0901
26520W        W43368  16.486   1.427  14.460 -0.0678 -0.3928 -0.1438
26521W        W43369   3.907  17.918  16.196  0.2310  0.0777 -0.1913
26522W        W43370  14.564   7.936   2.603  0.1520  0.0561 -0.1802
26523W        W43371  10.540  14.192   4.822 -0.0014 -0.3453 -0.0752
26524W        W43372   3.685   3.414   1.911 -0.0708  0.1219 -0.1653
26525W        W43373   4.930  15.730  13.173 -0.3826  0.3235  0.0103
26526W        W43374  14.336   0.935   2.806 -0.0707 -0.1757 -0.0003
26527W        W43375   4.342   0.353   0.084  0.0867  0.3178 -0.0477
26528W        W43376   0.438   6.693  10.462  0.0577  0.0894  0.2987
26529W        W43377   5.037  12.631  11.182  0.1787  0.0621  0.1069
26530W        W43378   1.554   9.541   1.328 -0.3100 -0.0070  0.1198
26531W        W43379   6.924   0.072   3.046 -0.1045 -0.6985 -0.3094
26532W        W43380   6.450  15.108  12.533  0.0273  0.0342 -0.0548
26533W        W43381   5.598   5.544   2.244  0.1594  0.0756  0.1172
26534W        W43382   8.334   8.518  14.573  0.0542  0.1357 -0.2956
26535W        W43383  17.786  10.332   4.612  0.3042 -0.1883 -0.3594
26536W        W43384   6.919  10.179   2.520  0.0001  0.3177 -0.0697
26537W        W43385  14.075   6.078   4.263 -0.0913  0.1075 -0.1752
26538W        W43386   6.524  16.319   3.821  0.0408  0.1001 -0.0045
26539W        W43387  11.312  12.200   1.549  0.2558 -0.1756  0.0780
26540W        W43388   1.251   3.815   4.624 -0.0971 -0.2399 -0.0939
26541W        W43389   6.795   2.963  14.670 -0.0288  0.0112  0.1956
26542W        W43390  17.378  14.583  11.722 -0.0214  0.2783  0.2930
26543W        W43391  13.026   3.153  15.131  0.2287 -0.2874  0.0097
26544W        W43392   5.558   1.905  16.306 -0.2950  0.1707  0.1881
26545W        W43393   2.749   0.096  14.044  0.0025  0.2117 -0.2160
26546W        W43394  11.658   9.021  15.315 -0.1492 -0.1420  0.2278
26547W        W43395  11.048   1.923   2.965 -0.0328  0.0295  0.3865
26548W        W43396  10.645  12.894   4.093 -0.0617 -0.1072  0.2510
26549W        W43397  10.697   5.087  12.944 -0.3904  0.0663 -0.2230
26550W        W43398   0.003   5.581   1.041  0.1448 -0.2184  0.0158
26551W        W43399  13.000   6.011  14.426  0.1083 -0.1798 -0.2541
26552W        W43400   5.364   7.714  16.046  0.3452  0.3429  0.2388
26553W        W43401  17.852   1.066   3.330  0.0844 -0.0591  0.2537
26554W        W43402   6.558   5.320   2.589 -0.1541 -0.1555  0.1396
26555W        W43403   2.421   8.937   2.423 -0.2816 -0.1670  0.2885
26556W        W43404   5.376   7.361   4.358  0.0326  0.0977  0.0565
26557W        W43405  15.981   3.073   4.135 -0.3586  0.4283 -0.0848
26558W        W43406   2.733   7.622  15.465  0.2202  0.0977 -0.0494
26559W        W43407   6.874  15.502   0.097  0.0062 -0.1592  0.3316
26560W        W43408  10.219   8.870  13.612 -0.2647 -0.1859 -0.1423
26561W        W43409   2.018  15.252  12.339 -0.2349 -0.0703 -0.2074
26562W        W43410  15.209  13.860  11.877 -0.4681  0.0843 -0.1479
26563W        W43411   7.235  15.954   3.880 -0.2301 -0.4894  0.1386
26564W        W43412   1.466  11.379   2.746  0.1047  0.0030 -0.0309
26565W        W43413   6.189  11.155   4.506 -0.0533 -0.0719 -0.1845
26566W        W43414   8.148   9.562  12.939  0.0673 -0.0268  0.3677
26567W        W43415   4.184   3.776  16.104  0.1112  0.0209  0.2439
26568W        W43416  18.034   5.981  13.794 -0.0123 -0.0006  0.1852
26569W        W43417  12.083   1.024   0.046 -0.1368  0.2838 -0.0853
26570W        W43418  16.097   3.140   1.082 -0.2891 -0.0892  0.1164
26571W        W43419   6.589  11.117  15.049  0.3426  0.2931  0.3040
26572W        W43420  15.223   2.744   4.488  0.2146  0.2298  0.2260
26573W        W43421   2.130  10.022   3.136  0.0697  0.2454  0.0320
26574W        W43422  16.652  14.205   3.961  0.0309 -0.0730  0.0041
26575W        W43423   4.753   5.053   0.928 -0.2434  0.0566 -0.0135
26576W        W43424  12.910  14.013  14.111  0.5943 -0.2049 -0.3062
26577W        W43425   2.312   7.396  15.213 -0.1535  0.1508  0.2822
26578W        W43426   6.791  17.321  13.281 -0.4036  0.1870 -0.0562
26579W        W43427   0.521   0.440  13.449 -0.1603 -0.2836  0.2890
26580W        W43428  11.644  14.486   2.717  0.3586 -0.0377 -0.0845
26581W        W43429  13.509  10.178  12.967 -0.0991 -0.0707 -0.0865
26582W        W43430  13.709  17.875  15.408 -0.0894  0.1791  0.1283
26583W        W43431  17.950   6.348  15.106 -0.0482 -0.0364  0.0563
26584W        W43432  12.290  14.841  12.547  0.1339  0.1401  0.0740
26585W        W43433  10.811   0.527  11.670 -0.5117  0.0157 -0.1427
26586W        W43434   3.014   8.449   0.632  0.1903  0.0537 -0.0612
26587W        W43435  16.913   0.754  13.605  0.1918 -0.1947 -0.1146
26588W        W43436  14.943   7.125  12.930 -0.2174  0.0296 -0.2813
26589W        W43437  12.162   1.839   3.894  0.2144 -0.2608 -0.2815
26590W        W43438  17.903  16.094   0.742  0.0402  0.3024 -0.0900
26591W        W43439   5.871  11.268   2.759 -0.0665 -0.2600  0.1078
26592W        W43440   7.449   2.214   0.662  0.0000 -0.1029  0.1269
26593W        W43441  11.854   2.709  15.417 -0.0178 -0.0733  0.1630
26594W        W43442  14.001   9.161   2.217  0.1118 -0.0055 -0.1904
26595W        W43443   8.926   7.848  15.108  0.1876  0.0213 -0.1646
26596W        W43444  16.028   1.778  11.453 -0.1207  0.3647 -0.0889
26597W        W43445  17.447   0.275  15.854  0.1961  0.2307  0.0822
26598W        W43446   4.803   0.240  13.022  0.3020 -0.2043  0.1478
26599W        W43447  14.159  16.418   2.351 -0.0147 -0.0854 -0.1130
26600W        W43448  17.280  12.808  12.904  0.1207  0.0413  0.4472
26601W        W43449   4.109   3.325  15.006  0.0440  0.2422  0.2337
26602W        W43450   5.338   7.187  16.186 -0.2806 -0.2096  0.0498
26603W        W43451  11.200   4.813  13.083  0.2376 -0.0278  0.4096
26604W        W43452   3.720  12.564   1.177 -0.5858 -0.0850 -0.0389
26605W        W43453   9.582   3.670   4.969  0.1783  0.1561  0.0668
26606W        W43454  15.081  17.549   5.082 -0.0513  0.1511  0.2354
26607W        W43455  15.379  14.220  13.433  0.1774  0.3339  0.0785
26608W        W43456   1.688   6.719   6.140 -0.0457  0.3174  0.1503
26609W        W43457  16.214   3.611  10.560 -0.0545 -0.0591 -0.3114
26610W        W43458   8.968   5.241  13.770 -0.2222 -0.0761  0.1077
26611W        W43459  12.810   9.433  15.272 -0.2253  0.0473 -0.2605
26612W        W43460   9.520   4.815  14.361  0.1218  0.0986 -0.3997
26613W        W43461  16.650   6.773  11.081 -0.0046 -0.0041 -0.0203
26614W        W43462  10.633   9.850  12.050 -0.0080  0.0776 -0.1198
26615W        W43463  13.317   5.224   2.402  0.0074  0.3434 -0.0230
26616W        W43464   7.647   0.806  14.606 -0.2365  0.2187  0.0070
26617W        W43465  13.388  16.302   4.961  0.2546  0.0119 -0.1124
26618W        W43466   6.040   2.150   1.081 -0.0146 -0.0947  0.1223
26619W        W43467   3.616   4.578  13.681 -0.0573 -0.2163  0.1679
26620W        W43468   0.570   7.911   5.272  0.2424 -0.3124  0.2633
26621W        W43469  10.262   2.047   2.359  0.0318  0.2273  0.4046
26622W        W43470   3.154  10.116  16.128  0.0538 -0.1585 -0.0089
26623W        W43471  12.345   2.901   1.341  0.1337 -0.0198 -0.2924
26624W        W43472   5.648  16.352   4.415  0.1772 -0.1561 -0.1977
26625W        W43473   4.739   0.646   2.731 -0.0405 -0.1208 -0.0763
26626W        W43474   9.246  16.972   4.257  0.0405 -0.1165 -0.0585
26627W        W43475  16.619  15.110  12.626 -0.0810 -0.0300 -0.3380
26628W        W43476  11.874   9.812   2.377 -0.0818 -0.0524  0.3924
26629W        W43477   1.041  11.034   1.006 -0.1653 -0.4116  0.2453
26630W        W43478   2.733  13.812   3.972  0.0162 -0.1285  0.0037
26631W        W43479  16.307   9.122   4.333 -0.0193 -0.0132  0.0606
26632W        W43480  17.391  12.545   2.897  0.0897  0.1582  0.1699
26633W        W43481   1.501  10.430   2.683 -0.1514  0.1546 -0.0455
26634W        W43482  15.781   6.213  12.266  0.0893  0.0688  0.0578
26635W        W43483   3.031   6.390  15.670  0.0479 -0.0383 -0.0578
26636W        W43484   0.252  15.971  12.137  0.3340 -0.2677 -0.1141
26637W        W43485   6.956  15.293   3.529  0.2105  0.2095 -0.2190
26638W        W43486  12.658   1.052  15.988 -0.1610  0.1672  0.0110
26639W        W43487   7.464   7.724   2.037  0.2813 -0.0624  0.1904
26640W        W43488   9.463  11.519  13.953 -0.2760  0.1969 -0.1046
26641W        W43489   7.185   4.097   0.973  0.0509 -0.0856 -0.0500
26642W        W43490  10.762  11.513   0.638 -0.5017 -0.0377  0.2446
26643W        W43491   9.504   6.833   1.320 -0.2028  0.1413 -0.1320
26644W        W43492   1.286   9.140  12.502 -0.0882 -0.0652  0.0526
26645W        W43493   9.985   9.133  11.008  0.1355 -0.0316 -0.0282
26646W        W43494   6.934   5.949  14.737 -0.1059  0.0969 -0.1524
26647W        W43495  15.262  15.466   3.280 -0.0738  0.4238  0.1338
26648W        W43496   4.209  11.217   0.829  0.0208 -0.1376 -0.1489
26649W        W43497   2.949   5.707   1.311  0.2355 -0.1626 -0.1625
26650W        W43498  14.226   6.414  14.112 -0.1325  0.1730 -0.1774
26651W        W43499  14.290   0.890  13.151  0.0466 -0.1845  0.2001
26652W        W43500   3.765   0.514   4.653  0.1311 -0.0469 -0.0278
26653W        W43501  17.443   8.969  13.605  0.0789  0.3085  0.0081
26654W        W43502   5.560  12.020  13.003 -0.0706  0.0432 -0.3612
26655W        W43503   5.506   5.862  15.719 -0.0189  0.0700 -0.0924
26656W        W43504   5.399  14.184   1.339 -0.1660 -0.0396 -0.3070
26657W        W43505   4.523  15.995   3.796 -0.1297 -0.0590 -0.0197
26658W        W43506   5.165   9.399  12.711  0.3391 -0.2026  0.0247
26659W        W43507  14.655   7.186   6.197  0.0721 -0.3712  0.2458
26660W        W43508   5.985   4.881   4.134 -0.2253 -0.2868 -0.0843
26661W        W43509   5.371   9.727   0.183 -0.0629 -0.4055  0.2816
26662W        W43510   9.736   1.564  10.649  0.1405  0.1908 -0.3830
26663W        W43511   4.822   3.360   0.242 -0.3203 -0.4022 -0.0731
26664W        W43512  10.270   8.892  11.921 -0.0285  0.0895  0.2899
26665W        W43513  11.292  13.163   1.478  0.0653 -0.1227 -0.1630
26666W        W43514  15.591   2.885  12.307 -0.0634 -0.0693  0.0225
26667W        W43515   8.541  16.038   4.767  0.0756 -0.1771  0.0820
26668W        W43516  14.525   7.225   1.048 -0.3581  0.1198  0.0466
26669W        W43517   9.070   4.395  11.372  0.0293 -0.2477  0.0619
26670W        W43518  10.521  14.848   0.071 -0.2447 -0.1936 -0.1667
26671W        W43519   7.929  18.066  13.195 -0.2538  0.0698 -0.1058
26672W        W43520   7.804   7.512  11.151 -0.0620 -0.0430 -0.0481
26673W        W43521   6.851   4.946   0.607  0.2475 -0.0518  0.0200
26674W        W43522  13.110   1.289  11.633 -0.1147  0.2914 -0.3686
26675W        W43523   4.465   2.104  15.489  0.0487  0.2465  0.1166
26676W        W43524  15.479  11.802   4.283 -0.1397 -0.1605  0.1479
26677W        W43525   7.992  17.806   0.225 -0.0016 -0.0787 -0.2753
26678W        W43526  10.546   0.697  13.272  0.1849  0.0024  0.1384
26679W        W43527  10.031  10.884   3.873 -0.3257  0.1293  0.1909
26680W        W43528  15.852  16.621  12.345 -0.2473  0.1597  0.0122
26681W        W43529  16.577  15.138   2.430 -0.1435 -0.1340  0.0811
26682W        W43530   1.139  14.510  13.692  0.3977  0.1145  0.1096
26683W        W43531   0.428   4.388   2.873 -0.1394  0.0279 -0.1158
26684W        W43532  17.930   9.182  15.499  0.1771 -0.1345 -0.3960
26685W        W43533  15.189   5.298   4.749 -0.1603  0.2345 -0.2789
26686W        W43534   4.601   7.393  15.517  0.1348 -0.0679  0.0525
26687W        W43535   9.569  10.035   4.588 -0.0408  0.2353  0.2629
26688W        W43536   0.763   2.221  14.670  0.1649 -0.2551 -0.2667
26689W        W43537  16.787  13.195  12.573  0.2684  0.1258 -0.2211
26690W        W43538   2.790  12.162   1.453  0.0277 -0.0690 -0.1438
26691W        W43539   2.365   4.058  13.542  0.0564  0.2056 -0.2276
26692W        W43540  16.613   1.740  15.908  0.0232  0.2000 -0.2819
26693W        W43541   1.860  14.222   2.373 -0.0519 -0.0950  0.0326
26694W        W43542   9.789  16.759   5.034  0.3263 -0.3186  0.0045
26695W        W43543   3.941   5.914  11.366 -0.0437 -0.4051  0.0034
26696W        W43544  11.999   8.948   0.237  0.0735  0.0472  0.0011
26697W        W43545   3.570   7.859   2.729 -0.1431  0.1334  0.0582
26698W        W43546  13.798   5.443   4.994  0.1287  0.2047  0.0511
26699W        W43547  12.548  15.652   3.055 -0.3219 -0.3830  0.1146
26700W        W43548   8.569   9.650  15.979 -0.1186  0.1425  0.1537
26701W        W43549  10.716   2.060  16.236  0.1128 -0.0780 -0.0134
26702W        W43550   8.962  17.745   1.481  0.0386  0.2421  0.0723
26703W        W43551   8.066   6.238   2.559 -0.1058  0.2669  0.0834
26704W        W43552   0.067  18.090  14.207  0.1617 -0.2046  0.0160
26705W        W43553   2.096  12.435   4.763  0.0251 -0.0085  0.1433
26706W        W43554   2.193  16.237   5.101 -0.0017  0.2303  0.2266
26707W        W43555  13.991   9.178  15.517  0.2909 -0.1087 -0.1257
26708W        W43556   9.230  13.210  13.969 -0.1453 -0.2183 -0.0100
26709W        W43557   9.927   8.237  12.590 -0.1773  0.0444  0.1295
26710W        W43558  12.161   0.799  14.528 -0.0109  0.0554 -0.2639
26711W        W43559  16.739   4.157  12.132  0.0924  0.3132 -0.1994
26712W        W43560  16.893  17.397  16.115  0.0047 -0.1775  0.3411
26713W        W43561  17.628   8.876   0.802 -0.3281 -0.0249 -0.3217
26714W        W43562  10.840  10.052  12.883  0.2874  0.2637 -0.2512
26715W        W43563  12.011  13.709  15.678 -0.2471 -0.1034  0.0483
26716W        W43564   3.176   7.861   1.007  0.0086  0.2887 -0.0357
26717W        W43565  17.735   0.211   2.020 -0.2540 -0.2451 -0.1771
26718W        W43566   3.452   9.840  15.230  0.0521  0.2485  0.1962
26719W        W43567   1.772   7.276  13.557 -0.0164  0.3647  0.1047
26720W        W43568  13.806   2.856  13.339 -0.3714  0.2668  0.0205
26721W        W43569  10.662   1.514  13.109  0.1001  0.0115 -0.0715
26722W        W43570   3.953  16.875  11.359 -0.2215  0.2806  0.1964
26723W        W43571   4.529  12.647  13.942  0.0100  0.1639 -0.0406
26724W        W43572  13.233  10.033   4.070  0.2311  0.1218 -0.1210
26725W        W43573   4.502   6.871   3.977  0.1506 -0.4721  0.1571
26726W        W43574   9.781   2.608   1.859 -0.0428  0.3115 -0.1460
26727W        W43575   1.582  11.800  12.251 -0.3265 -0.1673  0.0465
26728W        W43576  17.588  11.182   3.296  0.0159  0.1662 -0.1801
26729W        W43577  11.691   8.804   3.099  0.0868 -0.2304  0.0664
26730W        W43578   5.510   7.906  11.881  0.0475  0.0329 -0.1757
26731W        W43579  17.532   5.861   5.247 -0.3599  0.4204  0.2028
26732W        W43580  16.295  11.951  13.194 -0.3637  0.0704 -0.0590
26733W        W43581   3.312   6.087   2.178  0.0186 -0.2505 -0.1312
26734W        W43582   1.744  14.686   1.750  0.0563  0.3354 -0.1648
26735W        W43583   9.280   6.242   4.955  0.2225  0.2732  0.0415
26736W        W43584  13.970   8.195  13.988  0.0152  0.2084  0.3463
26737W        W43585  11.960  16.649  14.097  0.1445 -0.0737 -0.3018
26738W        W43586   0.277   7.116   6.132  0.0484 -0.0789 -0.0258
26739W        W43587   0.707   6.494  13.841 -0.0574 -0.2743  0.0741
26740W        W43588  10.926  13.465   2.799  0.0996  0.1661  0.1559
26741W        W43589  17.446   0.466  12.453 -0.3748 -0.3109 -0.1025
26742W        W43590   7.584  17.087  14.591  0.2361  0.3433 -0.0684
26743W        W43591   4.781  15.293   3.110 -0.1961  0.1017  0.1886
26744W        W43592   3.624   2.407   2.440  0.1720 -0.0041 -0.1017
26745W        W43593  15.919  14.069  15.391  0.0308 -0.0587 -0.0240
26746W        W43594   9.031  10.101   0.845 -0.2671  0.0342 -0.0849
26747W        W43595  12.969  10.684  14.579 -0.1855  0.1383  0.0523
26748W        W43596   6.387   7.419  15.807  0.1038 -0.1916  0.0219
26749W        W43597   1.453  15.361   3.857 -0.0266  0.1864 -0.0776
26750W        W43598  11.348   7.029  15.456  0.0064 -0.5165 -0.0721
26751W        W43599  12.659   5.641   1.644  0.0156 -0.2012  0.0194
26752W        W43600   6.347   0.945  14.416  0.0269  0.1558  0.1324
26753W        W43601  14.312   0.093  11.288  0.1081  0.0711  0.1123
26754W        W43602   5.862   1.509  13.276  0.1456  0.1908 -0.3105
26755W        W43603   4.397   7.920  13.015  0.1415  0.3540  0.0555
26756W        W43604  12.823  17.004   1.644 -0.0114  0.0901 -0.1534
26757W        W43605   0.507  14.596   1.101  0.0690  0.0856  0.2593
26758W        W43606   4.318  15.830  14.862 -0.0224 -0.1420 -0.0109
26759W        W43607  11.518   5.926  13.701  0.4334 -0.0531 -0.1336
26760W        W43608   2.834   2.836  16.050  0.0022 -0.1990 -0.0081
26761W        W43609  17.615   6.274  13.955 -0.1740 -0.0086 -0.2650
26762W        W43610   6.702   5.944  15.981 -0.0828 -0.0193 -0.0415
26763W        W43611   7.522  10.683  14.300 -0.2817 -0.0271  0.0239
26764W        W43612   6.169   9.690  15.223 -0.3968 -0.5086  0.4288
26765W        W43613  14.031   5.978  12.751  0.2640  0.0809 -0.2826
26766W        W43614  10.169  14.671  14.143 -0.1214 -0.0412  0.1444
26767W        W43615  13.535   8.677  13.787 -0.0340  0.1213  0.0681
26768W        W43616  10.841  14.643   3.936 -0.3150  0.2851  0.1938
26769W        W43617   4.165   4.281   1.332 -0.1011 -0.0413 -0.0106
26770W        W43618  15.191   4.946   5.716 -0.0606  0.3309  0.2307
26771W        W43619  14.360  10.368   2.068  0.0186 -0.1778  0.3326
26772W        W43620   0.556  12.852  16.320 -0.3179  0.0240  0.0481
26773W        W43621   6.304  13.075   3.008  0.3735 -0.4775 -0.1883
26774W        W43622   5.094  15.623  15.443  0.0757 -0.2818  0.1725
26775W        W43623   8.826  12.284   1.709  0.3488 -0.1176  0.1656
26776W        W43624  17.486  14.991   4.345  0.1688  0.1354  0.3110
26777W        W43625   3.188   4.197  13.662  0.0479 -0.3108  0.1684
26778W        W43626   5.775   3.668   5.368 -0.1692  0.1826 -0.2756
26779W        W43627  13.722   1.081  12.301  0.0856 -0.1383 -0.1272
26780W        W43628  13.102  14.142   4.515  0.0268 -0.0431  0.2423
26781W        W43629   4.664   8.707   3.851  0.1338  0.1075  0.3126
26782W        W43630   3.700   0.878  11.969 -0.2274  0.0131 -0.0288
26783W        W43631   2.763   7.758  11.679  0.1336 -0.1755 -0.0161
26784W        W43632   2.391   3.582  13.271  0.2339  0.0092 -0.0521
26785W        W43633   9.692   8.438   1.487  0.0835 -0.3439 -0.2239
26786W        W43634   9.628  14.790   0.432 -0.2032  0.2209  0.0288
26787W        W43635  10.302   6.062   3.250 -0.3279 -0.2412  0.0621
26788W        W43636   8.632   6.974  12.721 -0.2321  0.1619 -0.0744
26789W        W43637  14.839   2.614  12.150 -0.1930  0.1427 -0.0015
26790W        W43638   8.284  12.759  14.127  0.1867 -0.1919  0.1793
26791W        W43639   8.639  13.408   4.709  0.2423 -0.0740  0.0548
26792W        W43640   5.130   8.245  11.729  0.3307  0.0825  0.1848
26793W        W43641  11.026   2.992   0.979 -0.0067  0.0659 -0.2249
26794W        W43642  12.341   4.833   2.484  0.0067  0.3249  0.2312
26795W        W43643  11.485   8.845   0.070  0.1529  0.0980  0.0599
26796W        W43644  18.091  15.595  10.400 -0.1220 -0.3514 -0.0648
26797W        W43645  14.975   2.133   4.426 -0.1752  0.0927  0.1103
26798W        W43646   8.154  17.731   2.248 -0.0019 -0.0670 -0.2012
26799W        W43647  11.782  13.022   5.062  0.0149  0.0708  0.0421
26800W        W43648  15.945   8.668  16.270  0.0079  0.1756 -0.0900
26801W        W43649   0.023   4.242  12.271 -0.1916  0.1051  0.2084
26802W        W43650  15.246   7.477  11.833  0.3310 -0.1320 -0.0774
26803W        W43651   3.087  14.635  12.275 -0.0394  0.3469 -0.2784
26804W        W43652   7.096   3.212  13.361  0.1553  0.0422  0.0311
26805W        W43653   7.243  15.393  12.861 -0.0297 -0.1308  0.0184
26806W        W43654   9.737   9.867  15.352  0.1154  0.1098  0.1251
26807W        W43655   1.472  17.228  13.888 -0.2526 -0.1664  0.1412
26808W        W43656   2.643   8.105   1.008 -0.3488  0.0179  0.1832
26809W        W43657   6.833   6.444  14.758 -0.0033  0.1032 -0.1342
26810W        W43658   1.165   0.232  16.189 -0.2646  0.2861 -0.3923
26811W        W43659   5.687   3.441   3.326  0.1960 -0.3097 -0.0157
26812W        W43660   9.299  13.698   4.722 -0.1810 -0.0079 -0.2206
26813W        W43661   2.134   4.601   1.874 -0.2457  0.0862  0.0273
26814W        W43662  13.184  11.475   3.274 -0.0229 -0.0895 -0.0940
26815W        W43663   7.454  10.313   3.577 -0.3774 -0.3162  0.2370
26816W        W43664  15.667  13.145   2.197  0.2106  0.0535  0.1197
26817W        W43665   6.339   2.580   4.646  0.2706 -0.2472 -0.2346
26818W        W43666   4.015  13.953   5.944  0.1897  0.0532  0.3872
26819W        W43667   5.201   3.636  11.459  0.0879  0.0982  0.1138
26820W        W43668  17.721   8.750   0.280  0.1451  0.1425  0.0710
26821W        W43669  16.271   8.105  14.576  0.0977  0.0109  0.3486
26822W        W43670   4.094   1.001   1.724  0.2473  0.0151  0.1312
26823W        W43671   0.480  17.668   1.449  0.0819 -0.0020  0.2724
26824W        W43672   1.282  15.671   4.191  0.2301 -0.3743  0.0585
26825W        W43673  16.351   1.929   5.840  0.5148 -0.3491 -0.3049
26826W        W43674  16.568   7.667   3.865 -0.3086 -0.1009  0.1305
26827W        W43675  17.808   1.632   0.870  0.2853  0.0581  0.2337
26828W        W43676  15.867   6.341  14.125  0.0654  0.1076 -0.0277
26829W        W43677   7.858  16.681   1.041  0.1431  0.1371 -0.4607
26830W        W43678   9.177   4.466  12.177 -0.6460 -0.3694 -0.1264
26831W        W43679   6.492  11.416  11.875  0.2846  0.1773 -0.0260
26832W        W43680  14.808   0.472  15.540 -0.1857 -0.1781 -0.3932
26833W        W43681  15.882   9.562  14.169  0.1808  0.0169 -0.1873
26834W        W43682  15.924  11.848   3.858  0.1016  0.3573  0.3460
26835W        W43683  15.571   2.907  10.912 -0.0547 -0.3022  0.1683
26836W        W43684   8.599   2.918   2.604 -0.0224  0.0755 -0.0937
26837W        W43685   7.950  11.802   3.362 -0.1054  0.1568  0.1588
26838W        W43686  15.492   4.543  13.691  0.1335  0.0825 -0.0754
26839W        W43687   7.362   6.671  14.853 -0.2021 -0.1658 -0.1078
26840W        W43688   1.351  13.360  14.390 -0.0493 -0.1634  0.0285
26841W        W43689  17.427   9.907  12.498  0.0559 -0.1063 -0.1248
26842W        W43690   7.270   6.020   5.590 -0.2686  0.0544 -0.1303
26843W        W43691  14.074  16.761   3.993  0.3575  0.1001 -0.2204
26844W        W43692   2.916  15.392   2.237  0.0042 -0.5105  0.0057
26845W        W43693  11.021  16.427  14.696 -0.1613  0.3829  0.2768
26846W        W43694   0.393   0.276  16.071  0.3295  0.1899  0.0130
26847W        W43695   8.429  12.814  11.612  0.2963 -0.2753  0.0385
26848W        W43696   0.345  10.649   5.315 -0.0980  0.1171 -0.1612
26849W        W43697   5.778  10.272  13.188  0.0179  0.1267  0.2453
26850W        W43698  14.774   9.966   2.961 -0.2128  0.2892  0.2152
26851W        W43699  16.021   2.979  11.110  0.1450  0.1787  0.2208
26852W        W43700   6.311  15.406   1.343  0.2293 -0.0200 -0.0028
26853W        W43701  15.275  14.542   0.607  0.2257 -0.2907  0.1915
26854W        W43702  12.420   2.234  14.730 -0.1325 -0.3600  0.2007
26855W        W43703   4.220  16.128   3.176 -0.2618 -0.1414  0.0264
26856W        W43704   2.608   3.150  13.444 -0.3007 -0.0178 -0.0797
26857W        W43705  16.378   1.233   1.829  0.2456 -0.0593 -0.0473
26858W        W43706   2.647  16.413  13.129 -0.1766 -0.0289  0.0881
26859W        W43707  17.048  16.906   4.446  0.0892  0.2423  0.0072
26860W        W43708   8.263   0.158  14.668  0.1111  0.0884  0.5862
26861W        W43709   6.105  16.175   6.255  0.3110  0.0592 -0.1041
26862W        W43710  12.422   8.897   5.455 -0.4210  0.0318  0.1829
26863W        W43711  17.096   5.126   4.794  0.0530 -0.0989  0.0494
26864W        W43712  11.332  11.758  15.488 -0.0283 -0.1393 -0.0501
26865W        W43713   8.865   6.675   1.898 -0.0706  0.1654  0.1742
26866W        W43714   6.599  10.617   0.040  0.2901 -0.0297  0.1435
26867W        W43715   2.151   1.072   4.581 -0.0960  0.1530  0.5258
26868W        W43716   1.100   7.907   1.053 -0.1292  0.0597 -0.1427
26869W        W43717   9.616  12.507   1.611 -0.0573 -0.0659 -0.1141
26870W        W43718  15.941   3.159  12.038 -0.0621 -0.1083 -0.1180
26871W        W43719   3.337   9.002  15.805 -0.0502  0.2191  0.1719
26872W        W43720  17.668   6.702  11.555 -0.1146  0.0914  0.0865
26873W        W43721  10.042  17.624  14.158 -0.3388  0.0036 -0.1343
26874W        W43722   8.847  14.438  13.504  0.1060 -0.0865 -0.0248
26875W        W43723   1.585   7.850   1.758  0.2835 -0.0518  0.0882
26876W        W43724  12.039  11.080   1.635  0.0637 -0.0367 -0.0858
26877W        W43725   2.058  14.981  16.317  0.1868  0.3280 -0.4118
26878W        W43726   1.049   6.484   1.188 -0.1768  0.0123  0.1545
26879W        W43727  11.593  14.185  14.304  0.0930 -0.1386 -0.0213
26880W        W43728   8.061   2.366  13.680 -0.2475 -0.3059 -0.1577
26881W        W43729  13.565  15.959   3.504  0.0283 -0.0154  0.1223
26882W        W43730   5.064   8.395   2.762  0.3137 -0.1082  0.0078
26883W        W43731  14.428   3.038   2.664 -0.1937  0.3104 -0.1654
26884W        W43732  13.788   6.230   1.923  0.1574  0.1990 -0.1406
26885W        W43733  12.900   6.067   4.304 -0.2162 -0.1086  0.3539
26886W        W43734  12.068  15.436   3.529  0.3579 -0.1781 -0.1272
26887W        W43735   1.783  16.606   4.993  0.2254 -0.1690  0.0735
26888W        W43736   0.150  12.955  12.080 -0.2246  0.0481 -0.1691
26889W        W43737   5.913   2.149  13.104  0.0849  0.1372 -0.0009
26890W        W43738  17.799   2.105   1.684 -0.0213 -0.2508 -0.0784
26891W        W43739   5.629   5.331   2.764 -0.1006  0.0401  0.1286
26892W        W43740   0.448   0.229  13.893 -0.2376 -0.1359  0.0954
26893W        W43741   7.590  12.780   0.245 -0.1367  0.0846 -0.0804
26894W        W43742  14.972  11.222  16.044 -0.0956  0.0791  0.0939
26895W        W43743  16.232   5.784  15.637  0.3357  0.1324 -0.2440
26896W        W43744  15.554  16.009   0.568  0.3886  0.0680  0.2649
26897W        W43745   1.732   6.324   2.889  0.3659 -0.4322 -0.2432
26898W        W43746   7.152   4.747  11.772  0.1949 -0.0947 -0.0902
26899W        W43747   0.292  14.551  10.600 -0.0611 -0.3910 -0.0448
26900W        W43748  15.885   7.812   4.081 -0.1775 -0.0526  0.0844
26901W        W43749  14.135  11.713  15.243  0.0704 -0.0559 -0.1344
26902W        W43750  14.506  18.015   4.667 -0.1111  0.0903  0.1915
26903W        W43751   0.202  13.322  14.748 -0.3297 -0.1275  0.1936
26904W        W43752   9.629   0.905   4.144  0.2238  0.0031  0.0669
26905W        W43753  13.548  17.721   4.127  0.0940 -0.1005 -0.1056
26906W        W43754   7.759   6.627   2.445  0.0809  0.0838  0.0308
26907W        W43755  16.580  11.677  14.954  0.0855  0.3114 -0.2069
26908W        W43756   7.682   4.981   9.640  0.1789  0.1060 -0.1054
26909W        W43757   7.434   6.033   5.127  0.0371 -0.1182  0.1782
26910W        W43758   8.787   6.105  11.600  0.1344  0.2123  0.1060
26911W        W43759   9.487   9.212   4.716 -0.1291  0.1515  0.2118
26912W        W43760  15.054  14.256  15.457 -0.2891 -0.2478  0.0315
26913W        W43761   1.285   5.799  14.802  0.0595 -0.0665  0.0275
26914W        W43762  16.215   8.226   5.324  0.0561 -0.1907 -0.0546
26915W        W43763   4.406  12.908  13.375  0.0854 -0.0050 -0.0547
26916W        W43764  16.873  14.527  13.816 -0.0159 -0.0189 -0.1226
26917W        W43765   1.952   3.972  16.130  0.0529 -0.4176  0.1818
26918W        W43766   8.458   3.040  15.158  0.2881  0.1208 -0.0997
26919W        W43767  11.409  15.431   0.195  0.1818  0.2260 -0.0078
26920W        W43768  14.643   7.111  13.516  0.0431  0.2270  0.2390
26921W        W43769   0.615  12.884  15.233 -0.0120  0.0839  0.2052
26922W        W43770  16.899  15.971   4.008 -0.1564  0.0551 -0.1639
26923W        W43771  15.521   2.177   5.732 -0.3610  0.0658  0.1231
26924W        W43772  12.438  13.044   0.472  0.2630  0.0421  0.5036
26925W        W43773   5.778   3.268   3.864 -0.1000  0.2687  0.3204
26926W        W43774  15.773   9.059   4.264  0.0280  0.0951  0.0610
26927W        W43775   0.923  12.666   4.856 -0.5342  0.0223 -0.4083
26928W        W43776   6.730   9.270   2.840 -0.3375  0.0442  0.0611
26929W        W43777  10.657  13.567   2.011  0.1652  0.1650  0.0910
26930W        W43778  12.653  17.444  12.704 -0.0857 -0.1400 -0.2410
26931W        W43779   3.364  17.331  13.690 -0.2365  0.2461  0.1822
26932W        W43780  15.496   1.381  11.499 -0.3203 -0.1021  0.1749
26933W        W43781   4.228  13.467  15.786  0.1214 -0.0522 -0.0565
26934W        W43782   0.615  10.563   3.869  0.2251  0.0383 -0.1282
26935W        W43783  14.958   9.271   4.505 -0.2509  0.3724 -0.0529
26936W        W43784  14.611   4.657   5.115  0.1208  0.0476 -0.0760
26937W        W43785  13.825   8.839   1.785 -0.3503 -0.3309  0.0650
26938W        W43786   6.854  10.514  15.327  0.4084  0.3073  0.0521
26939W        W43787   7.717  11.425  14.847 -0.2322  0.1104  0.1343
26940W        W43788   6.102   4.615  14.593  0.3120 -0.0628 -0.0060
26941W        W43789   4.634   7.319   1.209  0.1540  0.2380  0.0849
26942W        W43790  14.995  12.795  13.888  0.5120  0.1694  0.1809
26943W        W43791  11.599   4.752   4.548  0.1506 -0.0244  0.0375
26944W        W43792  11.410   2.662  15.267 -0.0346 -0.0989 -0.0508
26945W        W43793  11.448  12.697  14.073  0.4109 -0.1100 -0.1467
26946W        W43794  15.945   0.187  12.604 -0.1741 -0.3908  0.3278
26947W        W43795   6.451   2.721  12.107 -0.0421  0.1863 -0.0457
26948W        W43796   6.404  14.538   0.191 -0.0023 -0.0214  0.0700
26949W        W43797  13.276  17.182   0.102 -0.3214 -0.4259 -0.1212
26950W        W43798   8.999   5.226   4.459  0.0100 -0.1611 -0.0602
26951W        W43799  12.962  12.443  12.272 -0.0324 -0.0772 -0.0185
26952W        W43800  15.470  10.242   5.276 -0.0150  0.2696 -0.1734
26953W        W43801   2.937   7.344  12.106  0.0352  0.3258  0.4565
26954W        W43802   8.751   9.652   0.146  0.0204  0.0598  0.3053
26955W        W43803  13.646   7.963   2.851  0.0758  0.1910  0.0154
26956W        W43804   0.746   1.013   2.800  0.1214 -0.0378 -0.0042
26957W        W43805   9.318   5.391   3.077 -0.3326  0.3969  0.0493
26958W        W43806   3.639  12.144   3.192  0.0645  0.1341 -0.0099
26959W        W43807   9.200   2.835   4.623 -0.2782 -0.1070 -0.3992
26960W        W43808   6.109   0.972   4.659  0.0366  0.0365 -0.2835
26961W        W43809  10.710  17.461   2.271 -0.0274 -0.0978 -0.1741
26962W        W43810  10.247  16.756  13.224 -0.0043  0.1168 -0.0803
26963W        W43811   9.035  16.405   0.016  0.1446  0.0852 -0.3122
26964W        W43812  14.960  17.143  14.438 -0.0894  0.0385  0.2129
26965W        W43813   3.608  13.045  13.788 -0.0863  0.2408  0.0675
26966W        W43814   9.969  14.123   1.070  0.4317  0.1756  0.1130
26967W        W43815   2.411  16.565  12.511 -0.1432  0.0686  0.1369
26968W        W43816   3.437  16.518  12.127  0.0017  0.2714 -0.0782
26969W        W43817   4.752  14.164   0.643  0.0027  0.1421  0.1133
26970W        W43818   1.357  14.337   2.471  0.2516 -0.1220  0.1707
26971W        W43819  11.591   5.795  13.092 -0.3093  0.1538  0.0906
26972W        W43820  12.665  16.267  13.837  0.1191  0.0957 -0.0587
26973W        W43821  12.556  15.331  15.322 -0.1612  0.1899  0.2145
26974W        W43822  12.387   6.368  12.729 -0.0909 -0.0502  0.2344
26975W        W43823  15.218  13.356  15.271 -0.0599 -0.0962 -0.0514
26976W        W43824  15.251   2.165  14.615  0.0443 -0.1500 -0.1635
26977W        W43825  18.023  17.521   3.547 -0.2008  0.0849  0.0724
26978W        W43826  15.666  12.528  11.873 -0.3268 -0.1047  0.2505
26979W        W43827   9.003   6.971   0.092  0.1314  0.1535 -0.1510
26980W        W43828   4.623  14.378   4.230 -0.2108  0.2355 -0.0032
26981W        W43829   5.120   0.496  11.323  0.1778 -0.0187  0.0087
26982W        W43830  13.814   5.847   0.903 -0.0882  0.1292 -0.1353
26983W        W43831   5.450   6.714   2.369 -0.0424  0.1551 -0.2949
26984W        W43832  12.580   5.360   0.807  0.1832 -0.3140 -0.0585
26985W        W43833   4.730  16.828   2.774 -0.1000 -0.0308  0.0300
26986W        W43834  16.568   2.876   1.182  0.1499 -0.1599 -0.0091
26987W        W43835   9.680   2.650  14.900 -0.2697 -0.1754  0.0344
26988W        W43836  10.876   5.439   1.575  0.2030 -0.1047  0.0150
26989W        W43837   9.424  17.198  11.767 -0.3807 -0.0288 -0.1186
26990W        W43838   8.889  16.614  13.797 -0.0725  0.1891  0.1585
26991W        W43839  11.219   6.314  12.558  0.0625 -0.1850  0.1828
26992W        W43840   6.190  10.382   0.076 -0.0407  0.3150  0.0205
26993W        W43841  13.732  16.662   2.204 -0.0310 -0.1371 -0.0525
26994W        W43842  17.549  11.515   1.139 -0.0243 -0.0140 -0.1252
26995W        W43843  15.734  12.650   2.500  0.3235  0.3211  0.1511
26996W        W43844   0.453   0.689  14.790  0.0506  0.0723  0.3158
26997W        W43845   1.355   2.625  13.682 -0.0817 -0.0077 -0.1621
26998W        W43846   5.268  12.939  12.839 -0.0120 -0.0603 -0.1588
26999W        W43847   2.459  13.856  13.210 -0.1923 -0.0088  0.0320
27000W        W43848   0.506   1.431  16.290  0.0816 -0.3148 -0.1311
27001W        W43849   1.421  10.098  12.465  0.1827  0.3090  0.0190
27002W        W43850   6.867  14.048   2.830 -0.0225  0.1558 -0.1319
27003W        W43851   6.920   8.714  11.237  0.1429 -0.0782 -0.0671
27004W        W43852   1.817   8.669   0.800 -0.1504  0.0095 -0.2210
27005W        W43853  13.091  15.166  13.355 -0.1804 -0.3006  0.0708
27006W        W43854   6.742   5.949   1.663 -0.3598  0.0133  0.0056
27007W        W43855  16.290  11.655   1.257 -0.0766  0.0064 -0.0396
27008W        W43856   2.939   7.062   1.347  0.1100  0.0738  0.2550
27009W        W43857   8.975   1.723   0.232 -0.0178  0.1066  0.2837
27010W        W43858   1.252   0.017   5.291  0.0319 -0.0528 -0.0333
27011W        W43859   4.193  14.765  12.337  0.1263 -0.1458 -0.1163
27012W        W43860   0.795   4.584  15.791  0.2010 -0.1221  0.0909
27013W        W43861   0.699  14.805   1.991 -0.0955  0.1094 -0.0615
27014W        W43862   9.945   0.252  14.128  0.0220 -0.1700  0.1145
27015W        W43863  17.879   7.482   4.401  0.1221 -0.1009 -0.0385
27016W        W43864   3.710   9.756   1.526 -0.1197 -0.1802 -0.1561
27017W        W43865   1.259  12.305   0.779  0.2180 -0.1137  0.1126
27018W        W43866   5.065   0.912   3.939 -0.1616  0.1221 -0.0697
27019W        W43867   8.135   9.350  14.723  0.0928 -0.0274 -0.0498
27020W        W43868  16.497  10.861  16.026 -0.0203 -0.2316  0.0988
27021W        W43869  10.076  12.938   1.660  0.0754  0.1657  0.1810
27022W        W43870   9.948  11.043   0.431 -0.2430  0.1257  0.1390
27023W        W43871  10.008   7.988  14.220  0.3212  0.1455 -0.3221
27024W        W43872   8.910   5.389   2.799  0.1762  0.0573  0.2809
27025W        W43873  14.921   8.899  12.923 -0.1670 -0.0529 -0.0951
27026W        W43874   2.769   9.895   3.138  0.0199  0.0224  0.2868
27027W        W43875   0.046  17.579   4.636  0.0057  0.2684  0.2319
27028W        W43876   5.353   6.883  11.462 -0.2371  0.1727 -0.1253
27029W        W43877   0.084   1.639   0.225 -0.0222  0.3806 -0.1487
27030W        W43878   8.915   7.883   2.586 -0.3810  0.0468  0.2523
27031W        W43879  17.561   6.793  12.486 -0.0820 -0.1134 -0.1213
27032W        W43880   4.779   5.973  12.338  0.2451 -0.0568  0.2476
27033W        W43881  16.603   4.247  12.730 -0.2003 -0.0551  0.0240
27034W        W43882  11.483   3.461   4.623  0.4677  0.3577 -0.2711
27035W        W43883   2.624   0.399   4.374 -0.1555  0.1750 -0.2737
27036W        W43884   9.871  13.733  11.176 -0.2133 -0.0006 -0.1419
27037W        W43885   7.628   7.076  12.307  0.1824 -0.1222 -0.0573
27038W        W43886  13.110   4.457  12.774  0.0492 -0.1998  0.0223
27039W        W43887   3.401  16.288   3.386 -0.1882  0.1352  0.1297
27040W        W43888  17.425   1.382  12.529  0.0343  0.0874 -0.4191
27041W        W43889  16.242  14.754  13.747  0.2024 -0.1651  0.1514
27042W        W43890   3.064  16.808  14.259  0.2624 -0.0835 -0.0185
27043W        W43891  10.108   3.677  14.083 -0.2804  0.1380 -0.0180
27044W        W43892   5.927   0.093   1.973 -0.0960  0.1380 -0.0117
27045W        W43893   9.484  11.571   2.860 -0.1659 -0.2053 -0.1381
27046W        W43894  15.839   1.738  15.472  0.2410  0.2399  0.3004
27047W        W43895   4.735  13.502  14.470 -0.1456  0.0669  0.3620
27048W        W43896   6.762   9.241  13.084  0.0427 -0.0822  0.2380
27049W        W43897  11.547  13.497   0.597 -0.0634 -0.2169 -0.2043
27050W        W43898   4.051   8.887  12.678  0.2087 -0.1652  0.2370
27051W        W43899   2.430   2.847   0.135  0.0944 -0.0466  0.2817
27052W        W43900   8.627  13.959  13.245 -0.0061 -0.0524  0.2173
27053W        W43901  10.118  16.250   0.114 -0.2319 -0.0727  0.0591
27054W        W43902   3.659   3.615  11.615  0.0171 -0.2873 -0.1845
27055W        W43903   4.419  10.492  11.818 -0.1845 -0.0635 -0.0110
27056W        W43904   0.871  13.869   1.978  0.0866 -0.0652 -0.0761
27057W        W43905  13.115   9.710  12.155  0.2346  0.3649  0.0600
27058W        W43906  17.314  17.305   4.239  0.0270  0.0127  0.1315
27059W        W43907  12.734  10.268  15.278  0.2336 -0.1141 -0.1112
27060W        W43908   6.011   2.482  11.810 -0.2703 -0.0867  0.0474
27061W        W43909  13.782  17.109   0.341 -0.0537  0.0300 -0.1348
27062W        W43910  11.481   5.738   6.155  0.3541  0.1225  0.1450
27063W        W43911  16.746  12.726  11.814 -0.1235 -0.1822 -0.2461
27064W        W43912   6.229  14.358   3.960  0.0699 -0.3574 -0.0449
27065W        W43913   8.979   9.822   4.568  0.0811  0.1100 -0.0389
27066W        W43914  15.459   3.141  11.373 -0.3432 -0.2658  0.2987
27067W        W43915  11.118   2.407   3.258 -0.1552  0.0800 -0.0276
27068W        W43916  13.452   9.237  12.700 -0.1240 -0.2654  0.0421
27069W        W43917  10.549  10.484  14.826  0.0284 -0.3516  0.0604
27070W        W43918  11.366   0.955  10.915 -0.1119 -0.2584 -0.1612
27071W        W43919  13.021  16.608  13.129 -0.3127  0.0986  0.0260
27072W        W43920  13.859   8.448  13.421  0.5926  0.3985 -0.2728
27073W        W43921  11.256  14.092  11.446 -0.2132  0.2592 -0.1434
27074W        W43922  12.555  15.653   3.550  0.0142  0.0218  0.1631
27075W        W43923  14.568  12.950  14.588 -0.1946 -0.1569 -0.2182
27076W        W43924   9.897   7.550   3.494 -0.3941  0.0278 -0.1244
27077W        W43925  16.275  17.891   1.592  0.0702  0.2349  0.1976
27078W        W43926   8.298   9.528  11.286 -0.3322  0.0440  0.0785
27079W        W43927   2.255  13.392   2.229 -0.3205 -0.0746 -0.4905
27080W        W43928   2.583   9.484  11.495 -0.0240 -0.0036 -0.3497
27081W        W43929  12.776  11.003   0.872 -0.0339 -0.2241 -0.2257
27082W        W43930  14.831   3.566   5.306 -0.3782  0.0331  0.0024
27083W        W43931  12.518   0.605  15.149 -0.0720  0.1218  0.0474
27084W        W43932   3.334   7.835  14.665  0.1155 -0.2689  0.1934
27085W        W43933  11.562   0.557  11.743  0.1691  0.3021 -0.1438
27086W        W43934   9.816   9.623   2.550 -0.0313 -0.3804  0.0005
27087W        W43935   7.051   5.162  15.123  0.5804 -0.4251  0.1914
27088W        W43936   8.660  17.745  15.665  0.1920  0.3760 -0.0079
27089W        W43937  12.332   8.053   3.144  0.0491  0.0295  0.3381
27090W        W43938   8.649  15.582  12.575 -0.3230  0.1441 -0.0381
27091W        W43939  12.130  17.069  14.332 -0.0627 -0.0443 -0.0742
27092W        W43940   7.838   0.176  12.141 -0.0171  0.4063 -0.4313
27093W        W43941   6.325   6.328  15.328 -0.0248  0.0094  0.0693
27094W        W43942  16.353   0.551   2.978 -0.2169 -0.2039 -0.1982
27095W        W43943  16.868  12.828  14.197 -0.0679  0.1807  0.0376
27096W        W43944  15.598  12.047  15.342 -0.0656  0.1977  0.0170
27097W        W43945   2.470   0.829  14.169  0.3926 -0.0702  0.0322
27098W        W43946  13.220  16.786   1.893 -0.1333 -0.0605  0.1979
27099W        W43947   6.655  14.446   3.067  0.3502  0.0638  0.0988
27100W        W43948   4.314   6.533  13.697  0.0938  0.0763  0.1724
27101W        W43949   9.009   3.809  11.246  0.3623  0.1980  0.2021
27102W        W43950   5.776   9.498  14.045 -0.0538 -0.1169  0.1445
27103W        W43951  13.894   8.867   0.512 -0.1278  0.1620  0.0089
27104W        W43952  10.332   1.743   2.789  0.2095  0.1822 -0.1503
27105W        W43953   8.854   9.399   0.931 -0.1922  0.1566 -0.0269
27106W        W43954   2.168  16.165   4.197 -0.0143  0.0220  0.1554
27107W        W43955   2.436  13.121   1.276 -0.1349 -0.0077  0.0594
27108W        W43956  15.960   3.479   4.444 -0.0480 -0.0685  0.1811
27109W        W43957  17.581   9.708   1.828  0.0870 -0.1114  0.5307
27110W        W43958   3.693  10.225   3.123 -0.1457  0.0380 -0.0138
27111W        W43959   2.528   5.236   4.520 -0.1603  0.0589 -0.1872
27112W        W43960  14.996   1.780   2.763 -0.2193 -0.0557  0.0510
27113W        W43961   0.295  11.849   3.187  0.1344 -0.0977  0.0131
27114W        W43962   4.204  14.376  15.991  0.0268  0.0512  0.1952
27115W        W43963  15.021   7.443   1.744  0.2390  0.0086 -0.0201
27116W        W43964   7.607  10.937  15.981  0.0698  0.1024 -0.2373
27117W        W43965  16.579   1.390  12.982  0.1633 -0.0028 -0.2459
27118W        W43966  17.242   0.916  11.367  0.0150 -0.0790 -0.2260
27119W        W43967  10.483   4.291  13.209 -0.2359  0.0961 -0.0044
27120W        W43968   3.169   6.015   3.667 -0.1413 -0.1682 -0.1350
27121W        W43969  13.145  16.691  11.773 -0.1854 -0.1652  0.0138
27122W        W43970  13.382   2.937  15.428 -0.0451  0.4315  0.1092
27123W        W43971   8.929  16.741   2.014  0.0968  0.0006  0.0220
27124W        W43972   8.155   9.479   5.107  0.0886  0.0772  0.1805
27125W        W43973   0.620   8.199   3.036 -0.1487  0.0181  0.0083
27126W        W43974  11.099  16.114  15.107  0.0052 -0.1840 -0.4810
27127W        W43975  13.773  17.537   4.493  0.0837  0.2940  0.1631
27128W        W43976  10.688  16.138   0.037  0.4229 -0.0278  0.2874
27129W        W43977  13.830  10.912   4.880  0.1695 -0.0969  0.0692
27130W        W43978  11.084   5.671  11.805 -0.1902  0.2416  0.0239
27131W        W43979  14.598  14.210  12.076  0.1109 -0.1552  0.3295
27132W        W43980   3.977  15.871   6.015 -0.1025 -0.1300  0.0030
27133W        W43981  16.837  15.599   5.203  0.0651  0.2573 -0.0318
27134W        W43982  13.975  16.151  11.426  0.1898  0.1122  0.1414
27135W        W43983   4.098  17.341   3.952  0.4682  0.0820  0.0754
27136W        W43984   2.773   0.460  14.912  0.0798 -0.0259  0.2947
27137W        W43985  14.155  18.078  14.008  0.1301  0.0915 -0.0900
27138W        W43986  10.658   8.142   0.925 -0.0503 -0.4399  0.0369
27139W        W43987   6.128   5.528   3.897 -0.1279 -0.1028 -0.1062
27140W        W43988   2.198   9.201   5.791  0.0580  0.1679  0.0372
27141W        W43989   7.206   2.690  15.696  0.0981  0.0313  0.2772
27142W        W43990   1.271   3.944  12.099  0.0571  0.2054 -0.0855
27143W        W43991  17.833  14.026  12.491 -0.0854  0.3025  0.2289
27144W        W43992   3.095   5.355  11.442 -0.0610 -0.1887 -0.1262
27145W        W43993  13.885   4.264  10.591  0.1350 -0.0513  0.0682
27146W        W43994  14.168   1.258   3.732 -0.2788  0.0626 -0.2135
27147W        W43995  13.838   1.488  11.979  0.1593 -0.1176  0.0397
27148W        W43996   4.115  14.288   1.696 -0.3027  0.0291 -0.2543
27149W        W43997   3.221   1.430   2.040  0.3868  0.0671 -0.0945
27150W        W43998  14.900   4.974  16.075 -0.0921 -0.0612  0.0042
27151W        W43999   1.705  11.602  14.668  0.0544  0.0891 -0.0040
27152W        W44000   2.629  14.811   1.488  0.0850 -0.0006 -0.0468
27153W        W44001   2.618  16.571  15.228  0.0867 -0.1325  0.0760
27154W        W44002   8.560   9.505   2.950  0.0163  0.0863 -0.1751
27155W        W44003   0.025  10.191   4.135 -0.0012 -0.3371  0.2221
27156W        W44004   7.501  12.635   4.063  0.0391 -0.1528 -0.1958
27157W        W44005  13.432  10.814  13.547 -0.4532 -0.2245 -0.1492
27158W        W44006  11.069   8.869   4.260  0.1958 -0.1344  0.0755
27159W        W44007   3.760  14.365   4.137  0.1101  0.0647 -0.4450
27160W        W44008  16.592   1.125   4.374 -0.0835 -0.2074 -0.1163
27161W        W44009  16.431  17.446  15.464 -0.0007  0.0698 -0.2371
27162W        W44010   5.074   1.988  16.164  0.0382 -0.0382 -0.0063
27163W        W44011   3.825   2.323  11.213  0.0618  0.1656 -0.3326
27164W        W44012  16.224  15.522  15.885 -0.0433  0.0388 -0.2307
27165W        W44013   3.486   4.621  12.571  0.1110 -0.1334  0.1831
27166W        W44014   7.491  11.094   3.091 -0.0081 -0.3068 -0.0305
27167W        W44015  13.610  13.592   3.979 -0.1041  0.0881 -0.0346
27168W        W44016   5.998  14.344  13.588  0.0071  0.2200  0.0243
27169W        W44017  13.368   2.897  14.802  0.1272  0.1137  0.0498
27170W        W44018   2.930  11.584  11.540 -0.2882  0.0568  0.0199
27171W        W44019  10.408   3.553   1.817  0.0021  0.1327 -0.3142
27172W        W44020  14.052   5.566   2.547 -0.1089 -0.7145 -0.0783
27173W        W44021   8.298  11.043   3.560 -0.1742  0.1451 -0.1118
27174W        W44022  10.709   7.992   4.633  0.2605 -0.0119  0.0132
27175W        W44023   8.824  10.167  10.902 -0.1258  0.1743 -0.0144
27176W        W44024   2.280   7.884  14.267  0.0672  0.0475  0.1296
27177W        W44025  16.006  15.060  11.635 -0.0514  0.2030  0.4357
27178W        W44026   8.412   8.592   1.785 -0.2569  0.1043 -0.3472
27179W        W44027   9.759   4.059  14.101  0.0445 -0.4528  0.3571
27180W        W44028  13.150   1.723  13.751  0.0503  0.3493  0.1162
27181W        W44029   6.309  16.532  14.049 -0.2533  0.4230  0.1288
27182W        W44030  13.513   3.408  15.444  0.1507  0.3583 -0.3240
27183W        W44031   5.292   3.392  13.572 -0.1416 -0.1489  0.0799
27184W        W44032   4.999   7.476   3.008 -0.1469 -0.2069  0.1065
27185W        W44033   0.343   7.495   2.154 -0.0882  0.1633  0.2185
27186W        W44034   6.050  11.251  11.037 -0.0329  0.0743  0.0509
27187W        W44035   5.593   7.815  11.191  0.1091  0.1011 -0.1069
27188W        W44036  16.544   4.372   4.138 -0.3092 -0.2735  0.1097
27189W        W44037  16.943   3.330   1.163  0.0279 -0.1515 -0.2096
27190W        W44038   5.730   9.946  13.546 -0.3600 -0.1624 -0.0284
27191W        W44039  10.786   8.611   0.618 -0.1398  0.3313 -0.3802
27192W        W44040  16.585   3.000  14.876  0.4969 -0.0627  0.0365
27193W        W44041   6.112   5.473   4.534 -0.2983  0.1530 -0.0367
27194W        W44042  14.829   4.263   3.372  0.0384  0.2145  0.4299
27195W        W44043  15.242  18.059   2.156  0.1063 -0.5211  0.0681
27196W        W44044  15.655  15.843  15.396  0.2859 -0.1212  0.0647
27197W        W44045   4.924   8.037  12.292 -0.0961  0.1594  0.0488
27198W        W44046   0.901  13.494  12.587 -0.1497  0.0326 -0.2271
27199W        W44047   8.853  11.322   1.383 -0.3410 -0.2581 -0.1738
27200W        W44048  10.465  15.717  12.774 -0.1101 -0.1592  0.5399
27201W        W44049  11.353   5.196  14.760 -0.1777  0.0257 -0.1153
27202W        W44050   1.761   6.665  13.500 -0.2255 -0.0623 -0.2982
27203W        W44051   7.240  12.608  15.125 -0.2001 -0.1922  0.3825
27204W        W44052  17.669  11.708   3.312  0.1302  0.1988  0.0394
27205W        W44053   8.923   3.416  13.118  0.1131 -0.1521 -0.1345
27206W        W44054  17.953   4.793   0.763 -0.1524  0.1213 -0.0617
27207W        W44055  10.423  15.782  13.497  0.2428  0.1565  0.2518
27208W        W44056  17.176   7.144  13.011 -0.4927 -0.1144  0.0503
27209W        W44057   3.009  12.155  13.978 -0.1486 -0.0993  0.1370
27210W        W44058  14.641  15.460   1.159 -0.1229 -0.1504  0.0990
27211W        W44059   6.944  18.040  11.250 -0.2570  0.1120 -0.2159
27212W        W44060   4.847   2.368  15.756  0.1189 -0.2851  0.0422
27213W        W44061  11.602   9.745   4.134  0.2443 -0.0856 -0.0373
27214W        W44062   6.328  14.038  15.405  0.0139 -0.1775  0.0502
27215W        W44063   3.123  14.242   0.896 -0.0496 -0.4052 -0.0265
27216W        W44064   2.705   8.573   1.159  0.1533 -0.2051  0.2033
27217W        W44065  10.006   7.766   2.977  0.2119 -0.1144  0.1900
27218W        W44066  15.410  11.603   5.198 -0.0035 -0.1016 -0.3485
27219W        W44067   0.411  15.345   2.218  0.1420  0.1435 -0.3596
27220W        W44068   6.622  12.721   1.418 -0.0475 -0.0953  0.0273
27221W        W44069   5.637  17.838   4.443 -0.1717 -0.0541 -0.0367
27222W        W44070  14.283  13.069   3.615 -0.0802 -0.0876  0.1879
27223W        W44071  16.438   1.680   0.600  0.2309  0.0326 -0.0175
27224W        W44072   5.096   3.694   0.450 -0.0785 -0.2853 -0.0713
27225W        W44073   2.922   8.819   1.635  0.3906  0.0438  0.0201
27226W        W44074   2.234   2.042   0.431 -0.1166  0.1309  0.1028
27227W        W44075  15.119   7.899  14.154  0.1123 -0.2952  0.0668
27228W        W44076   6.467   6.789  10.136 -0.5151  0.1729  0.1058
27229W        W44077  15.303   7.680  14.654  0.1365  0.1032  0.1954
27230W        W44078   1.840  11.387   0.853 -0.1470  0.1632  0.4891
27231W        W44079   0.128   4.573  13.266  0.1273 -0.0147 -0.1954
27232W        W44080  15.397  17.145   1.224 -0.0870 -0.0781  0.2904
27233W        W44081   9.720  11.429   4.413  0.0403  0.2419  0.3511
27234W        W44082   8.312   0.278  12.351  0.3386  0.1955  0.1654
27235W        W44083   8.040   0.660  12.054 -0.1302  0.3474  0.2193
27236W        W44084  11.753  14.194   5.844 -0.1447 -0.1616  0.2508
27237W        W44085   5.515   5.614   1.499 -0.1810  0.1736  0.4177
27238W        W44086   7.809  16.033   1.823  0.0072  0.0987  0.1018
27239W        W44087   9.315   4.444  15.513  0.3455 -0.0083  0.2551
27240W        W44088  14.518  15.571  15.249  0.3271 -0.0198  0.1246
27241W        W44089   1.828  13.515  12.863 -0.2716 -0.1416  0.2505
27242W        W44090   6.295   6.168   1.427 -0.2282 -0.0395  0.2545
27243W        W44091   1.038  11.580   2.074 -0.0309  0.0558  0.1519
27244W        W44092   2.468  16.083  11.563 -0.3793 -0.3210 -0.0679
27245W        W44093   6.301   9.489   4.527 -0.4054  0.0114  0.1473
27246W        W44094   6.008  13.364   1.779 -0.2689  0.2408 -0.0383
27247W        W44095   5.843   8.560  13.798 -0.2320 -0.1957 -0.1162
27248W        W44096   3.375  10.684  14.557  0.0975  0.0706 -0.3032
27249W        W44097   1.904   6.029  12.668  0.1479 -0.1395 -0.1613
27250W        W44098   4.015   4.396  11.732 -0.1117  0.1402  0.2069
27251W        W44099  11.751  17.108   1.353 -0.0889 -0.0268  0.1028
27252W        W44100   2.993   1.472   3.071 -0.0673  0.0510  0.0479
27253W        W44101  11.847   9.373  14.707 -0.1899 -0.1385 -0.0331
27254W        W44102  16.218   6.041  13.453 -0.0032 -0.0055  0.2782
27255W        W44103   8.263   9.019  13.461  0.0843  0.0715 -0.1632
27256W        W44104   3.463   2.971  12.782  0.1229  0.0233  0.0615
27257W        W44105  15.441  17.641  14.937  0.0795 -0.0815 -0.0343
27258W        W44106   4.077  18.019   0.743  0.0440 -0.0556 -0.0414
27259W        W44107  12.892  12.897   1.884  0.2711 -0.3417 -0.0839
27260W        W44108  18.095   5.861  14.788  0.0722  0.2262 -0.2744
27261W        W44109   6.087   4.494   2.490  0.0212 -0.0018  0.1428
27262W        W44110   8.208  17.813  15.360 -0.0932  0.0540 -0.1102
27263W        W44111   9.749  13.354  13.830  0.2725  0.1023  0.1899
27264W        W44112   4.673   0.223  11.581  0.1416  0.0334  0.2034
27265W        W44113  12.067  10.903   2.742  0.0862  0.0518  0.2320
27266W        W44114   6.701  10.466  14.275  0.0267 -0.1002 -0.2465
27267W        W44115   8.521   9.215  13.098 -0.0654  0.0788 -0.3425
27268W        W44116   2.927  16.559   3.804 -0.1199 -0.1424 -0.2315
27269W        W44117  16.551  16.760  11.835  0.3563  0.1842  0.2838
27270W        W44118   2.440   1.388  11.604 -0.1169  0.2734  0.0991
27271W        W44119   7.828   2.452   0.967  0.0655 -0.0435 -0.1906
27272W        W44120  13.955  16.870   0.855 -0.3606 -0.1100  0.0956
27273W        W44121   0.908  12.324   2.575  0.1113 -0.1981  0.4484
27274W        W44122   8.124  15.734  13.465  0.0678  0.2669  0.0186
27275W        W44123  13.739  13.990   2.031 -0.1943  0.0590  0.3571
27276W        W44124  16.057   7.652  15.195 -0.1483  0.0853  0.1563
27277W        W44125   5.103  16.351   5.295  0.1461  0.1179 -0.0584
27278W        W44126   9.508   2.831   3.920  0.1383 -0.0926 -0.1515
27279W        W44127   4.676  10.094  14.430  0.2348 -0.0337  0.0611
27280W        W44128  17.569  16.627  12.718 -0.3798 -0.1458 -0.1360
27281W        W44129  10.104   6.810  11.974  0.1351 -0.0463 -0.0956
27282W        W44130  10.048   1.087   3.329  0.0149 -0.1590  0.0399
27283W        W44131  17.868   7.766   2.651  0.1114 -0.2512  0.0745
27284W        W44132   9.248  12.235  12.939  0.0596 -0.1378  0.0264
27285W        W44133  17.995   8.522  11.665  0.0415  0.1332 -0.1276
27286W        W44134   0.191  12.809   3.861 -0.2048  0.1237  0.1436
27287W        W44135  14.943  10.973   5.272 -0.0010  0.2423 -0.4137
27288W        W44136   1.408  17.661   1.806  0.1847  0.3384 -0.1287
27289W        W44137  13.975   3.254   1.884 -0.1161 -0.0695  0.2331
27290W        W44138   0.152   9.476   3.224  0.1655  0.0339 -0.1323
27291W        W44139   7.197  13.747  11.623  0.0048  0.0815  0.1845
27292W        W44140  12.880  17.168   2.147 -0.0010  0.0061  0.5139
27293W        W44141  12.113   4.828  14.192 -0.0118 -0.3176 -0.2034
27294W        W44142   4.050  15.518  13.131  0.0269  0.1077 -0.2152
27295W        W44143  10.000   6.233  15.861 -0.0606  0.1957  0.0835
27296W        W44144   7.333  17.223  10.961 -0.0327 -0.1413 -0.1567
27297W        W44145  11.811  16.394   2.668 -0.0981 -0.0252  0.2056
27298W        W44146   6.907   0.693   2.640 -0.1440  0.2703 -0.3530
27299W        W44147  10.177   4.365   4.375  0.0000 -0.2376  0.0944
27300W        W44148   3.126   7.688   0.518  0.2833  0.0282  0.3418
27301W        W44149   9.844   9.926   4.140 -0.0415  0.1336 -0.1411
27302W        W44150   0.946  14.089  14.013  0.0408  0.2054  0.2794
27303W        W44151   2.871  10.923  15.974  0.1113 -0.0024  0.0566
27304W        W44152   6.407   2.235   4.221 -0.2727 -0.1924 -0.0295
27305W        W44153  14.676   7.709   3.710 -0.0934  0.2076 -0.1007
27306W        W44154   7.367   0.241  11.344  0.0092  0.0320  0.1409
27307W        W44155  13.178   1.501   4.125  0.1682 -0.0539  0.0607
27308W        W44156  15.708  11.002   1.023  0.0538  0.2462 -0.1259
27309W        W44157   9.051  12.748   2.645  0.0688  0.0052 -0.2341
27310W        W44158  16.021   0.675  14.041 -0.2401  0.2549  0.0476
27311W        W44159   3.291  13.134   2.324  0.2235 -0.2608 -0.1979
27312W        W44160   7.405  10.715  13.774  0.5902  0.1350  0.0170
27313W        W44161   2.196   0.376   2.983  0.2320  0.0185  0.1871
27314W        W44162   4.149   1.735   6.022  0.0240 -0.1872  0.0442
27315W        W44163   2.623   7.237  12.683  0.2261 -0.0087  0.2081
27316W        W44164   8.818  16.007  16.102  0.2400  0.2782 -0.5689
27317W        W44165  11.109  18.042   3.556  0.0076 -0.0829  0.0922
27318W        W44166  13.559  16.912  14.496 -0.2888  0.3884  0.1246
27319W        W44167  15.641  13.027  12.225 -0.0846  0.1771 -0.1060
27320W        W44168   1.999  17.951   5.611  0.2269 -0.1651  0.0740
27321W        W44169   3.870   6.482   6.130 -0.1802 -0.1631  0.1099
27322W        W44170   8.847   6.124   1.464 -0.2048  0.0102 -0.0810
27323W        W44171  14.637  14.230  12.868 -0.0973  0.0334  0.2244
27324W        W44172   9.232   1.302   0.626 -0.2274 -0.0442  0.1052
27325W        W44173  12.834   8.896   2.440  0.2293 -0.0328  0.0335
27326W        W44174   6.681   6.014   3.107  0.0162  0.0896 -0.0730
27327W        W44175  14.291  10.551  15.061 -0.4012 -0.0745  0.1901
27328W        W44176   1.460   8.282  13.086  0.1841 -0.1972 -0.3262
27329W        W44177  10.851   3.607  16.311  0.0089  0.1659 -0.1198
27330W        W44178   6.925  17.969   4.375 -0.1131  0.1469  0.2735
27331W        W44179   9.364  11.367  15.459  0.4442 -0.0475  0.2827
27332W        W44180   0.631   1.947   4.672  0.0316  0.1092  0.1478
27333W        W44181   8.111   6.933  15.553  0.0250  0.2379  0.2555
27334W        W44182  15.132   0.534  15.999  0.1236 -0.2090  0.0560
27335W        W44183   0.134  12.809  13.627 -0.3705  0.3449 -0.1765
27336W        W44184   3.331  14.818   1.307  0.5350 -0.0069 -0.0173
27337W        W44185   4.548  15.574  12.373 -0.1129  0.2622 -0.0164
27338W        W44186  16.172   8.649  14.312 -0.0896 -0.0067  0.0293
27339W        W44187   4.602  13.562   0.027 -0.0418 -0.0203 -0.1005
27340W        W44188   7.624  12.792  14.645  0.1182  0.2131  0.2001
27341W        W44189  15.221   9.278   4.062  0.1422  0.0631  0.2473
27342W        W44190  14.838   2.412  14.782  0.1202  0.1173 -0.0028
27343W        W44191   3.027  15.017  11.653 -0.3278  0.1116 -0.0598
27344W        W44192   5.812  13.695  10.472 -0.3650 -0.0535  0.0962
27345W        W44193  12.876   9.254   0.533  0.0771 -0.0016 -0.0194
27346W        W44194   8.119   3.564  11.625  0.1829  0.1840 -0.1271
27347W        W44195   1.806  14.902  13.412 -0.5268 -0.2843  0.0338
27348W        W44196   5.708  11.746  11.161  0.0363 -0.0533 -0.1597
27349W        W44197   6.613   2.686   4.232  0.1064 -0.2684 -0.2196
27350W        W44198  15.663  16.827  15.489  0.1216 -0.3035  0.1973
27351W        W44199  17.452   4.278  12.850  0.0736 -0.1916 -0.0867
27352W        W44200   4.915  10.755  11.433 -0.0546 -0.1889 -0.2940
27353W        W44201   8.685   0.264   4.547  0.0086 -0.1519  0.0282
27354W        W44202   1.332   4.630  15.626  0.2864 -0.1461  0.1037
27355W        W44203   4.966   9.343  14.541  0.1121  0.3608 -0.0997
27356W        W44204  15.000   1.927   3.242  0.4795  0.0061 -0.5433
27357W        W44205  13.858  17.612   6.379  0.1925  0.0638  0.0056
27358W        W44206  16.307  10.026  15.422 -0.0387 -0.1715 -0.0503
27359W        W44207  15.069  13.952   2.173 -0.1699 -0.0577 -0.0496
27360W        W44208   5.290  10.939  11.714 -0.1052 -0.0343  0.1963
27361W        W44209  17.911  13.485  14.402  0.2920  0.2339  0.0866
27362W        W44210   6.403  10.869   0.720 -0.0353  0.2482  0.0132
27363W        W44211   8.878  15.820  10.709  0.4577  0.0714 -0.0397
27364W        W44212   7.009   7.850   5.201 -0.0241 -0.0341 -0.2887
27365W        W44213   6.219  15.119  13.036  0.2091  0.3313 -0.0318
27366W        W44214   8.878   7.195  13.377 -0.0925  0.1940 -0.1608
27367W        W44215  10.028   1.569   0.280  0.0787 -0.0918  0.0279
27368W        W44216   3.389  16.620   2.319 -0.2125  0.1201  0.0863
27369W        W44217  13.630  14.132   0.799  0.0057 -0.1133  0.2757
27370W        W44218  12.198   7.925   1.605  0.4346  0.3746  0.0091
27371W        W44219  17.217   2.517   3.734  0.3769 -0.0206  0.2845
27372W        W44220  10.078   3.292   3.549 -0.1237 -0.1027  0.1442
27373W        W44221  11.391  13.333   4.197  0.0009 -0.1541  0.3260
27374W        W44222   6.524   8.072   4.100  0.2022 -0.4335 -0.0110
27375W        W44223   8.941  12.843   4.988 -0.0635 -0.0277  0.2319
27376W        W44224   7.023  16.708  12.385  0.0558 -0.0427 -0.0775
27377W        W44225   1.207   0.949  12.208 -0.0531  0.1985  0.2324
27378W        W44226   4.556   8.658   1.726  0.2721 -0.2131 -0.2448
27379W        W44227   2.074   0.093   2.471 -0.1243 -0.0199 -0.0933
27380W        W44228   2.796   3.227  15.118  0.2977  0.3910 -0.2755
27381W        W44229  10.121  13.441  14.740 -0.0685  0.0503 -0.0286
27382W        W44230   5.263   2.443   0.425 -0.1262 -0.0462  0.2696
27383W        W44231   6.709  14.634   4.429 -0.0191 -0.2913 -0.1931
27384W        W44232   9.266  17.617   2.229  0.0103  0.1084  0.1486
27385W        W44233   4.476  12.441  13.034 -0.0057 -0.0409 -0.0154
27386W        W44234  12.075  17.434  12.088  0.0874 -0.1525  0.0462
27387W        W44235  13.979  16.865  12.086 -0.4218  0.1083  0.0996
27388W        W44236  12.859  10.735  13.434 -0.0334  0.3901 -0.0374
27389W        W44237   5.321  10.355   1.882 -0.2373  0.0012 -0.1916
27390W        W44238   4.678  15.938  12.058 -0.1405 -0.0543 -0.0797
27391W        W44239   8.369  16.822   1.770  0.1938 -0.0978 -0.3054
27392W        W44240  15.953  14.255   1.562 -0.1427  0.1133  0.1440
27393W        W44241   0.054  10.540   1.987  0.0642  0.0240  0.0117
27394W        W44242  16.505  10.157   2.473 -0.0684  0.0379  0.0593
27395W        W44243   5.485   1.668   4.985 -0.1382  0.0664 -0.2442
27396W        W44244   1.025   8.419  12.292  0.0385  0.0637  0.1174
27397W        W44245   4.998   1.443   0.785  0.0458  0.3301  0.0995
27398W        W44246   5.889   6.335   1.125  0.1870 -0.1154 -0.4074
27399W        W44247  14.181   8.700  15.488  0.0717 -0.0643  0.1255
27400W        W44248   7.197  12.961  15.543 -0.0120 -0.2434  0.0555
27401W        W44249   6.300  11.782  14.847  0.0072  0.0731 -0.2243
27402W        W44250  11.895   8.635  16.180 -0.3443  0.0229 -0.0413
27403W        W44251   1.766   6.809  15.858 -0.0279  0.1795 -0.2702
27404W        W44252   7.995  16.807   4.323  0.2446 -0.1496  0.1349
27405W        W44253   5.450   8.280  11.357  0.1566  0.2029 -0.1979
27406W        W44254   1.218   7.374   4.404 -0.0062  0.0560  0.2638
27407W        W44255  13.605   2.507  11.750  0.1593  0.1637 -0.1009
27408W        W44256  14.996  15.807   1.283  0.1206  0.2075  0.1483
27409W        W44257   0.561   5.432   0.445 -0.3211 -0.0592  0.1533
27410W        W44258  13.196   9.711   0.364  0.1414 -0.0079  0.0264
27411W        W44259   7.822  11.522   0.528  0.1932  0.1282  0.0098
27412W        W44260   2.914  15.486   0.420  0.1679  0.1836 -0.0797
27413W        W44261   9.542   9.894  14.175  0.2314 -0.0861  0.0216
27414W        W44262   1.929   4.190   4.245  0.3238 -0.4173  0.0955
27415W        W44263  11.113  14.201   0.212  0.1148 -0.1517 -0.0276
27416W        W44264  14.748  14.578  16.302 -0.3094 -0.1337  0.1576
27417W        W44265   3.000  13.359  15.150 -0.1769 -0.5427 -0.0765
27418W        W44266  10.480   5.078  15.482 -0.1597 -0.1441  0.3789
27419W        W44267  11.686  17.172   4.067 -0.0540  0.0920  0.0051
27420W        W44268  12.449   9.669  15.564 -0.0478  0.2631 -0.0804
27421W        W44269  10.961   7.455  11.448  0.0212 -0.1580 -0.4161
27422W        W44270   3.493  13.070   0.004  0.3025 -0.2767 -0.1628
27423W        W44271   3.613  16.620   3.775  0.1609  0.0897  0.1248
27424W        W44272   9.938  15.830  14.068 -0.0166  0.5286 -0.4457
27425W        W44273   3.865   3.819   5.278 -0.0959 -0.1367  0.4658
27426W        W44274   0.038  10.172  13.070  0.0250 -0.1418 -0.4147
27427W        W44275  10.570   2.346  12.534  0.1489 -0.1908  0.1470
27428W        W44276   5.855   7.617  15.858  0.0951  0.0089 -0.1737
27429W        W44277  13.348  17.254   2.927  0.0934 -0.2307  0.1292
27430W        W44278  10.592   5.077   0.545 -0.1535  0.0118  0.2622
27431W        W44279  13.079  15.886   2.209 -0.3453 -0.0760  0.0647
27432W        W44280  15.822   3.904  11.291 -0.1730  0.1570 -0.3746
27433W        W44281  14.475   7.875  14.105  0.1690 -0.1195  0.0437
27434W        W44282   4.146  11.458   4.033  0.1609 -0.1417 -0.0090
27435W        W44283  10.754   7.487   1.208  0.2728 -0.0972 -0.1460
27436W        W44284   9.087   0.826  13.198  0.0021 -0.5937 -0.1406
27437W        W44285  13.121  12.053  12.008  0.1742  0.0756 -0.1558
27438W        W44286  10.482   6.680   2.291 -0.0260 -0.0916  0.1621
27439W        W44287   4.314  15.284   4.047 -0.1047  0.2467  0.1490
27440W        W44288   8.221   0.848   1.532 -0.2401 -0.4533 -0.2343
27441W        W44289   8.327  15.935  15.882 -0.1098  0.0382  0.5598
27442W        W44290   1.775  17.287   1.774  0.1194  0.0172 -0.1092
27443W        W44291   0.341  14.834  11.494 -0.0168  0.0742  0.0052
27444W        W44292  15.731   0.654  12.142 -0.1035 -0.1338  0.2974
27445W        W44293   6.132   9.431   0.701 -0.0076 -0.0070 -0.1431
27446W        W44294   3.942   5.012  16.220 -0.1350  0.1352  0.1628
27447W        W44295  10.775  12.105   2.486 -0.1368  0.2982  0.1790
27448W        W44296  10.531   3.369  13.270 -0.2349 -0.1036 -0.1817
27449W        W44297  12.850  13.978   2.132 -0.0625 -0.1643  0.1098
27450W        W44298   2.362   6.894   4.416  0.1131 -0.1613 -0.1979
27451W        W44299   2.709  15.348   1.664 -0.0177  0.1198  0.2347
27452W        W44300   7.026   9.469   2.501 -0.0165  0.1650  0.1836
27453W        W44301   0.125   8.323  12.564  0.2801 -0.2531  0.0787
27454W        W44302  13.892  10.776  12.230 -0.1050 -0.0397  0.0784
27455W        W44303  12.562   5.099  14.659 -0.1311  0.3598  0.0303
27456W        W44304   0.129   9.960  12.543 -0.1808  0.3321  0.1180
27457W        W44305   5.592   0.986   2.998  0.0432 -0.0339  0.1002
27458W        W44306  12.254  13.881  16.270  0.0636 -0.0923 -0.1883
27459W        W44307  10.089   3.299   4.965 -0.3216 -0.1623  0.1132
27460W        W44308   6.898   7.941   2.742  0.0610  0.2242 -0.0539
27461W        W44309   4.312  10.731   0.639  0.0991  0.0187  0.1007
27462W        W44310   6.870   7.893   5.745  0.0018 -0.0532  0.3402
27463W        W44311  13.671  15.836  10.797  0.1859  0.0059 -0.1765
27464W        W44312   9.062   6.512  13.564  0.2448  0.2060  0.1524
27465W        W44313   6.250   9.115  13.918  0.1785  0.0996 -0.1424
27466W        W44314   9.163   2.907  12.612  0.1074 -0.1127  0.0541
27467W        W44315  12.160  10.158  12.161 -0.3175  0.1598 -0.2277
27468W        W44316   2.336   6.586   3.538  0.0025  0.1196 -0.0937
27469W        W44317   4.815   7.796   4.923 -0.1177 -0.1773 -0.0613
27470W        W44318  12.626  13.885  12.496  0.1640 -0.0585  0.0827
27471W        W44319   3.926  15.899   2.374  0.0615  0.2705  0.2407
27472W        W44320   6.537   5.020  16.030 -0.4162  0.1252  0.5095
27473W        W44321  16.259   0.321  14.343 -0.1390  0.2012  0.0991
27474W        W44322  11.202   8.983   5.269  0.0596 -0.3256  0.0197
27475W        W44323   3.572  15.078   2.995 -0.4894 -0.0957  0.1071
27476W        W44324   1.253  15.659  13.513  0.0134  0.0289  0.0145
27477W        W44325   9.697  11.349   1.619 -0.1189  0.1884 -0.2048
27478W        W44326   7.857  10.581   2.264 -0.2335  0.2462 -0.1597
27479W        W44327  15.852   8.501  14.807  0.1949 -0.0274  0.2882
27480W        W44328   5.879  14.926   0.200  0.1264  0.0352  0.0704
27481W        W44329   7.522  16.948  15.087 -0.0019  0.4167  0.3945
27482W        W44330  17.088  15.969  16.234 -0.0349  0.2048  0.1608
27483W        W44331  10.646   1.569  13.982  0.3001  0.0901  0.1763
27484W        W44332   7.611   5.743   4.588 -0.2165  0.3086  0.0443
27485W        W44333  13.554   9.755   3.020 -0.0016 -0.2308 -0.0272
27486W        W44334  11.680  10.385  12.076  0.3018  0.1304  0.0909
27487W        W44335   3.998   3.767   2.195  0.1059 -0.1404  0.0110
27488W        W44336  18.022   1.815   2.353  0.4686  0.0675  0.1337
27489W        W44337   7.856   6.339  15.595  0.2037  0.1355 -0.1603
27490W        W44338  10.638   2.692  15.021  0.1590  0.0605  0.0757
27491W        W44339  14.096  11.364  14.833 -0.1213 -0.1899 -0.0671
27492W        W44340   1.803  11.122  14.425  0.1596  0.2555  0.2772
27493W        W44341  17.733   3.793   1.717 -0.1167  0.0769 -0.0139
27494W        W44342   8.364   7.912  12.499 -0.1701  0.0356  0.0875
27495W        W44343  15.207  14.090  14.285  0.0988 -0.2809  0.4227
27496W        W44344  10.754  14.687   5.005 -0.0627 -0.0892 -0.0042
27497W        W44345   5.117  14.480   4.195 -0.1978  0.4751 -0.2740
27498W        W44346  16.633  16.025  12.085 -0.1839  0.0898  0.0767
27499W        W44347  11.018   2.781   2.222  0.0748  0.0814 -0.3704
27500W        W44348   8.715   1.331   3.687 -0.1487  0.1710 -0.3209
27501W        W44349  11.239   4.346  12.017  0.1994 -0.2577 -0.2547
27502W        W44350   2.898   4.261  11.467 -0.1896  0.2027  0.0772
27503W        W44351   1.465   6.334  15.508 -0.3535  0.0373  0.0263
27504W        W44352   4.997  16.099   2.613  0.3376 -0.0483 -0.0485
27505W        W44353  10.807   4.305  14.072 -0.1599 -0.0657 -0.0676
27506W        W44354  17.424  10.855  16.130 -0.2279  0.0022  0.1419
27507W        W44355   7.813  12.977  14.123  0.2135  0.2527  0.0477
27508W        W44356   9.709   6.814   4.553 -0.0921 -0.0061  0.1642
27509W        W44357   1.356  17.209   1.475 -0.1010 -0.1823 -0.4385
27510W        W44358   7.433   3.176  14.853 -0.0550  0.0370 -0.0283
27511W        W44359   7.200  16.223  13.987 -0.1271  0.0948  0.0887
27512W        W44360  15.442   5.054   0.744 -0.0289  0.2314 -0.0898
27513W        W44361   2.849   7.652  12.513  0.2356  0.0633 -0.3089
27514W        W44362   9.042  14.376  12.220 -0.3250  0.0751 -0.3528
27515W        W44363   2.635  11.507   0.458 -0.1090  0.0432  0.0782
27516W        W44364   4.868  16.971  15.135  0.1701 -0.1011  0.1875
27517W        W44365   2.774  14.917  15.100  0.3084  0.0772 -0.2209
27518W        W44366   5.055  11.123   1.204 -0.3414  0.1169  0.2599
27519W        W44367   6.275   9.748  16.112  0.1076 -0.3781  0.1282
27520W        W44368   2.603   6.397  16.030 -0.1050 -0.0497 -0.1455
27521W        W44369  11.912  14.518  12.466  0.3456 -0.1618 -0.2018
27522W        W44370  16.713   5.185  12.484 -0.1498 -0.6741  0.0026
27523W        W44371  16.419  16.433   0.711 -0.1580  0.0683 -0.0084
27524W        W44372  15.526  13.214   0.390 -0.3171  0.1232 -0.1137
27525W        W44373  13.817   5.782   2.147 -0.2349  0.0279  0.3130
27526W        W44374  17.564  13.220  15.486 -0.1910  0.3739 -0.0346
27527W        W44375  11.632   3.719  13.710  0.0230  0.2611  0.0071
27528W        W44376   4.712  17.824   1.108  0.1320 -0.3111  0.1035
27529W        W44377   6.191  17.995  11.386 -0.1519 -0.1256  0.0623
27530W        W44378   4.394  13.842   3.060  0.1206  0.0347  0.1703
27531W        W44379  13.641   3.882   1.250  0.1536 -0.2044  0.0347
27532W        W44380  10.996  13.047  16.310 -0.0014  0.0939  0.1419
27533W        W44381   5.161  17.974  15.219 -0.0579  0.3078  0.0983
27534W        W44382   9.904   7.081  12.349 -0.1447 -0.1405 -0.1126
27535W        W44383   1.164   8.928   1.874  0.1836  0.0366 -0.0730
27536W        W44384   5.533   9.173   4.259 -0.0557 -0.1436  0.2565
27537W        W44385   5.136  12.813   3.685 -0.0062  0.0593 -0.0847
27538W        W44386   9.473   8.837  15.265 -0.3151  0.2313 -0.0783
27539W        W44387  13.278   8.488  13.406  0.0502  0.2918 -0.2239
27540W        W44388   2.734  17.482  11.430  0.0243 -0.0133  0.0431
27541W        W44389   3.557  17.415   2.459 -0.3219  0.2135  0.1417
27542W        W44390  13.190  15.233   0.283  0.1834  0.1830  0.0816
27543W        W44391   4.263   2.700   1.549  0.0559  0.1948 -0.2314
27544W        W44392   2.686  13.993   0.637 -0.1254 -0.2258  0.2357
27545W        W44393   2.548   5.353   1.544 -0.2520 -0.0642 -0.1360
27546W        W44394   1.978  13.410  15.106  0.1841  0.2265  0.1911
27547W        W44395   8.801  16.466   1.136  0.1160 -0.2649 -0.2327
27548W        W44396   9.738  18.095   2.980  0.1422 -0.0166  0.0972
27549W        W44397  12.620   0.347  13.601 -0.0667  0.0884 -0.1940
27550W        W44398  13.786  17.426  13.575  0.1204 -0.0307 -0.0129
27551W        W44399   5.416   5.196   1.842 -0.1516  0.3191  0.0590
27552W        W44400  17.073   8.620   2.526  0.0857  0.0731  0.2571
27553W        W44401   8.214   4.102  11.643 -0.0090 -0.1030  0.1817
27554W        W44402  11.886   9.591   4.465  0.0445 -0.3611 -0.3042
27555W        W44403   4.098   8.529   1.192  0.1106  0.1656 -0.0979
27556W        W44404   7.912   9.655  10.966  0.0548 -0.1782 -0.1160
27557W        W44405   7.990  12.479  14.841 -0.2854 -0.3145 -0.0785
27558W        W44406  17.177  17.100   2.285 -0.0988  0.1021 -0.0905
27559W        W44407  12.308  11.542   3.079 -0.1340 -0.1448 -0.0009
27560W        W44408  13.452   7.186   0.582  0.1420  0.0117 -0.2960
27561W        W44409  17.804  10.697  13.406 -0.0281 -0.2456 -0.0329
27562W        W44410   8.502   4.316   1.972  0.2277 -0.1735  0.2797
27563W        W44411   7.438   6.676  12.015 -0.1384 -0.2223 -0.0360
27564W        W44412  14.217   7.335  12.748 -0.0631 -0.3005  0.0478
27565W        W44413  14.821  15.782   0.316  0.0397  0.0917  0.4013
27566W        W44414  14.879  17.138  11.898 -0.4228 -0.1016  0.2146
27567W        W44415   7.271   9.033  12.166 -0.1951 -0.0279  0.0282
27568W        W44416  10.859  10.436   3.387  0.0894  0.1319 -0.0717
27569W        W44417   4.891   6.717  11.325 -0.1528 -0.0990 -0.2087
27570W        W44418   9.152   8.567   1.304 -0.1224 -0.4543  0.0141
27571W        W44419   8.140  15.243   2.674 -0.2526  0.0445  0.1414
27572W        W44420   8.977  13.046   1.867  0.3525  0.2437 -0.0472
27573W        W44421   3.842   1.091   2.193 -0.0959 -0.3638 -0.1247
27574W        W44422  18.075   6.995   4.687  0.0672  0.0655 -0.0368
27575W        W44423  13.523   3.971  11.876  0.2088 -0.2892  0.1645
27576W        W44424   4.967   6.374   0.407 -0.0494  0.4713 -0.2804
27577W        W44425   2.723  12.756  16.099  0.3711 -0.1279 -0.2233
27578W        W44426   0.374   9.662   2.232  0.0617 -0.1743 -0.2148
27579W        W44427   6.909   4.086   4.058  0.0884  0.1007 -0.4370
27580W        W44428   2.827  17.620  11.917 -0.1491  0.0288 -0.4113
27581W        W44429   7.250   0.523  14.345  0.1674  0.0517 -0.0274
27582W        W44430   5.093   9.478  11.913  0.2721  0.2760 -0.1118
27583W        W44431  11.445   4.186   3.326  0.0685  0.4268  0.1747
27584W        W44432   8.442  11.547  16.098  0.1911 -0.0469  0.0536
27585W        W44433  12.045  11.999  15.891  0.0076 -0.0709 -0.4958
27586W        W44434  12.563  14.906   2.222  0.3060  0.2711 -0.1727
27587W        W44435  12.723   0.494  15.901 -0.2098 -0.5475 -0.2016
27588W        W44436   6.229  11.104   1.716 -0.4476 -0.1409 -0.0540
27589W        W44437   9.433   3.079   0.113 -0.2033 -0.2305  0.0951
27590W        W44438  17.729  11.354  16.119  0.0607  0.0880  0.0009
27591W        W44439  16.602  13.819  13.217 -0.2937  0.1530  0.2939
27592W        W44440   8.061  13.792  12.023 -0.1696  0.2457  0.1046
27593W        W44441   0.881  11.995  14.253  0.4019 -0.4045  0.0256
27594W        W44442   4.736   2.940  11.821 -0.0284  0.0255 -0.0181
27595W        W44443  16.227  10.848   4.771  0.0379  0.2137 -0.0428
27596W        W44444   3.330  12.511   4.383  0.1949  0.1000  0.3538
27597W        W44445  14.351  10.343  15.934  0.1673  0.0972 -0.0240
27598W        W44446  10.124  16.952   3.130 -0.0056  0.0982 -0.0213
27599W        W44447   0.041   9.542   3.733  0.1247 -0.2097 -0.0161
27600W        W44448  16.053  12.545   2.171 -0.3258 -0.2467 -0.0943
27601W        W44449   3.664  13.941   3.862 -0.0447 -0.4236 -0.2233
27602W        W44450  10.933   2.460   1.204  0.0418  0.1010 -0.1171
27603W        W44451   3.735   8.501  12.964  0.3471 -0.0122 -0.0033
27604W        W44452   9.189  11.347   4.337  0.1902  0.3160 -0.0270
27605W        W44453   2.114   2.253   4.562  0.1975 -0.0718 -0.1879
27606W        W44454   5.364  16.817   3.867 -0.1047 -0.2180  0.2015
27607W        W44455  14.493  17.754  13.760 -0.3353 -0.1828 -0.2777
27608W        W44456   1.502   7.484  16.246 -0.0117 -0.0081  0.2294
27609W        W44457  14.739  15.019   0.236 -0.2541 -0.1902 -0.0142
27610W        W44458  11.133   9.167  16.173 -0.4208 -0.1307  0.4280
27611W        W44459   2.698   8.242  11.705  0.0690 -0.3712 -0.0241
27612W        W44460   1.276   8.308   1.920 -0.0402 -0.1005 -0.1517
27613W        W44461   8.265  16.130   1.079  0.0370  0.1370  0.0140
27614W        W44462  13.081  15.704  16.194 -0.1195  0.0868 -0.0594
27615W        W44463  14.274  17.195   5.304 -0.1474 -0.1375  0.1921
27616W        W44464  17.452   3.014   2.837  0.3324  0.0036  0.2660
27617W        W44465   7.048  18.031  12.821 -0.0467  0.0674 -0.2609
27618W        W44466  11.253   4.284   4.558  0.1020 -0.2048  0.2482
27619W        W44467  14.092  17.544  12.814  0.1196  0.0473 -0.0990
27620W        W44468  15.203   2.997  14.596 -0.4257  0.1579  0.1441
27621W        W44469  12.209   0.058  13.698  0.2243 -0.0536  0.2931
27622W        W44470   0.318   7.069   2.498  0.0882  0.0321  0.0206
27623W        W44471   4.078  14.964  13.228 -0.1446  0.2428 -0.1544
27624W        W44472   6.710  12.503   3.579 -0.2188 -0.2488 -0.2956
27625W        W44473   7.838   5.927   3.365  0.2594  0.1640  0.1466
27626W        W44474  10.835  13.245   4.566  0.0334  0.1546  0.0156
27627W        W44475  12.622   2.657   0.847 -0.6573  0.0393  0.0920
27628W        W44476   7.672   4.405  12.380  0.1150 -0.0595 -0.1042
27629W        W44477   2.990  14.540   4.861 -0.0839  0.1676  0.2710
27630W        W44478   1.443   6.021   1.034  0.0744  0.0497  0.0797
27631W        W44479  14.752  12.733   1.571 -0.2429 -0.1632  0.1239
27632W        W44480  14.938   3.716  13.738  0.2529  0.1220  0.1809
27633W        W44481   6.947   1.021   3.447 -0.0839  0.1004 -0.0834
27634W        W44482   1.321  15.365   1.563 -0.0556  0.0347  0.1521
27635W        W44483   4.428  15.510  11.753  0.2085 -0.2120  0.3368
27636W        W44484   0.800   4.669   1.122  0.2538 -0.2663  0.1421
27637W        W44485   8.926   4.329   1.644 -0.1888  0.1221  0.0688
27638W        W44486   9.851   5.878   2.414 -0.1755 -0.0196 -0.0009
27639W        W44487  16.824   1.356   0.319  0.2018  0.0561 -0.0891
27640W        W44488   8.856   7.564   3.078 -0.0595 -0.0751  0.0970
27641W        W44489   6.358  15.372   0.330 -0.0006 -0.4966 -0.1405
27642W        W44490   1.611   9.518  16.111 -0.0099  0.1611 -0.1245
27643W        W44491   1.214  11.691   3.055 -0.0391  0.1898  0.4045
27644W        W44492  10.876   2.941  15.893 -0.0878 -0.0697 -0.2923
27645W        W44493  12.361   2.401   1.711 -0.2950  0.1925  0.0285
27646W        W44494   8.111  17.577   1.589  0.1235 -0.2682  0.1274
27647W        W44495   5.742   6.956   1.646  0.1321  0.0022  0.1683
27648W        W44496  12.920   0.319  11.539  0.0802  0.1121 -0.0479
27649W        W44497  10.706   5.872   3.085  0.0530 -0.2126  0.0910
27650W        W44498  15.050  11.149  11.152 -0.2039 -0.1391  0.0906
27651W        W44499  15.866   0.875  14.543  0.0590  0.3841 -0.1924
27652W        W44500  17.561   1.731   1.397  0.1608 -0.3246 -0.0911
27653W        W44501  15.345  11.371  13.726  0.0014 -0.2019 -0.2283
27654W        W44502  14.397  15.900   3.569 -0.1114 -0.1307 -0.3322
27655W        W44503  12.500   0.015   2.667 -0.2845  0.2378 -0.0233
27656W        W44504  14.358  15.250   4.818  0.2242  0.3130  0.2852
27657W        W44505  14.641   1.845  11.280  0.0197  0.2537 -0.0278
27658W        W44506  12.070  17.399   3.114  0.1763 -0.1909 -0.4136
27659W        W44507   7.992   1.771   1.473 -0.3970 -0.0895  0.1980
27660W        W44508  13.308   0.472  14.980  0.1719  0.0249 -0.1587
27661W        W44509  17.432  16.532  14.586  0.2307  0.1382 -0.0441
27662W        W44510  11.486   3.883  11.960  0.1792 -0.1977  0.0342
27663W        W44511   1.156   8.406  15.683 -0.0055  0.1266 -0.3090
27664W        W44512   4.064  10.144   2.763 -0.0811  0.0976  0.0626
27665W        W44513   0.546  10.336  13.281  0.1801 -0.0743 -0.1587
27666W        W44514  15.344   0.165   0.867 -0.1282 -0.0992 -0.3204
27667W        W44515   9.232   9.758   0.144  0.0342  0.1091 -0.2145
27668W        W44516  10.432   8.557  11.082  0.1001 -0.2301  0.1011
27669W        W44517  15.806   7.045   2.401  0.1499  0.2565 -0.5235
27670W        W44518   3.450   8.341   4.842  0.1461  0.0496 -0.1165
27671W        W44519   6.111  17.881   4.058 -0.3079 -0.1207  0.1653
27672W        W44520   2.026  13.134   1.006  0.2162  0.0598  0.0959
27673W        W44521   2.613  15.322  15.364 -0.0181  0.0507 -0.0121
27674W        W44522   5.226   7.609  12.227  0.2696 -0.1267 -0.0120
27675W        W44523   0.380   5.397  11.752  0.2146  0.2723 -0.0190
27676W        W44524  13.745   9.942   4.535 -0.2274 -0.0231 -0.1492
27677W        W44525   2.835   2.352   1.428  0.1369 -0.0268  0.1394
27678W        W44526   0.308   0.013  11.624  0.0179 -0.0487 -0.2350
27679W        W44527   0.785   8.360   1.896  0.0888 -0.1576  0.1338
27680W        W44528  12.026   2.629   3.405  0.1975 -0.1923 -0.1816
27681W        W44529   3.533  15.689   6.140  0.2977 -0.1042 -0.5248
27682W        W44530   6.573  11.920  12.003  0.0387  0.0680  0.1575
27683W        W44531  12.540   3.080  16.291  0.0019 -0.0722  0.0400
27684W        W44532  10.901   9.766  15.831  0.0444  0.0739 -0.2090
27685W        W44533   7.285  16.201   4.971 -0.2199 -0.0936 -0.0236
27686W        W44534   9.515   0.795  12.817 -0.0025 -0.1393  0.1360
27687W        W44535   3.471   3.007  13.378 -0.0393 -0.0320 -0.0892
27688W        W44536   1.969  17.278   5.909  0.1831  0.2620  0.0506
27689W        W44537  17.343   9.971  15.552 -0.0285 -0.1249 -0.2677
27690W        W44538   8.021   4.845   2.296  0.0211  0.2861  0.1464
27691W        W44539   5.522   5.271   4.776 -0.2382 -0.1782 -0.3277
27692W        W44540   8.472  16.553  13.448 -0.0908 -0.2569 -0.2772
27693W        W44541  10.194  13.997   2.462 -0.0971 -0.3094 -0.2326
27694W        W44542   1.105  12.793   4.082  0.3128 -0.1299  0.1984
27695W        W44543   8.770  11.947   4.669  0.1924  0.0872  0.1071
27696W        W44544   1.998   7.773   5.391 -0.0352 -0.0796  0.4748
27697W        W44545  11.358   5.816   1.345  0.1331 -0.0766 -0.0559
27698W        W44546   3.322  11.688   3.335 -0.1688  0.1707  0.0424
27699W        W44547   9.348   2.783  11.396  0.3088 -0.2358 -0.2740
27700W        W44548  15.016  12.588   3.166 -0.0239 -0.0930  0.0143
27701W        W44549  15.146  15.047   0.568 -0.1090 -0.1510 -0.0665
27702W        W44550  14.276  12.653  14.362  0.0187  0.0380  0.1145
27703W        W44551  11.881   5.460   6.025 -0.3182  0.1511  0.1242
27704W        W44552   8.067  17.705  15.867  0.0227  0.0760 -0.2302
27705W        W44553   2.717   7.364   5.988  0.0873  0.2230 -0.2892
27706W        W44554  16.222   9.864  13.021  0.1334  0.3408 -0.1142
27707W        W44555   5.079   7.008   4.009  0.2219  0.3146 -0.0156
27708W        W44556   8.355   9.232  15.918  0.2533 -0.0309  0.2819
27709W        W44557   7.282  16.558   6.007 -0.2553  0.0851 -0.1189
27710W        W44558   6.796   1.718   2.939 -0.1819 -0.1746 -0.3332
27711W        W44559  10.565  15.666  13.958  0.1445  0.1152  0.0772
27712W        W44560  16.698   6.105  13.554 -0.0766 -0.0129 -0.1454
27713W        W44561   9.886  12.389   4.774  0.1947  0.0441 -0.1062
27714W        W44562   3.578   7.390   3.179  0.1149  0.0006  0.1129
27715W        W44563   3.874  10.197   5.014  0.0714 -0.4657  0.0934
27716W        W44564  16.682  13.734  16.140  0.1795 -0.0858  0.1791
27717W        W44565   4.978  17.951  14.246  0.0528 -0.0969 -0.1361
27718W        W44566   5.301   7.561   0.189 -0.1738 -0.0542 -0.1574
27719W        W44567   1.584  11.437   3.289 -0.0603  0.0155  0.1071
27720W        W44568   9.614   5.315   2.221  0.1710  0.1184  0.0966
27721W        W44569   3.249  13.348  15.574  0.3121 -0.1563 -0.2403
27722W        W44570  16.182  13.248  14.352 -0.0047  0.0073 -0.0519
27723W        W44571  13.022  10.906  14.132  0.0247  0.0490  0.0715
27724W        W44572   8.228  10.343  14.186 -0.0379 -0.1046 -0.2874
27725W        W44573   4.518  11.388   2.331 -0.0476  0.3884  0.3569
27726W        W44574  13.149   4.039  11.413  0.2579  0.1313 -0.2425
27727W        W44575   4.446   9.166   1.864 -0.1004 -0.2899  0.0664
27728W        W44576  11.467   6.449  13.721 -0.0239 -0.0890  0.1382
27729W        W44577   0.912  12.986  14.230 -0.2140 -0.1764  0.0671
27730W        W44578  11.997  12.838   3.481 -0.2701  0.1170  0.0077
27731W        W44579  10.352   7.585  12.487 -0.1188 -0.1408 -0.4302
27732W        W44580  17.041   6.513  15.531  0.0696  0.1957 -0.2068
27733W        W44581   4.303   0.791   3.464  0.1302  0.1661  0.1687
27734W        W44582   1.269   0.663  12.630  0.0748 -0.1791  0.2170
27735W        W44583   8.515   4.891  15.291  0.0982  0.1876 -0.3085
27736W        W44584  17.928  14.988   2.669 -0.1408  0.0489  0.0724
27737W        W44585  15.506  16.622  11.870  0.1690  0.1642  0.3577
27738W        W44586   7.186   1.384   3.792  0.0013 -0.2106  0.3109
27739W        W44587   6.328  13.556   4.319  0.0796 -0.0986  0.1952
27740W        W44588  14.663   4.103   2.873 -0.0083  0.2541 -0.2080
27741W        W44589   5.533   7.980   0.338  0.0209  0.0153  0.1719
27742W        W44590  15.080   1.493  15.799 -0.2193 -0.0040 -0.0312
27743W        W44591  15.325  17.094   5.213 -0.2006 -0.0397  0.1585
27744W        W44592  16.352   0.724  15.681 -0.1062  0.1620 -0.0297
27745W        W44593  15.901   0.029   9.860 -0.0948  0.0960 -0.1579
27746W        W44594   5.511  10.467  15.947 -0.2639 -0.5371  0.2352
27747W        W44595   0.618   6.781  11.712 -0.2363 -0.0073  0.0273
27748W        W44596   3.443   6.680   0.101 -0.1616  0.0015 -0.2899
27749W        W44597   1.885  14.792   0.636  0.4050  0.2716 -0.3773
27750W        W44598   4.925   8.202  14.999 -0.1707  0.3048 -0.0263
27751W        W44599  16.146   2.513   3.829 -0.0760  0.1828 -0.0222
27752W        W44600  14.423  16.032   2.563  0.0152 -0.0273  0.4297
27753W        W44601  13.319   5.335   1.062  0.2336  0.2483 -0.2105
27754W        W44602  17.660  10.600   1.873 -0.1145  0.1120 -0.3686
27755W        W44603  11.578  13.900   0.195 -0.0116 -0.2714 -0.3189
27756W        W44604  17.682   8.879   4.476 -0.0863  0.0424  0.1455
27757W        W44605  16.480  16.026   1.095  0.0476  0.0518 -0.0707
27758W        W44606   2.540  13.977  14.093  0.2124 -0.6191 -0.1814
27759W        W44607  10.828  11.030   5.486  0.2266 -0.0561  0.1714
27760W        W44608   8.843  15.913  15.090  0.0248 -0.2238  0.0607
27761W        W44609   2.024   1.975  13.487 -0.2201  0.2720  0.1691
27762W        W44610   1.296  13.280  15.505 -0.1235  0.2522 -0.2711
27763W        W44611   0.989  11.087   0.099  0.2587  0.2318  0.0227
27764W        W44612   5.343   1.309   1.602  0.2051  0.1383 -0.0359
27765W        W44613   3.813   4.958  14.480 -0.0611  0.3084 -0.0680
27766W        W44614   8.926  12.980  16.305  0.1899 -0.0345  0.1261
27767W        W44615  11.560  11.413   4.566  0.1516 -0.2190 -0.2729
27768W        W44616   4.203  16.934  13.306 -0.0977  0.2344  0.1759
27769W        W44617   2.388   2.387  11.160  0.0134  0.1520 -0.0412
27770W        W44618   0.045   3.177  12.331  0.1322 -0.0156  0.3483
27771W        W44619   6.367  16.540   2.555 -0.4073 -0.1616  0.0525
27772W        W44620   6.259   6.627   0.384  0.1174  0.1407  0.0390
27773W        W44621  14.974   4.602  12.186 -0.3076 -0.1316  0.0469
27774W        W44622   7.345  16.222   1.566  0.2097  0.2288 -0.1721
27775W        W44623   4.632  11.421   3.804 -0.0763  0.1294 -0.2941
27776W        W44624   7.986   8.756  11.045  0.2711 -0.0985 -0.2982
27777W        W44625   4.586   3.782  11.523  0.2348  0.1815 -0.0290
27778W        W44626   8.377  15.693  12.097 -0.2095 -0.2636 -0.1294
27779W        W44627  11.411  12.245   1.034 -0.2203 -0.0215  0.0619
27780W        W44628  11.095  12.547  11.887  0.0654 -0.1149  0.0831
27781W        W44629  13.981   6.956  16.055 -0.2147  0.2153 -0.1586
27782W        W44630   3.874   4.740  13.249  0.0281 -0.2115 -0.0044
27783W        W44631  14.372  16.791   6.099  0.1200 -0.1164  0.1723
27784W        W44632  15.779  11.659   1.133  0.1835 -0.0039 -0.0892
27785W        W44633  14.074   9.710   5.214 -0.4947 -0.3251  0.0358
27786W        W44634   4.934  16.568   0.050  0.3449 -0.2083  0.1785
27787W        W44635   0.150  17.807  12.979 -0.1537 -0.2209  0.2055
27788W        W44636  16.411  17.038  13.022 -0.0680  0.3803  0.1282
27789W        W44637  16.217  11.632   2.333  0.3571 -0.1193  0.1409
27790W        W44638   0.260   0.871  12.600  0.1387  0.0115  0.1408
27791W        W44639  16.433   3.052   3.819 -0.2130  0.0426 -0.0476
27792W        W44640   8.719   0.178  16.325 -0.1727 -0.1418 -0.1209
27793W        W44641  13.840  14.134  14.313  0.0050 -0.2740 -0.1274
27794W        W44642  11.523  10.408  15.904 -0.1938 -0.2609  0.3042
27795W        W44643  11.270   6.011  15.788  0.0835  0.0212 -0.1761
27796W        W44644   9.814   5.078  13.497  0.0006  0.1129  0.3681
27797W        W44645  10.355  11.260   2.388  0.0089  0.3008  0.1426
27798W        W44646  13.258   4.470  14.101 -0.0492 -0.1462  0.2309
27799W        W44647  16.954  14.394   1.985 -0.1789  0.3680 -0.2488
27800W        W44648   0.894  14.473  15.872  0.2216 -0.0223  0.1455
27801W        W44649   6.517  13.375  12.978  0.1174  0.1394  0.1618
27802W        W44650   5.888  15.658  12.409 -0.2443  0.2106 -0.1417
27803W        W44651   9.362  14.046  14.480  0.1544 -0.3532 -0.2039
27804W        W44652  15.418  13.196   3.611 -0.1994 -0.0676  0.2015
27805W        W44653   1.750  17.022   2.736 -0.2152 -0.2152  0.2985
27806W        W44654  14.026   0.874  14.216  0.0643  0.0374 -0.0392
27807W        W44655  15.026  17.064  11.093  0.0158 -0.2399  0.1626
27808W        W44656  14.055  16.865  15.820  0.1359  0.4191  0.0991
27809W        W44657   0.630  10.676   0.064 -0.1677 -0.3902 -0.1312
27810W        W44658   2.286   3.569  16.151 -0.1359  0.1071 -0.0868
27811W        W44659  15.727  16.306   5.019  0.0074 -0.0723  0.1310
27812W        W44660  16.006  10.213   5.230 -0.0827 -0.2289 -0.0496
27813W        W44661   6.490  17.677   3.535  0.1729  0.1448 -0.1134
27814W        W44662  10.148  11.688   3.632  0.0996  0.0117 -0.1164
27815W        W44663  10.804  13.998  16.093  0.2905 -0.1403  0.0559
27816W        W44664   7.395   3.040   2.694  0.1401 -0.1472  0.1370
27817W        W44665   1.975   2.615   4.911 -0.0815 -0.0906 -0.3507
27818W        W44666   4.653   0.172   2.322  0.1774 -0.1578  0.2129
27819W        W44667   9.563   2.169  12.721 -0.0486 -0.0082  0.0925
27820W        W44668   0.854  11.159   4.524  0.2460 -0.2962 -0.3094
27821W        W44669   4.383  17.563  11.981 -0.1515 -0.1834 -0.1349
27822W        W44670   8.582   1.369  11.974 -0.1497  0.1905 -0.0459
27823W        W44671   4.974   3.093   1.165  0.0726  0.0879  0.0246
27824W        W44672   5.102  17.852   1.845 -0.3385  0.5469 -0.0058
27825W        W44673  14.498  16.395  15.592 -0.1973 -0.1301  0.1610
27826W        W44674   2.943  17.097  13.460 -0.1707  0.0303 -0.0260
27827W        W44675  13.573   3.697  14.633 -0.1464  0.0136 -0.2591
27828W        W44676   2.891  12.117   1.963 -0.0153 -0.1309  0.0237
27829W        W44677  17.445   1.437  14.484  0.0317 -0.1111 -0.0876
27830W        W44678  10.037   5.795  14.398 -0.1644 -0.2304 -0.0711
27831W        W44679   0.136   4.477   3.376  0.0773 -0.2267  0.1533
27832W        W44680   8.612   9.844   0.724  0.2569 -0.2421  0.0791
27833W        W44681   7.536   2.698  14.059 -0.1435  0.1903 -0.1019
27834W        W44682  12.655   5.968  16.249 -0.1635 -0.0886 -0.1405
27835W        W44683   0.002  14.790   0.849 -0.1070  0.1940  0.0783
27836W        W44684   1.319   6.472   1.599  0.1047  0.2520  0.0437
27837W        W44685  10.886  14.258   0.688  0.0616 -0.0162  0.5258
27838W        W44686   9.299   5.638   0.035 -0.0337  0.0291  0.0565
27839W        W44687   9.873   0.749  10.954 -0.0238 -0.2356  0.1374
27840W        W44688  11.134  10.833  14.258 -0.2024  0.1684  0.2656
27841W        W44689   3.437   5.495   2.510 -0.2160 -0.1160  0.0334
27842W        W44690  15.732   2.103   0.028 -0.1296 -0.3823  0.0641
27843W        W44691   0.248  10.150   1.713  0.0763 -0.2137 -0.2197
27844W        W44692  11.284   2.945  16.148 -0.1843  0.2963  0.1189
27845W        W44693   7.014  12.616   5.826 -0.0490 -0.0921  0.1414
27846W        W44694  11.618  17.580   0.794  0.0845 -0.4760  0.3784
27847W        W44695  14.162   6.195  15.582  0.1358  0.2186  0.0492
27848W        W44696   5.570   9.329   2.955 -0.0208  0.3270  0.0782
27849W        W44697   4.108   1.011  13.672 -0.1701  0.3471 -0.0237
27850W        W44698   8.996   2.690   1.742 -0.0106  0.0358  0.2026
27851W        W44699   9.208   1.592   3.856  0.2390 -0.2368  0.2441
27852W        W44700   9.134  10.701   5.230  0.0017 -0.2803  0.0551
27853W        W44701   9.531   0.125  12.127 -0.1373 -0.0641  0.2059
27854W        W44702   6.807  14.007   1.328 -0.0814 -0.0930 -0.3444
27855W        W44703  10.714  16.498  15.139 -0.1607  0.0643 -0.0586
27856W        W44704  10.989   7.346   4.104  0.2175  0.0173  0.1886
27857W        W44705  11.463  14.941   0.856  0.0811 -0.2499  0.1462
27858W        W44706  17.383   7.986   0.624 -0.1158 -0.3173  0.2076
27859W        W44707   7.005  16.950   2.457  0.0272  0.4272 -0.0614
27860W        W44708   8.510   2.270   5.121 -0.0256 -0.3033  0.3711
27861W        W44709  14.415   7.093   1.911  0.1245  0.2551 -0.3687
27862W        W44710   1.630  16.948   3.910  0.0884  0.0177 -0.1120
27863W        W44711  13.579   7.666   4.384  0.0169 -0.3473 -0.0138
27864W        W44712   6.151   4.427   2.963  0.2156 -0.0084 -0.4998
27865W        W44713  15.328   5.306   2.099  0.0330  0.1706 -0.3048
27866W        W44714   2.842  16.651  14.661 -0.1096 -0.1090 -0.1888
27867W        W44715  15.178  11.090   3.903  0.0876 -0.1117  0.5032
27868W        W44716  11.500  17.699  12.311 -0.0918 -0.0373 -0.3141
27869W        W44717  12.461  15.687  13.090  0.0235  0.0452 -0.0157
27870W        W44718  14.190   6.486   0.442  0.0309 -0.2829 -0.0004
27871W        W44719  13.262   2.606  15.825 -0.0036  0.1206 -0.1588
27872W        W44720   5.347   4.866  12.941  0.0893 -0.2035 -0.1245
27873W        W44721  11.790  11.767  12.175  0.0930 -0.0803 -0.2339
27874W        W44722   6.785   7.440   0.931  0.0571 -0.2219 -0.0389
27875W        W44723  14.826   1.124  16.009  0.2386 -0.0138  0.2522
27876W        W44724  10.601   2.422  15.852  0.0089 -0.1068 -0.2517
27877W        W44725   8.743   6.025  13.174 -0.1642 -0.0022 -0.0315
27878W        W44726   1.630  15.903  14.943  0.1253 -0.1550 -0.1464
27879W        W44727   2.584   3.849   4.598  0.0125 -0.2198 -0.2199
27880W        W44728  16.393  15.599  12.654  0.1039  0.1340 -0.0449
27881W        W44729   4.198  15.580   5.381 -0.1258  0.5270  0.3474
27882W        W44730  11.320  13.564   1.028  0.1665  0.4140  0.0722
27883W        W44731   4.309   7.851   1.903 -0.1422 -0.1482 -0.0343
27884W        W44732  12.466  14.144  14.553  0.2631 -0.2587 -0.0927
27885W        W44733   6.064   2.265  16.073  0.0932  0.1412 -0.2518
27886W        W44734  15.933   3.135   5.734 -0.0737  0.0936 -0.0656
27887W        W44735  12.037   8.645  13.187 -0.0431 -0.2940  0.0616
27888W        W44736   9.359  10.546   3.908 -0.1470  0.0139 -0.2466
27889W        W44737   4.631   1.122  12.776  0.2835  0.1009 -0.1518
27890W        W44738   8.350  17.288  12.943  0.2874  0.0614  0.1160
27891W        W44739  10.715  15.856   4.371 -0.0110  0.0334 -0.0123
27892W        W44740  11.026  17.510  11.490 -0.1922 -0.1505 -0.3297
27893W        W44741  17.516   0.482   3.339 -0.2541  0.1614 -0.0513
27894W        W44742  15.355   9.951   2.648 -0.1398  0.0153  0.1897
27895W        W44743   9.189   0.466   4.521  0.0261  0.0189  0.0750
27896W        W44744   5.412   5.693  13.283 -0.1427 -0.0740 -0.0315
27897W        W44745  15.855   8.394  11.901  0.0411 -0.3898  0.1604
27898W        W44746  17.515   1.203  15.999 -0.1525 -0.1078  0.2774
27899W        W44747  17.588  12.737   4.779 -0.0588  0.0385 -0.1600
27900W        W44748   0.617  10.796  15.328  0.3350 -0.0366  0.0945
27901W        W44749  12.154   9.796   1.509  0.0928 -0.0522  0.2600
27902W        W44750  10.589   0.627   1.120 -0.0575 -0.4931  0.0293
27903W        W44751   3.861   4.256   2.133 -0.0645 -0.0451  0.0641
27904W        W44752   3.591   3.838   3.822  0.1970 -0.2139 -0.1499
27905W        W44753  12.958   4.392   1.403 -0.6555  0.1513  0.0850
27906W        W44754  10.237  13.171   2.089 -0.1398  0.0021  0.0432
27907W        W44755  14.022   1.937   2.642 -0.2689  0.0549  0.2096
27908W        W44756   0.525   5.900   0.706 -0.0850  0.1581  0.1028
27909W        W44757  17.043   3.104  14.613  0.2116 -0.3343 -0.1465
27910W        W44758  17.382  11.265   0.210 -0.2224  0.1691  0.0426
27911W        W44759   9.962  14.378   2.097  0.1952  0.0697  0.0041
27912W        W44760  14.458  17.198   3.445 -0.0731 -0.0748 -0.1885
27913W        W44761   5.743  10.819  13.783 -0.0576 -0.2738 -0.1499
27914W        W44762  14.045   6.811  12.490  0.1612  0.0694 -0.3435
27915W        W44763  10.781  10.962  11.960 -0.3484 -0.1961  0.2105
27916W        W44764   6.107  11.620  12.179  0.1274  0.0779 -0.0663
27917W        W44765   5.682  13.347  13.502 -0.1421  0.1066  0.0435
27918W        W44766   1.959  14.831  12.556 -0.0803 -0.1840  0.1917
27919W        W44767   7.966   7.094   3.120  0.1618 -0.0210 -0.2224
27920W        W44768  14.579  16.954  14.037  0.0377 -0.1558  0.0726
27921W        W44769  10.926  11.940  12.067  0.0015  0.0803 -0.0622
27922W        W44770  16.299   3.925  12.508  0.0962  0.2032  0.2746
27923W        W44771   1.619  13.561   0.072 -0.0580  0.0368 -0.1623
27924W        W44772   4.165   4.826  12.117  0.1908  0.0236  0.2097
27925W        W44773   1.586   0.702  14.765 -0.0270  0.1012  0.1893
27926W        W44774   5.820  12.289  15.468  0.1829 -0.2547 -0.0288
27927W        W44775  17.647   5.515  12.392  0.0039  0.2266 -0.0905
27928W        W44776  14.189  10.808   1.165 -0.0589 -0.0502 -0.0450
27929W        W44777   3.838   5.834  13.214 -0.5092 -0.1605 -0.0222
27930W        W44778  14.537   5.976   1.694 -0.0952 -0.4474 -0.1223
27931W        W44779   5.173  10.703  12.435 -0.2352 -0.0489 -0.0924
27932W        W44780   5.352   8.530   2.338 -0.2202 -0.1714  0.1265
27933W        W44781   3.220   9.707   4.031  0.0484 -0.1848 -0.1777
27934W        W44782  15.623  15.115   4.136 -0.0308  0.1755  0.0825
27935W        W44783   6.328   4.154   4.780 -0.0878  0.2608  0.1492
27936W        W44784   8.791   0.940  11.750 -0.1264  0.0602 -0.2310
27937W        W44785   2.625   5.964   1.613  0.0941  0.0006  0.2717
27938W        W44786   6.680  16.256   0.477 -0.2285 -0.1115  0.1641
27939W        W44787  10.463   3.300  14.009 -0.0740 -0.1514  0.0099
27940W        W44788   6.980  15.694   1.580  0.0398 -0.0708 -0.1236
27941W        W44789   8.881  16.732   2.576  0.0587 -0.0621  0.0688
27942W        W44790   6.597  16.668  14.949 -0.2280 -0.0392 -0.2212
27943W        W44791   5.686  15.338  14.435  0.1212 -0.3169 -0.1600
27944W        W44792   6.724  13.579  10.862  0.2747 -0.0229  0.2723
27945W        W44793   0.995   8.818  16.032  0.0825  0.1229  0.2375
27946W        W44794   1.907  17.332  12.494 -0.2424  0.0874 -0.0458
27947W        W44795   1.676   0.449   2.427  0.4491  0.0773  0.2035
27948W        W44796  12.413   7.089  11.932  0.1462  0.2467  0.0637
27949W        W44797   6.232   6.174   1.949 -0.4568  0.1063 -0.0192
27950W        W44798  16.777   6.247   2.435 -0.3085 -0.2346 -0.2475
27951W        W44799  12.429   5.222   4.229 -0.0781  0.0278  0.0156
27952W        W44800   2.768  13.796   3.503  0.0479 -0.4474 -0.1585
27953W        W44801   5.005  12.499  13.914 -0.2919 -0.3188 -0.2419
27954W        W44802   8.712  16.470  14.438  0.1982  0.0239  0.0545
27955W        W44803   7.147   1.430  12.046 -0.0399  0.3411  0.1774
27956W        W44804   5.883   8.651  16.028  0.0075 -0.1344  0.3320
27957W        W44805   2.632   7.701   4.722  0.0797  0.2050 -0.0041
27958W        W44806   7.648   6.475  11.629 -0.0833  0.2777  0.3046
27959W        W44807  18.072   9.725   1.905 -0.0431 -0.2755 -0.0518
27960W        W44808  13.857  11.740   2.034 -0.0328 -0.0886  0.0566
27961W        W44809   1.840  17.263   3.614 -0.0007  0.1773 -0.2099
27962W        W44810   4.342  15.827   6.336  0.1366  0.0517 -0.1833
27963W        W44811   2.261  15.480   4.727 -0.1560 -0.2738  0.0131
27964W        W44812   5.932   1.314   3.223 -0.0527 -0.0559  0.0626
27965W        W44813  10.768   1.832   3.425  0.3337  0.2059 -0.1450
27966W        W44814  16.016   8.852   2.066  0.0911 -0.2111  0.1483
27967W        W44815   1.867  17.626  12.973 -0.0275 -0.0779  0.0494
27968W        W44816   6.780   1.432  13.003  0.3538  0.2208  0.0946
27969W        W44817   6.708   6.827   0.217 -0.0522  0.0680  0.2420
27970W        W44818  11.599  10.855  11.863  0.2219 -0.1506 -0.0480
27971W        W44819  16.695  15.188   4.247  0.0177  0.0029  0.1519
27972W        W44820  10.587   1.359   0.248 -0.2989  0.2048  0.0535
27973W        W44821   0.895   7.679   3.019  0.0406  0.2223  0.0622
27974W        W44822   1.604   8.699   1.797 -0.1988  0.1297 -0.1670
27975W        W44823   6.396  13.347  15.742 -0.1275  0.0526 -0.2129
27976W        W44824  16.345   7.214  13.164 -0.1219 -0.1671  0.2890
27977W        W44825   0.019   0.625   1.202  0.0156  0.1165 -0.1434
27978W        W44826   7.257   8.334  11.183 -0.1001  0.0190 -0.1504
27979W        W44827   3.464   8.040  15.641 -0.3037  0.1247  0.0997
27980W        W44828   9.077   2.961   2.500  0.3081  0.1759  0.0969
27981W        W44829  10.783  14.277  13.837  0.0958 -0.0987 -0.0981
27982W        W44830   0.541   2.128   3.117 -0.0489  0.0314 -0.1953
27983W        W44831   0.328   8.814  11.630  0.0125  0.0125  0.3186
27984W        W44832   4.202   8.475   3.068  0.0194 -0.0992 -0.1127
27985W        W44833   7.713  14.491   1.483  0.2658 -0.0165 -0.2965
27986W        W44834   9.681   8.385  15.526  0.2013  0.1161 -0.0476
27987W        W44835   7.085  12.625   2.593 -0.1749  0.0479  0.0604
27988W        W44836  15.828   2.582  11.421  0.0497 -0.0272 -0.0991
27989W        W44837   5.117   0.679   4.612 -0.1348  0.1292 -0.0822
27990W        W44838   6.234   6.556  14.870 -0.2372  0.2442  0.0916
27991W        W44839   2.169   7.122   3.853  0.2852 -0.3213  0.4207
27992W        W44840   5.232   8.055  12.694  0.1121  0.2211  0.0050
27993W        W44841   3.687   3.561   2.476  0.1644  0.0786  0.0203
27994W        W44842  12.289   3.656  11.031 -0.4721 -0.3206 -0.0311
27995W        W44843  10.688  13.198  12.324 -0.1627 -0.4748  0.0725
27996W        W44844   0.265  16.981   4.684  0.0955  0.2794  0.1595
27997W        W44845   7.324  12.598  16.140 -0.0911  0.3983 -0.2005
27998W        W44846   7.043   9.242  16.041  0.3968 -0.1495  0.0335
27999W        W44847   9.814   6.917  11.365  0.5453  0.1287  0.0429
28000W        W44848   3.280   3.160   0.313 -0.2757  0.0796  0.2194
28001W        W44849   5.944  16.297  13.790 -0.3283 -0.3183 -0.2686
28002W        W44850  12.400   1.523   3.485  0.0700 -0.1191 -0.0833
28003W        W44851   1.082   5.634   1.208  0.1116 -0.0482  0.2006
28004W        W44852   7.532  10.096   3.117 -0.2990  0.0333 -0.0346
28005W        W44853   0.254  15.882   0.977 -0.0241 -0.2448 -0.1235
28006W        W44854   8.173   9.313   4.640 -0.2365 -0.0053 -0.2948
28007W        W44855   3.874   4.508   1.722 -0.0987 -0.1457 -0.1460
28008W        W44856   8.422  17.306  15.489 -0.3368  0.0215 -0.0437
28009W        W44857  16.251  13.151   0.542  0.0159  0.0188 -0.0337
28010W        W44858   1.882   2.038   2.738 -0.0002  0.1386  0.1718
28011W        W44859  17.078   2.696  12.856  0.0658  0.0354 -0.1308
28012W        W44860  16.486   9.092   2.945 -0.2188 -0.2427  0.1019
28013W        W44861  11.640  16.672   4.611 -0.0347  0.0101  0.0136
28014W        W44862  10.586   4.226  15.821  0.0449 -0.1069  0.0678
28015W        W44863   1.963   7.350   4.229 -0.1612 -0.3157 -0.1392
28016W        W44864   7.601  14.895   1.157  0.1847 -0.1861 -0.1433
28017W        W44865  17.402  12.411  15.280  0.1294 -0.1505 -0.0872
28018W        W44866   6.920  15.110   1.774  0.0642 -0.2362 -0.0039
28019W        W44867   9.953  14.843   4.722  0.0961 -0.0401  0.0299
28020W        W44868   0.762   2.030   1.255  0.0761  0.1264 -0.3061
28021W        W44869   9.064  12.596   0.280 -0.0253 -0.2322  0.1321
28022W        W44870  11.002   1.023  12.416  0.1312 -0.0003  0.0373
28023W        W44871  14.983   1.363   3.152  0.0237  0.1518  0.2258
28024W        W44872   2.959   9.026  10.349  0.0949  0.0212 -0.1809
28025W        W44873  11.472  16.666  12.416  0.1176 -0.4216  0.0094
28026W        W44874  15.862   3.763   2.388 -0.1757  0.1809 -0.0025
28027W        W44875   2.497   2.436  15.074 -0.3029 -0.0831 -0.1488
28028W        W44876  10.448  17.234   2.589 -0.2239 -0.0820  0.1545
28029W        W44877   3.100   3.321  13.534 -0.0522 -0.0352  0.3051
28030W        W44878   9.257   8.899   3.339  0.1631 -0.0072 -0.1134
28031W        W44879   6.765  16.339  14.089  0.0845 -0.1104  0.0177
28032W        W44880   2.980  16.919   4.894 -0.0612  0.2730  0.0878
28033W        W44881  10.812  13.332  12.849  0.2997 -0.1394  0.0317
28034W        W44882   0.552   5.218  13.949 -0.0022  0.0614  0.3213
28035W        W44883   1.053   5.852  16.077  0.1647 -0.1052  0.2509
28036W        W44884   7.184   2.810   0.453 -0.0682 -0.1317  0.2621
28037W        W44885  16.520   1.850  12.176  0.4751  0.1395 -0.1148
28038W        W44886  17.373   3.037   4.931 -0.0665 -0.0483 -0.0781
28039W        W44887   8.385   4.990  14.025  0.0359  0.3727  0.1062
28040W        W44888   9.596   7.261  12.812 -0.2208  0.0753 -0.1978
28041W        W44889  16.322   2.073   2.767  0.0683 -0.0845  0.2467
28042W        W44890   5.791   8.305  14.847 -0.2343  0.1950 -0.0263
28043W        W44891  12.023   4.651  10.079  0.0909  0.3116  0.2063
28044W        W44892   4.925  12.308   3.010 -0.0308  0.0484 -0.2837
28045W        W44893   3.282  15.179  11.198 -0.1253  0.0179  0.1313
28046W        W44894   7.203   5.689  11.939  0.0176  0.0183 -0.4612
28047W        W44895   6.935  11.002  15.416 -0.1705 -0.0423  0.3112
28048W        W44896  12.477   1.101  10.026  0.0019  0.1680  0.2123
28049W        W44897  15.875   1.630   2.590 -0.3911 -0.1548 -0.1767
28050W        W44898  13.718  13.133   5.203 -0.0490  0.1418 -0.1887
28051W        W44899   2.487   3.962  14.035  0.0828  0.2548 -0.0082
28052W        W44900  10.909   1.509   1.678  0.0989 -0.0728  0.0885
28053W        W44901  14.922   6.980   3.661 -0.2443  0.1417 -0.2506
28054W        W44902   3.879   5.445   5.155 -0.2673  0.2723 -0.1507
28055W        W44903   5.456  15.983  15.256  0.0858 -0.1228  0.2014
28056W        W44904  14.372   3.273   1.529  0.3526 -0.0401 -0.1204
28057W        W44905   2.515   5.264   5.380  0.0247 -0.0198 -0.0629
28058W        W44906   2.792  15.330  14.199 -0.2411 -0.0342 -0.2675
28059W        W44907   0.290   9.358  12.637  0.1090 -0.2291  0.1574
28060W        W44908  16.398  11.727   3.761  0.0575  0.1629 -0.0103
28061W        W44909   8.839  15.405  15.071 -0.0603 -0.2264  0.2415
28062W        W44910  11.055  15.292   1.523  0.0275  0.0859 -0.1534
28063W        W44911   6.527   8.335   2.708 -0.0903 -0.0619 -0.0582
28064W        W44912  17.560  17.709   3.833  0.1707  0.1233 -0.1143
28065W        W44913   9.248   8.523   4.332  0.0787 -0.3187 -0.0275
28066W        W44914  13.579  10.242   3.275 -0.0447  0.2279 -0.0786
28067W        W44915  17.836  14.290  11.278 -0.1227  0.0308  0.1740
28068W        W44916   1.148   0.436   0.976 -0.1764 -0.1861 -0.0226
28069W        W44917   5.609   3.282  11.918 -0.0499  0.2380  0.1038
28070W        W44918  13.034  16.168  13.581 -0.1792 -0.1555  0.2138
28071W        W44919   5.440   3.152   1.411 -0.0208  0.0638  0.1590
28072W        W44920   5.774  10.432   3.871 -0.2977 -0.2029  0.0846
28073W        W44921  14.194  15.093   3.467 -0.1736  0.2068  0.0110
28074W        W44922  13.557   7.726   1.932  0.1469  0.2674 -0.1677
28075W        W44923  17.162  17.431  13.530 -0.1954 -0.3338 -0.3643
28076W        W44924   3.916   6.109  11.886  0.0749 -0.0236  0.1737
28077W        W44925  16.437   2.167  15.799  0.2599 -0.0083 -0.1476
28078W        W44926  14.805   4.629  14.846  0.3048  0.2935 -0.3429
28079W        W44927   2.044  15.196  11.268  0.3487  0.0482 -0.4904
28080W        W44928  11.092  12.002  13.787 -0.1327 -0.0019  0.0239
28081W        W44929  12.943  14.531  14.991 -0.0975 -0.2051  0.0721
28082W        W44930  12.620  15.780  15.580 -0.4054 -0.0071 -0.1777
28083W        W44931  12.632  14.417   0.351  0.1353 -0.0058 -0.2220
28084W        W44932   3.332   2.762   5.831  0.0860 -0.3030 -0.0758
28085W        W44933   4.707  17.016  16.169 -0.1506 -0.1080 -0.3016
28086W        W44934  16.381  12.696  14.209 -0.3738  0.0006  0.3536
28087W        W44935   3.878   4.618   4.158 -0.1100  0.0140  0.2391
28088W        W44936   3.488   4.745   5.072  0.3768 -0.3755 -0.4023
28089W        W44937  14.087  17.326  15.206  0.0017 -0.0293  0.0846
28090W        W44938   3.107   3.760   4.012 -0.0183 -0.0700  0.0637
28091W        W44939   9.457  12.026   3.143  0.1468  0.0479  0.2592
28092W        W44940  12.527  18.059  13.276  0.1751  0.1625 -0.2784
28093W        W44941   6.709  15.847  13.054 -0.2436  0.0818 -0.2833
28094W        W44942   3.545   8.604  16.234  0.1373  0.1232 -0.0779
28095W        W44943   2.459  10.197  10.706 -0.4057 -0.2458  0.1786
28096W        W44944  11.580   3.688   1.148  0.3666  0.1037  0.1047
28097W        W44945   8.133   7.250   0.417 -0.3405 -0.2449  0.1098
28098W        W44946   8.360  15.450   2.255  0.0564  0.0444  0.0189
28099W        W44947  13.338   7.456  11.732  0.1237  0.1088  0.2564
28100W        W44948   6.296  11.554   2.909  0.0733 -0.1838  0.2677
28101W        W44949   3.550  16.462  14.573 -0.3171 -0.1580 -0.1697
28102W        W44950  16.857  10.559  12.992 -0.3645 -0.0861  0.0409
28103W        W44951   9.072  11.104  15.118  0.0114  0.1358  0.1186
28104W        W44952   2.468   3.495   3.223  0.1424  0.2285 -0.0263
28105W        W44953  15.822  15.965   0.066 -0.2304  0.2702 -0.0590
28106W        W44954  11.887   3.519  14.621 -0.0103  0.0462 -0.2880
28107W        W44955   5.544   2.582   1.717  0.1915 -0.0455  0.2723
28108W        W44956   1.105   4.668   5.268 -0.1276 -0.0645  0.0813
28109W        W44957   1.882  12.529  15.689  0.1485 -0.0297  0.0636
28110W        W44958  10.482  13.588  13.299  0.3095 -0.0557  0.0719
28111W        W44959   8.852   1.575   3.243 -0.0323  0.2143  0.1848
28112W        W44960   6.308   1.898   2.761  0.0297 -0.0749 -0.0138
28113W        W44961  11.291  17.090   4.918 -0.2629  0.4339  0.1114
28114W        W44962  17.144  15.398   4.227  0.3510  0.2523 -0.1244
28115W        W44963  16.048   4.425   1.748 -0.1924  0.1038 -0.2478
28116W        W44964  10.476  13.411   5.353 -0.1145  0.1066  0.1969
28117W        W44965   5.566   0.905   1.401  0.2672  0.1086  0.1885
28118W        W44966   3.805  15.908   3.321  0.2288  0.2986 -0.2511
28119W        W44967  17.294  15.772  14.948  0.1813  0.2940  0.2763
28120W        W44968  17.266   9.809   2.591  0.1004 -0.0963 -0.2231
28121W        W44969   5.408   2.483  11.840 -0.1750  0.3101  0.0018
28122W        W44970  11.805  12.167  12.579 -0.0517  0.0174  0.0785
28123W        W44971  13.028  15.784  11.495 -0.4793  0.0067 -0.1299
28124W        W44972  12.088  13.335   5.406  0.0267 -0.1859 -0.0692
28125W        W44973  17.282  10.957   5.079 -0.1261 -0.3391 -0.1745
28126W        W44974   0.475  15.575  13.314  0.1879  0.0999  0.0019
28127W        W44975   4.383   4.921   3.579 -0.0330 -0.0025  0.2236
28128W        W44976  11.619   7.291  11.932  0.0026  0.2296 -0.1398
28129W        W44977   7.516   0.631  12.085 -0.2664  0.0841  0.0207
28130W        W44978   5.648   8.063  14.282  0.0462  0.1333 -0.0842
28131W        W44979   7.552   3.120   3.445  0.2322  0.3257  0.0340
28132W        W44980   8.039  10.772   3.061  0.3943 -0.0924 -0.2537
28133W        W44981   3.477  13.518   5.395  0.0616  0.0100  0.0284
28134W        W44982  17.845   7.659  15.842  0.0059 -0.0576  0.1584
28135W        W44983   8.262   9.323   3.312  0.1480  0.0376 -0.1694
28136W        W44984   3.068  17.024   0.115 -0.2961  0.0398  0.0870
28137W        W44985  12.178  13.360  14.424  0.0078 -0.0467 -0.1899
28138W        W44986  10.258   1.780   3.284 -0.2683 -0.1395 -0.3665
28139W        W44987  10.203  13.988  15.332  0.0496 -0.1941  0.0505
28140W        W44988  14.969  10.007   5.317  0.3072  0.2418 -0.1406
28141W        W44989   5.746  11.448  12.983  0.0121  0.2057  0.2045
28142W        W44990  16.241  13.127   1.054 -0.2589 -0.1328 -0.0461
28143W        W44991   3.099  13.649  13.710  0.2581 -0.0608  0.2293
28144W        W44992   5.426  14.890  11.511  0.1180  0.0626  0.0139
28145W        W44993  14.462   9.843   1.326 -0.5711 -0.0065  0.2973
28146W        W44994  10.203   9.727   3.815  0.1900  0.1386 -0.1201
28147W        W44995   8.925   4.238   0.620  0.0091  0.0300 -0.0174
28148W        W44996   2.673   1.322   0.992  0.0323  0.1452  0.3603
28149W        W44997  10.124  10.667   1.421  0.0663  0.1316 -0.0951
28150W        W44998   2.103   9.548   4.831  0.0779 -0.2583  0.1425
28151W        W44999   5.544   7.808   4.132  0.1755 -0.0210 -0.2102
28152W        W45000   5.141  13.166  11.299 -0.3533  0.0444 -0.2311
28153W        W45001   3.966  11.791   4.523  0.0363 -0.0055  0.0407
28154W        W45002   1.118   8.851   4.927  0.2793 -0.0930  0.1807
28155W        W45003   5.989   7.158  15.400  0.1433 -0.0204 -0.2346
28156W        W45004  16.927  16.267   1.759 -0.0724 -0.2266 -0.0498
28157W        W45005   5.268   9.739   0.756  0.2347  0.1531 -0.1752
28158W        W45006  10.125   7.634  13.864 -0.1666 -0.0735  0.2987
28159W        W45007   7.126  15.498   4.664  0.0419  0.3336 -0.0262
28160W        W45008   8.739  12.988  14.103  0.0017 -0.1952 -0.1804
28161W        W45009   1.066   8.632   1.487  0.0610  0.0475 -0.1374
28162W        W45010   6.090   9.885  13.860  0.1263 -0.1774 -0.2376
28163W        W45011   1.170   8.893   4.405  0.3771 -0.2292  0.1132
28164W        W45012  11.999  15.099   0.942 -0.1234 -0.0496  0.1318
28165W        W45013  12.637  15.934  11.781  0.0920 -0.1001 -0.2301
28166W        W45014  14.988   4.938  15.141 -0.0145 -0.1697  0.1687
28167W        W45015  15.356   9.837  12.814  0.0742  0.0271 -0.0650
28168W        W45016   0.407  16.538   3.016 -0.0171 -0.3214 -0.0322
28169W        W45017  18.022   5.192  14.720 -0.0559 -0.5279  0.0668
28170W        W45018  10.648   9.149   2.108 -0.3444 -0.3054  0.2356
28171W        W45019  13.191   1.040   2.763 -0.0224  0.1346 -0.0361
28172W        W45020  10.923  14.077   3.728  0.0310  0.4196  0.1027
28173W        W45021   4.933   8.934  11.137  0.0938  0.0450  0.2094
28174W        W45022  15.118  18.016  12.440  0.2866  0.0288 -0.2345
28175W        W45023  16.401   1.043  16.142  0.0248  0.0600 -0.0148
28176W        W45024   5.594  12.161  14.090  0.1735  0.1309 -0.1116
28177W        W45025   0.095   7.686  11.110 -0.3852 -0.1064  0.0201
28178W        W45026  13.862  16.530  14.059  0.2346 -0.1135 -0.1037
28179W        W45027   6.944   4.415  12.589 -0.1494  0.0095  0.0098
28180W        W45028   3.467  13.058   0.486 -0.3288 -0.0678  0.2065
28181W        W45029   4.738   2.959   0.006  0.2139 -0.0214 -0.3367
28182W        W45030  13.352   7.518   2.736  0.1999 -0.2189 -0.0078
28183W        W45031  13.195   9.672   2.726  0.0850  0.1022  0.0443
28184W        W45032   1.752   9.899  12.836 -0.3110 -0.1290  0.0646
28185W        W45033   7.812  11.517  13.386  0.1544  0.0607  0.1122
28186W        W45034   6.728   7.026   1.672  0.1873 -0.0369  0.3466
28187W        W45035  17.357  13.159  12.464  0.1197 -0.1786  0.1919
28188W        W45036  14.706   3.861   0.495  0.1940 -0.0820  0.1760
28189W        W45037  14.013  12.135   0.727  0.1045  0.1169 -0.2942
28190W        W45038   4.243   7.122   4.479 -0.1544 -0.1636  0.6032
28191W        W45039   3.828  17.135  12.891  0.0276  0.0022 -0.2538
28192W        W45040   9.721  14.546   1.158  0.0749  0.2851 -0.1031
28193W        W45041   5.949  16.600  11.576  0.2404 -0.0939  0.1368
28194W        W45042   8.542   6.164  15.353  0.2464  0.0791  0.0034
28195W        W45043  14.687  17.315   2.385 -0.2030  0.0512 -0.0190
28196W        W45044   6.711   7.891  11.812 -0.3012 -0.0456 -0.4119
28197W        W45045   0.769   7.347   0.419  0.0293 -0.3608 -0.1966
28198W        W45046   3.395  12.130   0.295 -0.0674 -0.5227 -0.3841
28199W        W45047   8.836   5.506  13.109  0.1064 -0.2258 -0.0068
28200W        W45048  12.852   3.245   1.889  0.3014 -0.1485  0.1484
28201W        W45049  17.476   0.280   2.466  0.3398 -0.0251 -0.0674
28202W        W45050   0.058  12.069   0.151 -0.0238 -0.0289  0.0628
28203W        W45051   1.774   9.070  13.933  0.2771  0.3914  0.2323
28204W        W45052   5.867  14.006   4.569  0.2497 -0.2564  0.0586
28205W        W45053  12.555  13.320   2.684 -0.0126 -0.1083 -0.1781
28206W        W45054   2.761  12.103   0.949 -0.0102 -0.2206  0.0564
28207W        W45055   4.470  10.241  13.431  0.1349 -0.1264  0.1246
28208W        W45056   3.870   2.609  16.087 -0.0892  0.0138 -0.2684
28209W        W45057   6.651   6.482  12.008  0.2352 -0.1358 -0.0442
28210W        W45058  17.387   2.927  16.211 -0.1060  0.0296  0.2212
28211W        W45059  15.705   6.805  13.860 -0.1971 -0.1485 -0.0426
28212W        W45060   0.657  10.012   2.505  0.2489  0.0001  0.3407
28213W        W45061   7.084  12.958   1.067 -0.0606 -0.0923 -0.0413
28214W        W45062  14.058  10.429   0.887 -0.0054 -0.0201 -0.1786
28215W        W45063   2.044   5.460   1.649 -0.1865  0.0871 -0.2145
28216W        W45064   3.428   4.987  13.429 -0.0721 -0.1546 -0.0325
28217W        W45065   9.254  16.239   0.454  0.1472 -0.4272 -0.1310
28218W        W45066  17.950   8.381  10.640 -0.0200  0.0024 -0.0460
28219W        W45067  17.751  13.936  15.795  0.1109 -0.1641  0.3416
28220W        W45068  13.455   5.743  11.551  0.3434  0.0574  0.1243
28221W        W45069  16.528  17.362   0.987  0.0852 -0.2044 -0.1333
28222W        W45070   2.754  10.794  12.737 -0.1039  0.0418  0.0257
28223W        W45071   6.951  12.432  14.191  0.1152  0.0944  0.2506
28224W        W45072  16.586   3.244   1.789  0.2862  0.1377 -0.1105
28225W        W45073   4.363  15.109  11.496 -0.0211  0.1825  0.2111
28226W        W45074   6.919  12.695   4.378  0.1665  0.0091  0.1876
28227W        W45075  13.709  15.162   1.999 -0.0459  0.0905 -0.1951
28228W        W45076  14.272  14.870  13.909  0.1287  0.1352 -0.1992
28229W        W45077   8.280   0.101  11.010 -0.1001  0.0448 -0.1329
28230W        W45078  13.741  12.909  11.361 -0.3558 -0.1455 -0.0742
28231W        W45079   3.570   7.893   4.540 -0.1062 -0.1887 -0.1112
28232W        W45080   0.406   3.659  14.730 -0.1400  0.1347 -0.1461
28233W        W45081   5.915  17.025  15.987 -0.0932 -0.0109  0.2589
28234W        W45082   4.304   7.658  13.764 -0.2022  0.2889 -0.3245
28235W        W45083   9.800   7.277  14.898  0.0700  0.2626 -0.0783
28236W        W45084   6.571  14.146   4.309  0.2537 -0.4100 -0.0553
28237W        W45085   6.502  11.342  15.659  0.0920 -0.2285 -0.1025
28238W        W45086  16.613  13.555   2.698  0.0920  0.2477 -0.0941
28239W        W45087  14.092   1.390  13.376 -0.2564  0.0873  0.2806
28240W        W45088   6.271  10.081   2.622  0.0279 -0.1675  0.1341
28241W        W45089  12.034   6.382   4.958 -0.0492  0.2064 -0.3511
28242W        W45090   4.561  12.931   0.622  0.0283 -0.2405 -0.0021
28243W        W45091   4.086   1.872   0.579  0.4201  0.0030 -0.1689
28244W        W45092  14.277  17.554  11.328  0.0684 -0.0371 -0.0575
28245W        W45093   5.173   2.972  13.195  0.0488  0.2458 -0.2493
28246W        W45094   3.861   1.595   2.856  0.1586 -0.0939 -0.2231
28247W        W45095   9.569   2.771  15.974 -0.0163 -0.4365  0.0741
28248W        W45096   0.888  14.753   3.298 -0.3033  0.1423  0.0392
28249W        W45097  11.699   2.355   0.853  0.3824  0.0405 -0.2195
28250W        W45098  14.646  10.754   3.380 -0.2709  0.0176  0.3438
28251W        W45099   5.852  15.314  13.369  0.0144  0.3479 -0.1910
28252W        W45100   3.869   8.173   3.494  0.0763  0.1764  0.2886
28253W        W45101  14.651  13.425  14.338 -0.0826  0.0084  0.0330
28254W        W45102   8.574   3.083   4.340  0.1636  0.0830 -0.3085
28255W        W45103   4.972   2.787  12.812  0.0690 -0.3543  0.1903
28256W        W45104  17.531  11.045  13.643  0.3959  0.0581  0.0176
28257W        W45105  16.075  15.200   1.569  0.0800  0.1476  0.0991
28258W        W45106   0.877   0.765   0.635  0.2047 -0.5613  0.1284
28259W        W45107   6.428  17.944   2.099 -0.2856 -0.0475  0.2923
28260W        W45108   6.632  15.215  15.946 -0.0480  0.1130 -0.0187
28261W        W45109   2.300  10.997   2.442 -0.1789  0.0274  0.2198
28262W        W45110  17.397  14.962   0.099 -0.3315 -0.0683 -0.0025
28263W        W45111  13.018   3.119  12.987  0.3234 -0.0811 -0.0863
28264W        W45112  11.339   4.941  15.306  0.1963 -0.1764 -0.3543
28265W        W45113  12.590   5.849  13.496 -0.0560  0.0701 -0.0237
28266W        W45114  16.834   8.589  11.218 -0.3229 -0.3312 -0.0422
28267W        W45115   7.119  17.377   0.317 -0.1194  0.0802  0.1545
28268W        W45116   2.619  10.220   3.519 -0.2267  0.0403  0.0673
28269W        W45117  17.682   0.594   0.841 -0.0103  0.1981 -0.1617
28270W        W45118   3.658  10.220  16.199 -0.0946  0.0233  0.1207
28271W        W45119   4.966  10.739  14.585  0.2193 -0.1589  0.3436
28272W        W45120  17.281  15.310   5.123  0.2075 -0.1124 -0.3483
28273W        W45121   7.496   1.543   1.518  0.2310 -0.0495 -0.1523
28274W        W45122   4.712  17.036  13.401 -0.3368  0.0890  0.0561
28275W        W45123   2.491   0.583  16.156  0.3058 -0.1330  0.3597
28276W        W45124   9.527   7.555   0.500 -0.1371 -0.0036 -0.1896
28277W        W45125   6.239   2.300  13.452 -0.1820  0.1548  0.0150
28278W        W45126   2.600   4.954  16.250 -0.1859 -0.0276  0.2408
28279W        W45127  10.273  10.652  14.055 -0.1064 -0.2311 -0.5207
28280W        W45128  14.581   2.630  15.968  0.3017  0.3234 -0.1407
28281W        W45129  17.889  11.069   2.004 -0.2047  0.0092 -0.1436
28282W        W45130  15.121   6.945  10.902  0.4765 -0.0530 -0.1374
28283W        W45131   2.446  16.747  14.325 -0.2581 -0.2300  0.1265
28284W        W45132  13.565   8.309  12.971  0.0006 -0.1169  0.2001
28285W        W45133  17.271   9.055   0.439  0.2113 -0.1067 -0.7170
28286W        W45134   6.580  14.408  11.739 -0.1433  0.1251  0.1491
28287W        W45135   2.141  16.988   3.217  0.0721 -0.1114  0.2279
28288W        W45136  15.485   5.911   1.721  0.0274  0.2197  0.2242
28289W        W45137  12.699  15.083  15.838 -0.0327 -0.0015  0.1406
28290W        W45138   7.383  17.701   4.080  0.2508  0.0728  0.1890
28291W        W45139   8.033   7.799  12.980  0.1436 -0.1780  0.2576
28292W        W45140  11.600   7.253  14.570  0.0935  0.1557  0.5127
28293W        W45141  11.664  15.128   4.219 -0.0306 -0.0147 -0.1671
28294W        W45142  17.411  17.442  16.121  0.2050  0.1061 -0.2274
28295W        W45143   0.092  14.459  13.874 -0.1160 -0.2750  0.0992
28296W        W45144   9.846  16.780  13.979 -0.0624 -0.0781 -0.1051
28297W        W45145   1.764   5.970   2.314  0.3179  0.1582  0.2407
28298W        W45146   1.733   7.322   3.394  0.0928  0.0769  0.0010
28299W        W45147  13.431   1.890  14.550 -0.0531 -0.2788 -0.1029
28300W        W45148   0.681  10.495  11.964  0.2512 -0.1185  0.3316
28301W        W45149  11.640  14.902  15.553 -0.0863  0.1254  0.1162
28302W        W45150   6.819   8.272   3.128  0.1470 -0.0403 -0.1030
28303W        W45151   5.129  13.583   2.725 -0.0441 -0.2639  0.0092
28304W        W45152   6.613   4.206  13.337  0.1752  0.1067 -0.4651
28305W        W45153  14.314   4.352  16.144 -0.1076 -0.2603 -0.0186
28306W        W45154  10.965   4.468  15.324 -0.2828  0.1922  0.1865
28307W        W45155  17.939  12.729   5.268  0.1798  0.0853 -0.0364
28308W        W45156  16.143  15.357   3.086 -0.1629  0.0470  0.1613
28309W        W45157   7.934   5.745  13.625 -0.2773  0.4155  0.1399
28310W        W45158  15.528   6.949  14.861 -0.0873 -0.1229 -0.2032
28311W        W45159   7.216  10.428  13.046  0.1859  0.1300  0.0531
28312W        W45160   5.304   7.005   3.592 -0.2610 -0.4116  0.0297
28313W        W45161  11.578   2.597   5.104 -0.1345 -0.1482  0.0189
28314W        W45162   7.128   7.926  12.345  0.2758 -0.4277 -0.1102
28315W        W45163   0.350   5.491  16.058  0.1909  0.1992  0.0975
28316W        W45164   0.739  15.228  14.161 -0.3039 -0.0122  0.0506
28317W        W45165  13.142  12.268  15.241  0.2797 -0.0695  0.1587
28318W        W45166   8.125  13.656  13.636  0.0803  0.3864  0.0710
28319W        W45167  17.845   5.112   3.960  0.2270  0.2298  0.3837
28320W        W45168  17.775   4.935  11.479  0.3625  0.1338  0.1440
28321W        W45169   1.523  10.251  14.417  0.0357 -0.1086  0.2669
28322W        W45170  16.506   1.606  14.948  0.2313 -0.1159  0.0400
28323W        W45171   8.569  17.264   1.658 -0.1078  0.0764 -0.0472
28324W        W45172  11.403   7.830   1.117  0.2823 -0.2545 -0.1922
28325W        W45173  10.151  10.508  16.062  0.0097  0.1884 -0.0169
28326W        W45174  13.472   6.069  14.595  0.4354 -0.3293 -0.1198
28327W        W45175   4.971   8.744  13.266  0.2053  0.0864  0.0283
28328W        W45176   7.705   8.928  13.834 -0.0336  0.0733  0.1343
28329W        W45177  17.429   9.075  12.558  0.1085 -0.1143  0.1859
28330W        W45178  17.306   5.317   3.102 -0.1485 -0.1926  0.2401
28331W        W45179  12.752  11.512   2.123  0.0032 -0.0871  0.3974
28332W        W45180   0.764  15.743  15.901  0.2163 -0.1086 -0.0574
28333W        W45181  10.706  11.509   5.357 -0.0218  0.2365  0.5549
28334W        W45182   3.696  16.901  12.386 -0.1700  0.0984 -0.0958
28335W        W45183   0.081  16.009  12.743  0.2357 -0.0199 -0.3812
28336W        W45184   1.340  12.643   4.495  0.0661 -0.0721 -0.1420
28337W        W45185  10.160  13.729   2.055 -0.1774 -0.1221 -0.0613
28338W        W45186  15.998  16.932  13.291  0.0392 -0.3426  0.1157
28339W        W45187  10.712   6.066   2.269  0.0372  0.0419  0.0432
28340W        W45188  10.009   6.650  12.743 -0.0261 -0.1713 -0.2882
28341W        W45189  10.882   8.479  12.489 -0.1065  0.2189 -0.2242
28342W        W45190   0.147   1.378   2.582 -0.0203 -0.1355 -0.2033
28343W        W45191   0.806  16.262   3.114 -0.0774  0.2467 -0.0548
28344W        W45192   5.833  14.034  12.979  0.0308 -0.5665 -0.2117
28345W        W45193  11.436   5.276  13.244  0.3098 -0.2098  0.0232
28346W        W45194   5.019   5.349   4.530  0.0170 -0.1047 -0.1564
28347W        W45195  16.981   9.291  15.152 -0.1931 -0.1290  0.1598
28348W        W45196  13.323   5.528  12.314  0.1416 -0.2114 -0.0446
28349W        W45197   6.898  12.795  15.967 -0.1099 -0.2143  0.0148
28350W        W45198  16.121  16.664  15.804  0.1698  0.0099 -0.0387
28351W        W45199   3.601  15.749  13.303  0.1922  0.2244  0.1289
28352W        W45200  17.137  13.236  14.126  0.0007 -0.0024  0.4116
28353W        W45201   8.144  17.693   1.075  0.2486  0.2497 -0.0219
28354W        W45202   6.923   3.726  13.427 -0.0064 -0.1602  0.3512
28355W        W45203  12.568   8.228  12.615 -0.1013  0.0380 -0.0937
28356W        W45204   8.392  13.665  14.727  0.0137  0.0744 -0.1237
28357W        W45205  13.396  16.671  14.035  0.0263 -0.0182 -0.1713
28358W        W45206  17.619   4.285   4.124 -0.2661  0.0830 -0.2885
28359W        W45207  14.623   5.891  15.418 -0.0698 -0.4505  0.0743
28360W        W45208   6.677  12.398   4.031 -0.4023 -0.0841  0.0800
28361W        W45209   1.119   4.623   3.426  0.2917 -0.1229 -0.2494
28362W        W45210  15.553   1.570  13.137  0.2698 -0.1784 -0.0347
28363W        W45211  16.429   7.737  13.106 -0.1082 -0.0943  0.0832
28364W        W45212   1.851  16.313  13.892 -0.0834  0.0897 -0.0501
28365W        W45213  10.341   5.312  11.498 -0.1333 -0.2550 -0.1240
28366W        W45214   6.280  17.005   1.188 -0.0837 -0.1338  0.1919
28367W        W45215  15.511   2.438  12.033  0.1801 -0.1656 -0.2900
28368W        W45216   6.117   8.486   4.525  0.1699 -0.0934  0.2092
28369W        W45217   4.589   8.702   2.661 -0.1341  0.1639 -0.2457
28370W        W45218  10.609   5.902  12.845  0.3329  0.0473 -0.0652
28371W        W45219   0.176  14.493  11.089  0.3004  0.2002  0.2405
28372W        W45220   7.776  14.735   0.336 -0.3569  0.1056 -0.0908
28373W        W45221   8.317  13.299  14.012  0.3506  0.1401 -0.1503
28374W        W45222  10.970   1.460   3.099 -0.0174  0.2197  0.0971
28375W        W45223  17.539   4.931   0.089  0.0938 -0.0933  0.1031
28376W        W45224   4.357  12.053  12.470 -0.2482  0.2523 -0.0797
28377W        W45225   6.265  13.239  10.806 -0.0786 -0.0897 -0.3378
28378W        W45226   4.602  14.851  15.964 -0.0467  0.2439 -0.3466
28379W        W45227   9.254   1.838   0.890 -0.2642  0.0402  0.2019
28380W        W45228   3.644  10.474   3.974 -0.0461 -0.2100  0.2231
28381W        W45229   7.925   6.246  12.618 -0.1219 -0.0048  0.1120
28382W        W45230  14.791  14.397   3.388  0.1628  0.3644  0.3722
28383W        W45231  17.976  11.252   0.198  0.0125 -0.0812 -0.0623
28384W        W45232  13.085   9.761  16.204  0.0296 -0.2323  0.3205
28385W        W45233  10.320  16.954  11.962  0.1716  0.0867 -0.0661
28386W        W45234   6.270   7.091   2.281 -0.3047  0.1695 -0.2143
28387W        W45235   5.578   4.388   1.671  0.1307 -0.0460  0.1897
28388W        W45236  17.298  10.145  16.059  0.2542 -0.3936 -0.0732
28389W        W45237   6.717  11.844   4.067  0.0532 -0.0919  0.0578
28390W        W45238  12.538   1.229  11.625 -0.0316 -0.3232 -0.0781
28391W        W45239   8.208   2.380  11.158  0.0758  0.2171  0.0200
28392W        W45240  10.265  10.225  13.713  0.0208 -0.6121 -0.0847
28393W        W45241   7.903  12.504  13.832  0.1288 -0.3324 -0.2604
28394W        W45242   8.312   7.361  12.011  0.0272  0.3153  0.1025
28395W        W45243   7.179   9.339   1.949 -0.1479  0.1192  0.0089
28396W        W45244   3.650   5.858  14.793  0.1579 -0.0841  0.1286
28397W        W45245   1.912  16.232  14.627 -0.0877 -0.2283 -0.1094
28398W        W45246  11.463   0.402   4.498  0.1860  0.1109  0.0315
28399W        W45247   7.771   5.981  15.904  0.1733  0.3218 -0.0040
28400W        W45248   5.923   2.558   2.074 -0.2226  0.1601  0.0120
28401W        W45249   5.907  14.893  14.352  0.0968  0.0655  0.6318
28402W        W45250   5.764   5.789  11.882  0.1212  0.0886 -0.2604
28403W        W45251  15.271   4.291  14.825 -0.1853 -0.1213  0.0516
28404W        W45252   5.078   5.992  15.963  0.2479  0.1791  0.0832
28405W        W45253   6.187   7.621  12.496 -0.0324 -0.2256  0.0129
28406W        W45254  16.604   2.109   3.573  0.3824 -0.1383 -0.0257
28407W        W45255  12.344  15.656  11.438 -0.3456 -0.0500 -0.1933
28408W        W45256  18.055   5.554   3.974  0.3831  0.2248 -0.1297
28409W        W45257  15.923   1.966   3.837 -0.0176 -0.0608 -0.0306
28410W        W45258  10.544   4.070   3.536 -0.1083  0.3107  0.1371
28411W        W45259   2.574   5.447   3.586  0.0782 -0.0446 -0.0976
28412W        W45260   1.268   3.645   0.263 -0.2229  0.0709  0.1324
28413W        W45261  14.163  11.798  11.931 -0.0905 -0.0237 -0.0391
28414W        W45262   2.233   3.278  10.104  0.2584  0.0521  0.1369
28415W        W45263   4.782  15.966   4.231 -0.1842 -0.0647 -0.1789
28416W        W45264  16.080  14.587  12.742 -0.0914 -0.0683  0.0159
28417W        W45265   7.506   8.416   0.025  0.1795  0.3211  0.0737
28418W        W45266  15.579   8.101   3.333  0.0912 -0.0797 -0.1955
28419W        W45267   4.536   0.091  11.083  0.0536  0.0060 -0.2146
28420W        W45268  11.649  12.731  11.920 -0.1263 -0.1020 -0.1614
28421W        W45269   5.443  13.180  15.009  0.0655 -0.0528  0.2460
28422W        W45270  13.816   8.592  14.294  0.2857  0.2244 -0.1016
28423W        W45271   4.229  15.250   3.066  0.0586 -0.4281 -0.1914
28424W        W45272  12.226  17.640  12.982 -0.1203 -0.2390 -0.0585
28425W        W45273   7.230   1.822  13.699  0.3236  0.0425 -0.0497
28426W        W45274  16.758   0.293   4.468 -0.3127 -0.0211 -0.0889
28427W        W45275  14.548  14.598  14.755  0.2343  0.0643 -0.4795
28428W        W45276   6.177   7.867  10.878 -0.0144 -0.2311  0.0378
28429W        W45277  16.663  10.613   4.077  0.0434  0.3403  0.1340
28430W        W45278   4.797  12.956  13.048 -0.0903  0.1141 -0.1320
28431W        W45279   8.570  11.599  14.884 -0.0725 -0.0331 -0.0673
28432W        W45280  17.976  17.177  13.951 -0.0741  0.0819  0.1218
28433W        W45281   4.003   1.456   0.941  0.2166 -0.0887 -0.3417
28434W        W45282  15.899  15.278  16.132  0.0246  0.2926 -0.1351
28435W        W45283   2.195   3.607  14.342  0.1964  0.0644 -0.0198
28436W        W45284   6.645   1.361   5.058 -0.1586  0.0613  0.1897
28437W        W45285  14.283  11.286  13.291 -0.3669 -0.1598 -0.2389
28438W        W45286  11.609   2.012   1.643  0.0177  0.1632  0.1940
28439W        W45287   2.837  12.512  13.589  0.0056  0.6584 -0.1487
28440W        W45288  10.318   4.021  16.229  0.0118 -0.4327 -0.0159
28441W        W45289   0.009   5.989  14.246  0.1821  0.0843  0.0189
28442W        W45290   4.169   9.648  10.756  0.1483 -0.0572  0.1728
28443W        W45291  10.849  15.821  11.826 -0.0270 -0.0488  0.1331
28444W        W45292  16.248   3.906  10.994  0.1252 -0.0315 -0.0792
28445W        W45293   2.192  11.464  12.063  0.0416  0.1058 -0.4446
28446W        W45294   7.858   1.747   2.799 -0.0910 -0.2740 -0.2577
28447W        W45295  18.050  14.596  14.340 -0.3217 -0.2331  0.0212
28448W        W45296  10.415   8.303  14.400  0.1107  0.0571  0.0790
28449W        W45297  12.807  15.002  14.876 -0.1254  0.2706 -0.3272
28450W        W45298   1.359   7.559   3.003  0.2961 -0.0864 -0.1883
28451W        W45299  16.468   5.395   2.924 -0.0691 -0.0714  0.1041
28452W        W45300  12.715   2.847  11.665 -0.0892  0.0083 -0.2950
28453W        W45301   6.910  15.021   3.960 -0.0463  0.0756  0.1545
28454W        W45302  17.047   6.764  15.072 -0.2718  0.3752  0.1084
28455W        W45303  16.323  14.620  15.755  0.2171 -0.0072  0.0312
28456W        W45304  16.777   2.241  11.740 -0.1872  0.0300 -0.2643
28457W        W45305  17.031   6.081   2.071  0.0676  0.1874  0.2470
28458W        W45306   8.483  13.308   0.082 -0.1131 -0.0370  0.0063
28459W        W45307  11.315  15.605  16.079 -0.0284  0.0091 -0.0104
28460W        W45308   7.506  14.089   2.978  0.1113 -0.1522  0.1225
28461W        W45309   4.194  14.666   3.286 -0.1424  0.1216 -0.1183
28462W        W45310   0.291  16.124  11.243 -0.1093 -0.0552  0.1243
28463W        W45311   9.834   9.962   3.590  0.2686 -0.4163  0.0179
28464W        W45312  15.420   8.760   2.116  0.1369 -0.0525  0.3531
28465W        W45313  13.598  11.682  11.699  0.0758  0.3298  0.0058
28466W        W45314   6.471   3.365   0.550 -0.1051 -0.1307 -0.0586
28467W        W45315   4.057   3.505   4.123 -0.1647  0.0635 -0.0951
28468W        W45316   0.073   8.779   4.965  0.0197 -0.0835 -0.0573
28469W        W45317  13.409  15.411  11.556 -0.3330 -0.0408  0.0913
28470W        W45318   5.292   9.511  14.177  0.0549 -0.1189 -0.1782
28471W        W45319   6.450   7.951   3.053 -0.1033 -0.1502  0.2298
28472W        W45320  12.140  16.274  13.007  0.1192 -0.0167 -0.0419
28473W        W45321  10.464   2.824  16.149 -0.0183  0.0969  0.0624
28474W        W45322  14.576   4.748   4.615  0.0964 -0.3614  0.0745
28475W        W45323   0.739  10.982   0.512  0.0947  0.2764 -0.0744
28476W        W45324  13.541  14.648   5.299  0.0320 -0.3153 -0.0093
28477W        W45325   9.939   4.471   2.042  0.0645 -0.0781 -0.2727
28478W        W45326   3.045  11.221   3.623  0.1002  0.1222  0.1722
28479W        W45327  14.622  11.312   4.820  0.0630 -0.1413  0.0413
28480W        W45328   6.016   1.562   2.798  0.1818  0.0361  0.0031
28481W        W45329  17.416   4.162  13.815  0.3559 -0.0850 -0.3252
28482W        W45330   2.459   1.850  11.226 -0.0829 -0.1467  0.0188
28483W        W45331   6.093   1.693  14.746  0.1563  0.1456 -0.0361
28484W        W45332   5.449  14.100   1.900  0.1005 -0.2491 -0.2952
28485W        W45333  10.219  13.252  12.769  0.1489 -0.0409 -0.1605
28486W        W45334  12.396   9.206  12.615  0.1599 -0.0717 -0.0257
28487W        W45335  14.391   4.465   3.214 -0.0488 -0.1105  0.4798
28488W        W45336   7.287  10.079   4.068 -0.2120 -0.2818 -0.2357
28489W        W45337  17.584  12.068  13.040 -0.1195 -0.0909  0.2640
28490W        W45338   4.454   8.949  11.308  0.0529  0.0787  0.2743
28491W        W45339  17.279  15.967  13.180 -0.1451 -0.2910  0.1203
28492W        W45340  12.141   0.700   3.915 -0.0328  0.2887  0.3965
28493W        W45341  16.863   3.202   2.597 -0.1041  0.0089  0.0761
28494W        W45342  14.923   1.874   1.562  0.0869  0.1518  0.2232
28495W        W45343   2.422   3.492  14.903  0.0485  0.0524  0.0987
28496W        W45344  17.738  17.681  12.882  0.2243 -0.2943 -0.2098
28497W        W45345   2.160  11.298   3.475 -0.0595  0.0348 -0.0427
28498W        W45346   2.815   0.218  12.255  0.2972 -0.0836  0.1092
28499W        W45347   9.195  11.616   4.821 -0.1032  0.2870  0.2848
28500W        W45348  11.021  11.303   1.600 -0.2430  0.2513  0.0196
28501W        W45349   1.357  11.540   1.657  0.2679  0.0700  0.1014
28502W        W45350   1.264  13.774  15.277  0.1870  0.2581  0.2603
28503W        W45351   5.674   0.461   1.217  0.2163 -0.4183  0.2180
28504W        W45352  17.078   3.262   1.608  0.1543 -0.1460 -0.0562
28505W        W45353  14.461  16.954   4.411 -0.1625  0.0449  0.0559
28506W        W45354   3.564  10.852   1.267  0.1561  0.0143 -0.1699
28507W        W45355  16.024   7.882  12.430  0.0412 -0.0668 -0.0169
28508W        W45356   8.480  15.984   3.077 -0.0599 -0.1029 -0.0348
28509W        W45357   5.239   4.385   4.248 -0.2236  0.0117 -0.1234
28510W        W45358  12.045   1.592  10.925  0.0127  0.2132 -0.3623
28511W        W45359  10.081  13.762  11.973  0.1911 -0.1596  0.1611
28512W        W45360   0.836   5.588   4.150  0.0900  0.2850 -0.0499
28513W        W45361   0.038   7.781   1.341 -0.1647  0.0923  0.0705
28514W        W45362  13.110  13.620   3.091  0.1121  0.0230 -0.0089
28515W        W45363   0.900   6.080   1.997  0.1669 -0.1351 -0.1028
28516W        W45364  12.228   1.001   4.303 -0.0663  0.2464 -0.1250
28517W        W45365   5.187  16.986  15.501  0.0748  0.0753 -0.0876
28518W        W45366   2.296  16.331  15.576  0.2018 -0.1226 -0.0816
28519W        W45367   2.630   0.403   0.706 -0.0728 -0.2718  0.0257
28520W        W45368   1.344   7.439   1.412 -0.0218 -0.4322 -0.0084
28521W        W45369  11.818  14.234   1.658  0.1266 -0.1076  0.0134
28522W        W45370   9.843   9.284  14.292  0.0391  0.0903 -0.4143
28523W        W45371   1.273  13.579   5.024  0.2676 -0.3005  0.0521
28524W        W45372  15.556   8.447   0.339 -0.2932 -0.1272  0.3776
28525W        W45373   6.457   7.850  11.330 -0.1599 -0.3666 -0.1126
28526W        W45374   8.930   5.957   2.545 -0.1142  0.2651  0.0409
28527W        W45375  18.020   7.967   4.537 -0.0996  0.1181 -0.1368
28528W        W45376  16.579  11.319   2.171 -0.0440 -0.0969 -0.0695
28529W        W45377   3.516   2.856   3.684 -0.0871 -0.1470  0.2008
28530W        W45378   3.876  14.401  12.525 -0.1433 -0.0144  0.4270
28531W        W45379   4.543  17.771   6.061  0.1500 -0.0041 -0.1890
28532W        W45380  13.790   0.008   4.347 -0.0946 -0.1350  0.1343
28533W        W45381  12.157  12.020   5.445  0.3724  0.0581  0.0686
28534W        W45382  12.374   4.193  12.104 -0.1395 -0.0844 -0.0690
28535W        W45383  11.342   4.741  12.319 -0.1399  0.2470 -0.0500
28536W        W45384  15.996   9.248   2.932  0.3446 -0.1431  0.0105
28537W        W45385   1.746  15.101   0.995  0.2245 -0.3439 -0.1714
28538W        W45386   5.744   1.051  15.288  0.0383 -0.0588  0.0248
28539W        W45387   1.818   1.969  14.123 -0.0563 -0.0352  0.0385
28540W        W45388   8.264  14.723  12.825 -0.2170 -0.2331 -0.1361
28541W        W45389  14.248   7.972   1.635  0.0559 -0.0263 -0.0939
28542W        W45390   7.495  14.814  14.800  0.0750 -0.1759  0.4695
28543W        W45391  17.430   0.929   3.005 -0.5314 -0.0301  0.0583
28544W        W45392   3.700  16.031  13.952  0.1087  0.1094  0.1042
28545W        W45393   0.987  17.889  14.481  0.0615 -0.1359  0.0995
28546W        W45394  12.446   9.341  14.924 -0.1455  0.3579  0.0103
28547W        W45395   1.095  17.184   1.024 -0.2029 -0.4431 -0.2908
28548W        W45396  18.016   2.646   3.370  0.2124 -0.3872 -0.3186
28549W        W45397   9.102  16.619  12.525  0.1588 -0.0637  0.3075
28550W        W45398   8.246   5.518   3.906 -0.2914 -0.1185 -0.1067
28551W        W45399   4.030   2.171   1.082  0.2667 -0.0269 -0.0864
28552W        W45400  13.567  10.936  11.175  0.1756 -0.0872 -0.1224
28553W        W45401  13.484  13.568  15.056  0.0534 -0.0705  0.1132
28554W        W45402  17.378  10.650   2.320  0.3664 -0.0458 -0.2331
28555W        W45403  12.578   1.133  15.361 -0.2252  0.0007  0.1003
28556W        W45404   3.513   7.412  14.879 -0.0376 -0.0239  0.1375
28557W        W45405  12.367   5.672   1.197  0.0621 -0.0251  0.2352
28558W        W45406  10.814   2.365   4.206 -0.0537 -0.3129 -0.1944
28559W        W45407   0.405   4.826   1.466 -0.0862 -0.2525  0.4477
28560W        W45408   0.514   5.672   2.157 -0.0993  0.0788  0.4349
28561W        W45409   2.543   1.653   4.077 -0.0824  0.0635 -0.1862
28562W        W45410  17.747  17.260   4.475 -0.2256  0.1759  0.1412
28563W        W45411   2.475  11.058   1.964 -0.1211 -0.2287  0.0220
28564W        W45412  12.222   0.406  13.228 -0.2197  0.0504  0.2972
28565W        W45413  13.028  17.645  11.054  0.1273 -0.0960 -0.0171
28566W        W45414  16.222   6.066  11.995  0.0249 -0.2501 -0.1651
28567W        W45415  17.642  14.390   3.486 -0.2118  0.0552  0.2778
28568W        W45416  13.861  12.309   1.826 -0.1095  0.2370  0.0020
28569W        W45417   2.111   1.879   4.244  0.3209 -0.2094  0.1960
28570W        W45418   2.910   5.008  15.505  0.0137 -0.0159 -0.1732
28571W        W45419  14.005   9.912  14.846  0.0081  0.0755 -0.3503
28572W        W45420   4.290  16.160   4.225 -0.1066  0.1322  0.1375
28573W        W45421  15.064   4.756   4.740 -0.3296  0.1454  0.0981
28574W        W45422  14.199  14.767  11.409 -0.0947 -0.2842  0.3768
28575W        W45423  16.392   2.441  13.482 -0.2342  0.0714  0.3068
28576W        W45424   7.573  12.942  13.231  0.1051  0.0489 -0.1278
28577W        W45425  16.817   1.373   2.360 -0.2093  0.2210 -0.1092
28578W        W45426  10.310   2.251  12.045 -0.0846  0.1987 -0.2087
28579W        W45427  11.908   5.768  14.026 -0.1652  0.4242 -0.0995
28580W        W45428  16.252   9.714  14.891  0.0824 -0.2041 -0.4366
28581W        W45429   2.428  10.004   2.686  0.2937  0.0324 -0.0488
28582W        W45430   7.926   5.492  14.689  0.0786  0.3403 -0.1956
28583W        W45431  13.952  16.430  15.093 -0.1708 -0.1484  0.0222
28584W        W45432   5.694  11.921  14.588 -0.1182 -0.1995 -0.1148
28585W        W45433   9.178  17.897  14.464  0.3102 -0.3559 -0.0534
28586W        W45434   2.176   0.866  15.745  0.0595 -0.1586  0.1779
28587W        W45435  16.956  12.399  16.086 -0.0782 -0.1124  0.2004
28588W        W45436  10.500  16.281   0.494  0.1211 -0.2440  0.1428
28589W        W45437   7.187  17.098  14.204 -0.1079  0.1316  0.0410
28590W        W45438   3.498   8.138   3.826  0.0291  0.0720  0.0826
28591W        W45439   7.449  17.697   1.208 -0.0425  0.1178 -0.1126
28592W        W45440  17.027   2.823  12.025 -0.2292  0.1324 -0.1108
28593W        W45441   9.040   8.038   4.477 -0.3122 -0.0686  0.0298
28594W        W45442  16.048   2.688  11.895 -0.1397  0.1771  0.0278
28595W        W45443  11.288   2.607   0.310 -0.1894  0.0965 -0.2113
28596W        W45444   8.806  18.072   2.884  0.0122  0.1064  0.2060
28597W        W45445   2.453   7.651   0.730 -0.0430 -0.0720 -0.0281
28598W        W45446  12.595   2.394   1.275  0.0773  0.2499  0.1254
28599W        W45447  18.059  10.945   3.512  0.0318 -0.1524  0.1024
28600W        W45448   1.960  10.460   3.937  0.0335 -0.1519 -0.2136
28601W        W45449   3.776   8.021   4.989  0.0070 -0.1528 -0.0164
28602W        W45450   1.565   0.521  12.185 -0.3512 -0.0462 -0.2334
28603W        W45451   3.995   8.734   1.717  0.2742 -0.0197  0.0142
28604W        W45452   8.102   4.115   1.477 -0.3869  0.1275  0.1818
28605W        W45453  11.150   4.498  12.726  0.1104  0.0475  0.0853
28606W        W45454   4.249   2.431   5.760  0.0858 -0.0646 -0.1785
28607W        W45455  15.853   4.349  15.561 -0.2278 -0.2190 -0.0232
28608W        W45456   8.470   6.754   0.555  0.0145  0.0559 -0.0469
28609W        W45457   8.565   6.930  14.225  0.6124  0.0633 -0.0139
28610W        W45458  13.320  14.334   4.981  0.2160 -0.0985  0.1668
28611W        W45459   8.490   1.491  14.338 -0.0491 -0.1361  0.1090
28612W        W45460  14.678   9.160   4.958  0.0374 -0.2286 -0.2370
28613W        W45461   4.878  15.094  15.537  0.0016 -0.1663 -0.3802
28614W        W45462  18.060  12.355  15.348  0.1179  0.0433 -0.2911
28615W        W45463  14.886  13.910   3.487  0.3497  0.0808 -0.1641
28616W        W45464   0.838  12.489   3.850  0.1044 -0.0907  0.1202
28617W        W45465  11.345   9.976  11.039  0.3566  0.2038  0.3290
28618W        W45466   2.853   1.870   3.359 -0.0644 -0.2552 -0.3702
28619W        W45467   8.150  14.815   0.622  0.1046 -0.0252  0.0253
28620W        W45468  17.466  15.667  11.817  0.1440 -0.4227 -0.2484
28621W        W45469   7.250  18.026  14.437  0.0158 -0.1597  0.1368
28622W        W45470   3.596   1.077  13.503  0.0243  0.4086 -0.1375
28623W        W45471   8.168   6.194   3.080 -0.3793  0.1762 -0.1392
28624W        W45472  11.841   7.723  12.519 -0.2540  0.1207 -0.0168
28625W        W45473   9.007   7.142   5.039  0.0551 -0.0754  0.1932
28626W        W45474  14.601   9.977  12.259  0.1261  0.2779  0.0830
28627W        W45475  10.028  12.624   2.058 -0.0888  0.0309 -0.4107
28628W        W45476   0.277  15.572   3.213 -0.0971 -0.4075  0.2648
28629W        W45477   6.378  11.678   1.591 -0.2896  0.2481  0.1563
28630W        W45478  10.715   7.123  10.939  0.1036 -0.2235 -0.1489
28631W        W45479  17.835   8.652   3.099  0.1014  0.0525  0.1785
28632W        W45480  17.967   2.197   3.737 -0.1099  0.1898 -0.0714
28633W        W45481  12.092   0.754   5.191 -0.0244 -0.0443  0.3265
28634W        W45482  14.129   7.487  14.855  0.1314 -0.0749 -0.3452
28635W        W45483   6.692  16.881  14.304 -0.0651  0.1593  0.1890
28636W        W45484   8.978   6.366   2.843  0.1029 -0.2126 -0.2126
28637W        W45485   2.487   8.308  13.949  0.0992  0.1241 -0.3809
28638W        W45486  16.123   0.637  12.471  0.2222  0.0474  0.0851
28639W        W45487   8.349  14.097  12.217  0.0589 -0.1073 -0.0764
28640W        W45488  10.966   9.372  12.292 -0.2782  0.0212  0.0227
28641W        W45489   0.775  14.529   0.668 -0.0889  0.0213 -0.0664
28642W        W45490   2.888  16.464  11.740  0.3468 -0.0027  0.0340
28643W        W45491   5.202   5.449   4.077  0.0542 -0.0010  0.0890
28644W        W45492  16.920   4.436   4.917 -0.0248 -0.0351 -0.1591
28645W        W45493  10.515   7.544  11.570  0.1903 -0.2130  0.1534
28646W        W45494  17.738  13.544  11.699  0.0610 -0.3152  0.0493
28647W        W45495  17.847   5.328  10.513  0.2318 -0.4161 -0.1025
28648W        W45496  14.299  10.318  14.596 -0.1786 -0.2459 -0.0237
28649W        W45497  10.069   4.627  12.517 -0.1631 -0.0215 -0.1615
28650W        W45498   0.288  16.990   0.067  0.1551  0.1435 -0.2574
28651W        W45499  12.523  16.978   0.027  0.1964 -0.1656  0.2734
28652W        W45500  13.608   3.848  11.385  0.3554  0.1069 -0.0755
28653W        W45501  11.330   0.324  13.369  0.0093  0.0244  0.2251
28654W        W45502  15.205  15.295   3.815  0.0057  0.0901  0.0280
28655W        W45503  11.490  10.158  14.589 -0.1081  0.0259 -0.0400
28656W        W45504  13.424   5.486  15.161 -0.0509 -0.2114 -0.2657
28657W        W45505  13.866  16.900  13.730  0.1260 -0.1444 -0.1120
28658W        W45506   4.762  10.510   0.195 -0.1430 -0.0315  0.0319
28659W        W45507   9.447  12.611  13.516 -0.5021 -0.2656  0.1709
28660W        W45508   4.326  12.332  12.044  0.0789 -0.3020 -0.1812
28661W        W45509  14.537  17.391   1.439  0.0772 -0.4395  0.1299
28662W        W45510  16.195   3.623   0.076  0.0360  0.0129  0.3498
28663W        W45511   4.520  11.019   3.125  0.1108  0.1251 -0.0374
28664W        W45512   6.838  13.944   2.326  0.4309 -0.0664 -0.4718
28665W        W45513   4.615   8.315  15.394 -0.1612 -0.3419 -0.0057
28666W        W45514   8.516   8.154  11.763 -0.0691 -0.1987 -0.0446
28667W        W45515   4.329  17.305   1.683 -0.2212  0.0439 -0.2134
28668W        W45516   7.319   6.488  12.886 -0.3104  0.2109 -0.1808
28669W        W45517  17.825   6.503   3.030  0.1849  0.2009  0.0971
28670W        W45518  11.430   9.841   0.412  0.1381 -0.0452  0.0585
28671W        W45519   4.425   6.617  14.588  0.0656 -0.1450 -0.0108
28672W        W45520   6.661  17.950  10.211  0.0702  0.3538  0.0077
28673W        W45521   3.720  12.227   4.388  0.0080  0.1283  0.0813
28674W        W45522  15.784  13.834  16.029  0.0177 -0.0104 -0.0118
28675W        W45523  11.293   5.216   4.526  0.0080  0.0473 -0.1641
28676W        W45524  13.449  10.558   4.304 -0.2831 -0.1495  0.3603
28677W        W45525  12.067   4.406  15.187 -0.1257  0.1878  0.2078
28678W        W45526  12.343   6.908   4.205  0.2833  0.2888 -0.2271
28679W        W45527  10.033  12.924   4.951  0.0796  0.0976 -0.1493
28680W        W45528  15.285   5.710   0.319  0.0342  0.0498  0.2173
28681W        W45529   5.694  13.736   6.112 -0.0492 -0.0607  0.1326
28682W        W45530  13.948   2.828  12.320 -0.0264 -0.0856  0.0207
28683W        W45531   9.119   8.217   2.101  0.1412  0.2689 -0.0132
28684W        W45532   6.194   8.386  16.284  0.2717 -0.1274  0.2452
28685W        W45533  17.869  16.136   4.237 -0.0473  0.3095 -0.0914
28686W        W45534   3.446  13.801  13.334  0.4299  0.0109  0.3013
28687W        W45535   4.295  18.037   2.979 -0.2666 -0.3710 -0.0245
28688W        W45536  10.660   4.068   1.679  0.1188  0.0007 -0.3019
28689W        W45537  11.486  14.492   5.539  0.3151  0.1102  0.0324
28690W        W45538  14.912  16.534  12.475 -0.2477  0.1422 -0.0679
28691W        W45539   3.277  16.809   3.495  0.0591  0.0063 -0.0516
28692W        W45540  14.856   7.733  13.098 -0.1653 -0.1283 -0.1809
28693W        W45541   9.742  17.794   3.905  0.0379 -0.0142 -0.3401
28694W        W45542  13.088   7.071  15.833  0.0190  0.0802  0.0948
28695W        W45543  15.222   6.773   4.914  0.0432 -0.3255  0.3395
28696W        W45544   1.768   2.532   5.749  0.1434 -0.0406 -0.2462
28697W        W45545   2.730   4.482   2.543 -0.2364 -0.1748 -0.1776
28698W        W45546  16.968  10.435   1.535  0.0510  0.0934  0.1121
28699W        W45547  13.274  10.139  11.227 -0.2729 -0.2569  0.5434
28700W        W45548   3.484   4.777   0.060  0.2693  0.0891 -0.0070
28701W        W45549   8.678  10.813  13.443  0.1842  0.0717  0.2256
28702W        W45550   8.709  16.294   6.055  0.1847  0.2363  0.3130
28703W        W45551   7.385   4.074  12.724  0.1186  0.3971  0.1204
28704W        W45552   1.403   9.449   3.532 -0.0648  0.2044  0.0859
28705W        W45553   8.778  16.973   0.786 -0.1129 -0.1001  0.0490
28706W        W45554   5.078  16.526  14.968 -0.4362  0.1625 -0.1359
28707W        W45555   6.424  10.429   0.502  0.0010 -0.4345 -0.2114
28708W        W45556  14.789  16.292  14.148 -0.0518 -0.0431  0.2851
28709W        W45557   3.989  13.888  13.940 -0.0590  0.2142  0.1382
28710W        W45558   1.196  15.496   0.422  0.2710 -0.0071 -0.2383
28711W        W45559   3.998  12.619  10.051 -0.0210 -0.1313 -0.1248
28712W        W45560   1.375   0.349   3.845  0.0182 -0.3547  0.0954
28713W        W45561  14.159   6.643   3.095  0.0590  0.1389  0.0138
28714W        W45562   6.316   4.915   0.624 -0.0910 -0.1694 -0.0080
28715W        W45563   5.614   5.382   0.953 -0.2119 -0.0951  0.0720
28716W        W45564   0.288   3.614  15.259  0.0548  0.0680  0.0016
28717W        W45565   0.383   7.612  13.344  0.1668 -0.0463  0.2263
28718W        W45566   6.856  17.239  12.433  0.4768  0.0375  0.1567
28719W        W45567   3.453  15.378   0.968 -0.0749  0.0308  0.0942
28720W        W45568   4.924   1.942   0.465  0.3595  0.0542 -0.2418
28721W        W45569   3.146  13.611   2.412  0.3380 -0.2579  0.1095
28722W        W45570  14.575   8.336   1.705  0.2058  0.0072 -0.0443
28723W        W45571  17.481   2.857  14.771 -0.0035 -0.0359  0.0136
28724W        W45572   4.362  17.061  10.545  0.1334 -0.0423 -0.0431
28725W        W45573   3.023  12.521   3.428 -0.2483 -0.1810 -0.0586
28726W        W45574   9.753  14.263   1.638 -0.6331 -0.1797 -0.2613
28727W        W45575  11.608  14.488  14.678  0.2937  0.0161 -0.0582
28728W        W45576  10.686   5.471  15.003 -0.0473 -0.1632 -0.0594
28729W        W45577   1.457   9.723  14.618  0.0504 -0.0182  0.1106
28730W        W45578  13.286   8.471  12.065 -0.4627  0.2380 -0.1537
28731W        W45579   3.818   6.949   0.737 -0.2798 -0.0779 -0.1615
28732W        W45580   5.266   6.981   1.491  0.0314 -0.1874  0.1970
28733W        W45581  14.995  10.336   1.308  0.1657 -0.3212  0.2783
28734W        W45582   2.282   6.882  15.466 -0.1155 -0.0790  0.1041
28735W        W45583  14.541  17.509   4.501 -0.1723 -0.0528  0.1780
28736W        W45584   5.026   2.572   1.776 -0.0478  0.0964  0.2851
28737W        W45585   6.039   8.547   3.030  0.0045  0.1290  0.2439
28738W        W45586   5.166   4.143  14.384 -0.1495  0.0344  0.0680
28739W        W45587   0.173   1.274   2.096  0.1020  0.1069 -0.1614
28740W        W45588   3.551   8.295  12.529 -0.0834 -0.1786 -0.2848
28741W        W45589  16.235   2.047  14.975  0.3769  0.1120  0.2159
28742W        W45590   2.355  12.786  11.385  0.1495  0.0646  0.0975
28743W        W45591  10.104   2.915  13.928 -0.1073 -0.2017 -0.2284
28744W        W45592  15.448   3.377  11.833 -0.1931  0.0044 -0.0114
28745W        W45593  12.027   2.986  12.285  0.0094  0.1525  0.1467
28746W        W45594   5.769   3.605  13.607 -0.3533  0.0002  0.2160
28747W        W45595  12.524   9.879  12.980 -0.0606  0.2216  0.1768
28748W        W45596   9.845   5.959   1.442  0.5807 -0.4168  0.1697
28749W        W45597  10.704  11.265  13.058  0.0003  0.1307 -0.0039
28750W        W45598  17.916  11.810   2.804 -0.1842  0.0824 -0.1843
28751W        W45599   8.936   8.129  15.592  0.4890 -0.0421  0.0071
28752W        W45600   8.037  10.637  16.229 -0.1425 -0.0087  0.2154
28753W        W45601   8.072   5.029   1.777  0.3165 -0.3571  0.0409
28754W        W45602  16.217  11.634   1.729  0.1631 -0.2578 -0.1013
28755W        W45603   6.645  16.577  11.199  0.0433  0.1396 -0.2109
28756W        W45604  12.026   2.934   1.687  0.0035 -0.2163  0.0707
28757W        W45605   1.744   5.307   4.932 -0.0654  0.4786 -0.1543
28758W        W45606  16.514   2.083   2.310 -0.2298  0.1306 -0.1358
28759W        W45607   0.215   2.613  15.255 -0.1057  0.0763  0.2202
28760W        W45608  11.181  12.359   4.649  0.1203  0.3603 -0.1547
28761W        W45609  15.373  14.416   4.652 -0.0885  0.0846 -0.0324
28762W        W45610   7.534   6.691  11.116 -0.1027  0.1930 -0.1434
28763W        W45611  13.533  14.048  15.287  0.2053  0.1062  0.0048
28764W        W45612   7.931   6.914   0.073  0.1328  0.1986  0.1343
28765W        W45613   9.949  13.291   2.994  0.0471  0.1702 -0.0637
28766W        W45614   4.661   5.021   5.848  0.0608  0.0629  0.0001
28767W        W45615   1.644  12.191  12.556  0.1261  0.0450 -0.0567
28768W        W45616   0.021   1.364   4.083  0.3769  0.2034  0.0067
28769W        W45617   7.219   2.270   1.146 -0.2948  0.3037 -0.2716
28770W        W45618   2.958   7.455  12.947  0.1114 -0.0467 -0.0507
28771W        W45619  15.214   4.476   3.666 -0.0789  0.1924 -0.2944
28772W        W45620   9.568  15.924   1.537 -0.1322 -0.2770  0.3693
28773W        W45621  17.003   7.782  12.055  0.0836 -0.0572  0.0546
28774W        W45622  17.462  12.724   1.990 -0.1763 -0.2387 -0.0226
28775W        W45623   3.217  12.701  13.932  0.1322 -0.0777 -0.0213
28776W        W45624   3.037   4.568   4.186 -0.0879  0.2206  0.0311
28777W        W45625  13.529  11.980   2.753  0.1697  0.0714  0.0439
28778W        W45626  11.134  12.291  14.222  0.1495  0.1643  0.1714
28779W        W45627  16.886   8.828   4.234 -0.1001 -0.2378 -0.3035
28780W        W45628   6.204  15.029  15.655  0.3914  0.3058 -0.4373
28781W        W45629  15.482   5.854   3.957 -0.3089  0.0699 -0.2887
28782W        W45630   2.617   0.187  15.876 -0.2128 -0.0830 -0.0479
28783W        W45631  10.466  14.349  16.174 -0.1159  0.1429  0.0458
28784W        W45632   7.997  17.041   0.109 -0.2122 -0.3694 -0.2343
28785W        W45633  13.234   5.598  14.463 -0.1064 -0.1271 -0.3214
28786W        W45634   2.265  13.262  14.726 -0.2505  0.2639 -0.3219
28787W        W45635   8.645   7.111   2.190 -0.0286 -0.3127 -0.1247
28788W        W45636  11.273   3.255   4.188 -0.0273 -0.3900 -0.0272
28789W        W45637  16.317  15.637  13.318 -0.1214 -0.0590  0.2321
28790W        W45638   5.236  13.150   3.325  0.0425  0.1521  0.2544
28791W        W45639  10.243  13.156  13.712 -0.0427 -0.5600 -0.1043
28792W        W45640   5.251  10.182   0.514 -0.0120 -0.3440 -0.1861
28793W        W45641  18.050  13.179   4.139  0.6702 -0.0122 -0.0121
28794W        W45642   1.286   4.303   2.678  0.1707  0.0095  0.0956
28795W        W45643   8.391   5.839   4.186 -0.2452  0.3752 -0.0998
28796W        W45644   5.519   7.939  13.302  0.0086  0.2331  0.1706
28797W        W45645   3.077  15.719  14.557  0.0288  0.0181  0.0691
28798W        W45646  17.531  11.959  14.428 -0.0566 -0.2206  0.1852
28799W        W45647  13.134   1.179  12.464  0.0031  0.0389 -0.2448
28800W        W45648  14.425   5.471   3.226  0.0128 -0.1913 -0.1302
28801W        W45649   2.826  14.565  11.474 -0.0792  0.0280 -0.1768
28802W        W45650  15.530  12.089   0.453 -0.0582  0.0412 -0.0422
28803W        W45651   1.007  11.541  14.389 -0.0331  0.1045  0.3748
28804W        W45652  17.840   3.580  12.296 -0.1669  0.0320 -0.0374
28805W        W45653  12.534   1.793   4.870  0.2448 -0.0277 -0.1282
28806W        W45654  18.075  17.218   5.035 -0.2367 -0.2117 -0.0210
28807W        W45655   0.660   5.177   2.002  0.1094  0.2882 -0.2476
28808W        W45656  16.941   0.347   3.510 -0.2345 -0.0740 -0.1609
28809W        W45657   3.713  11.365  13.205 -0.2309 -0.1592 -0.1151
28810W        W45658   9.235  15.561   1.717 -0.0846 -0.0030 -0.0296
28811W        W45659   6.522  17.275  11.695 -0.0757  0.2156  0.1482
28812W        W45660   9.349   2.358   3.679  0.3169 -0.2656  0.3084
28813W        W45661   7.276  10.734   4.598  0.2299 -0.1910  0.3057
28814W        W45662  15.384   7.256  11.222 -0.1538 -0.0309  0.0521
28815W        W45663  17.314   5.342   5.183 -0.3931 -0.1773  0.0324
28816W        W45664  16.134  17.261   0.620 -0.1275  0.3468 -0.1813
28817W        W45665   9.803  16.162   1.940 -0.3043 -0.2573  0.2292
28818W        W45666  15.308   0.127   3.115 -0.3660 -0.0662 -0.0112
28819W        W45667  10.565  10.816   3.331 -0.0324  0.1841  0.2782
28820W        W45668  15.639   4.524   2.938 -0.0578  0.0018  0.4486
28821W        W45669   2.807   2.208  15.480 -0.1565 -0.0906  0.1470
28822W        W45670  15.327  18.042  15.987  0.0908  0.3097 -0.1092
28823W        W45671  11.666  15.437   0.779 -0.2697  0.1574  0.0614
28824W        W45672   9.448   6.748  15.572  0.0270 -0.0715  0.2878
28825W        W45673   8.720   6.317   0.543 -0.0875  0.0005  0.1737
28826W        W45674  10.065   4.872   0.438 -0.1021  0.0639  0.1456
28827W        W45675   4.060   9.809  14.829  0.3293  0.0711 -0.2319
28828W        W45676  17.548   5.028  14.838  0.0997  0.0756  0.1268
28829W        W45677  11.166  17.893  11.823 -0.2931 -0.0570 -0.4572
28830W        W45678   9.253  16.215  12.779 -0.1191 -0.1020  0.3062
28831W        W45679   4.733  16.471  14.019  0.0058 -0.2449  0.2251
28832W        W45680   1.446  10.730   4.013 -0.3931  0.0395 -0.1145
28833W        W45681   9.274   9.379  16.022 -0.2750  0.1272  0.0078
28834W        W45682   6.030  16.230   4.086  0.2097 -0.0922 -0.1744
28835W        W45683  12.775  16.768   2.491  0.2866  0.1791  0.0947
28836W        W45684  14.431   0.452   4.645  0.1199 -0.3365  0.4024
28837W        W45685   7.584   1.263   4.598 -0.0571  0.1724  0.2502
28838W        W45686   1.379   5.096  12.626 -0.0665 -0.3282 -0.1265
28839W        W45687   4.497  11.253  13.957 -0.0237 -0.0490  0.1956
28840W        W45688   6.779  13.031   0.067 -0.2698  0.0285  0.2461
28841W        W45689  17.925   2.900   1.669  0.1125 -0.0060 -0.3213
28842W        W45690   2.286  15.310  14.269 -0.1971 -0.0541 -0.1117
28843W        W45691   4.682   5.484  14.348  0.1968 -0.3896 -0.0383
28844W        W45692   9.852  15.766   4.935  0.2422 -0.0843 -0.3776
28845W        W45693   0.845   6.975  14.051  0.1972  0.0066  0.1621
28846W        W45694  13.353   3.484   3.521  0.1042  0.0811 -0.1293
28847W        W45695  17.804   7.153   1.939  0.0266 -0.0881  0.1975
28848W        W45696   6.068   8.952   0.076 -0.1489  0.0886 -0.1745
28849W        W45697   4.612   3.105   4.706  0.0538 -0.1703 -0.0048
28850W        W45698  13.526  12.367  13.209  0.1412 -0.0246 -0.1161
28851W        W45699   4.538   0.035  13.389  0.1426  0.2481 -0.4172
28852W        W45700   5.875   4.458  14.046 -0.0711 -0.2406 -0.0593
28853W        W45701   2.674   2.727  13.255 -0.0189  0.1965 -0.0102
28854W        W45702   2.215   4.951   1.367 -0.0013 -0.1646  0.1287
28855W        W45703   1.908  17.336   2.364  0.0087  0.1864  0.2665
28856W        W45704  13.962  12.700  12.190 -0.0912  0.0112 -0.0341
28857W        W45705  15.493  13.567  14.916  0.0522 -0.0090 -0.0295
28858W        W45706   2.783  10.337  15.347  0.0651  0.0152  0.0834
28859W        W45707  16.937   2.371  14.419  0.1783  0.0075 -0.0369
28860W        W45708  10.846   6.333   3.859  0.1047 -0.0609 -0.1504
28861W        W45709   0.293   4.128   5.048 -0.2128  0.1763 -0.2160
28862W        W45710   0.446   6.252   3.713  0.2559 -0.0327  0.2753
28863W        W45711   4.358   0.225  15.797  0.2949 -0.0374 -0.3451
28864W        W45712  12.420  15.765  10.420 -0.1215 -0.0829 -0.1354
28865W        W45713   5.307  10.785  15.625  0.0168  0.0368  0.0822
28866W        W45714   3.532   4.976   2.321  0.1831 -0.1143  0.2539
28867W        W45715   1.369  14.456   4.390  0.1876  0.1999 -0.0653
28868W        W45716   6.715  16.650   3.325 -0.0264  0.0993 -0.3381
28869W        W45717   2.053  10.602   0.644  0.0484  0.0630  0.3019
28870W        W45718   0.189   5.159   1.183 -0.0728 -0.4469  0.0086
28871W        W45719   3.429  13.460   1.391 -0.0170  0.0857 -0.4085
28872W        W45720  15.341   4.002   5.105  0.1449 -0.2328  0.0839
28873W        W45721   7.484  16.364   3.570  0.2368  0.1691 -0.1915
28874W        W45722   6.329  12.053  12.432  0.2167  0.0684  0.0896
28875W        W45723   3.991   7.205   3.397 -0.3914 -0.2939 -0.2242
28876W        W45724   9.456  12.038   4.905 -0.0275 -0.1052 -0.0296
28877W        W45725   1.609   8.171  15.545  0.1640 -0.0928  0.0810
28878W        W45726  11.314   1.362   0.963  0.0325  0.0778  0.0473
28879W        W45727   4.459  10.068   2.253 -0.3343 -0.0218 -0.3370
28880W        W45728   9.497   6.503   0.051 -0.1987 -0.0235 -0.1342
28881W        W45729  16.593   4.514   3.222 -0.2289  0.1214  0.1680
28882W        W45730  12.736   5.608   3.019  0.2782 -0.2230  0.0695
28883W        W45731  16.372  11.309  13.059  0.0902  0.4235  0.0939
28884W        W45732  16.506  10.637   1.691  0.1972 -0.0687 -0.2948
28885W        W45733   8.308  13.067   3.803  0.3101  0.3739  0.3072
28886W        W45734   0.377  13.272   4.335 -0.0003 -0.1108 -0.2665
28887W        W45735   8.180   8.903  13.953 -0.0320  0.0757 -0.0848
28888W        W45736  11.980  11.260  15.950  0.0666  0.0490 -0.1810
28889W        W45737   4.323   9.076   0.411 -0.1860 -0.0142 -0.3185
28890W        W45738   3.948   7.893  15.665 -0.3781 -0.1093  0.0374
28891W        W45739   4.354  17.396  13.166  0.2294 -0.0166 -0.3965
28892W        W45740   6.267  10.375  15.463  0.3281 -0.2816  0.1686
28893W        W45741   6.987   5.971   3.953 -0.2444 -0.0397 -0.1357
28894W        W45742  14.558  14.948  14.294 -0.1295  0.1047  0.0393
28895W        W45743  10.097  15.893   0.613  0.1403  0.1079  0.1642
28896W        W45744  15.217  12.686   2.318 -0.2426 -0.3973 -0.0197
28897W        W45745  10.368   2.550  13.436  0.4202  0.3865 -0.1030
28898W        W45746  13.878   3.662   0.231 -0.0423  0.1375 -0.0684
28899W        W45747  12.114   6.806   2.484 -0.1333  0.0956  0.0938
28900W        W45748   3.242  15.995   0.178  0.0189 -0.0802 -0.0950
28901W        W45749  16.585  10.269   4.429 -0.1075 -0.0625 -0.0245
28902W        W45750   6.186  12.180  15.880 -0.2433 -0.1948  0.0965
28903W        W45751  15.759   2.666   4.774  0.0270 -0.1336  0.3612
28904W        W45752  10.084   4.096   5.605  0.3699 -0.0782 -0.1093
28905W        W45753  13.612   7.577   1.005 -0.4617  0.2801 -0.1267
28906W        W45754  17.772  10.799   4.505  0.1539  0.0634 -0.1089
28907W        W45755   0.399   2.438  12.453 -0.2184 -0.0620 -0.1740
28908W        W45756  11.057  11.930   4.398  0.3135  0.1449 -0.0192
28909W        W45757  14.781  14.477   5.364 -0.2942 -0.3226  0.1715
28910W        W45758  15.545   9.586  11.862 -0.0449  0.1695  0.0807
28911W        W45759  12.305  13.286   4.164  0.1035  0.2414  0.0920
28912W        W45760   4.998  15.892  13.615 -0.0277  0.1582  0.0130
28913W        W45761  11.004   4.026   3.658  0.1057 -0.2179 -0.1826
28914W        W45762   0.432   1.429  14.362  0.5560  0.4698  0.3510
28915W        W45763   7.498  11.592  15.300  0.1617 -0.0613  0.0034
28916W        W45764  12.664   9.641  16.092  0.2135  0.0954  0.0976
28917W        W45765   6.564   3.890  12.927 -0.3437  0.1111  0.1535
28918W        W45766   2.443  17.293   4.389 -0.0350  0.0157  0.0180
28919W        W45767  12.072  13.123  14.873 -0.3508 -0.1658  0.2416
28920W        W45768   1.226   1.415   3.239  0.0207  0.0333 -0.0102
28921W        W45769  17.311   7.602  13.555 -0.2449  0.0281  0.0745
28922W        W45770   8.927   0.158  15.854  0.4189  0.1430 -0.3834
28923W        W45771   6.117  15.898  11.996  0.0143 -0.1542  0.2786
28924W        W45772   7.280   7.096  14.698  0.2335  0.1207  0.0250
28925W        W45773  10.964  14.395   4.634  0.2024 -0.0846 -0.0621
28926W        W45774   4.742   2.729   1.419  0.0618  0.0292 -0.2345
28927W        W45775  17.753   3.414   3.840  0.0368 -0.0102  0.2803
28928W        W45776  10.512  17.299   5.477  0.0404  0.0510 -0.1224
28929W        W45777  12.143  12.690   0.827 -0.2161 -0.0867  0.1238
28930W        W45778   8.056   1.781  11.346  0.0468 -0.2405  0.0760
28931W        W45779  17.217  14.773  14.894 -0.1270 -0.1240 -0.0537
28932W        W45780   2.156  14.948   1.767  0.0960 -0.0191  0.2312
28933W        W45781  15.799   5.580   2.998  0.1731  0.1053  0.1658
28934W        W45782   5.152  14.048  14.797  0.1853 -0.0185  0.0285
28935W        W45783  13.614  14.636  14.372  0.0690  0.0809 -0.1614
28936W        W45784  11.422   8.295   1.283  0.1248  0.1976 -0.0473
28937W        W45785   2.180   5.467  15.545 -0.3789 -0.0599  0.0641
28938W        W45786   2.888   3.606  12.100  0.1773  0.3551 -0.1868
28939W        W45787   2.739  16.867  13.891 -0.3098  0.3826 -0.3184
28940W        W45788   9.632  12.663  15.718  0.2045 -0.1098  0.2662
28941W        W45789  11.606   8.367  13.174 -0.0879  0.2732 -0.0049
28942W        W45790  16.970  12.401  15.098 -0.0597  0.0391  0.5574
28943W        W45791   0.506  12.795  13.955 -0.1368 -0.3261 -0.0509
28944W        W45792   4.461  17.627   0.723 -0.2243  0.1176 -0.0742
28945W        W45793  14.850  10.769  14.143 -0.1356 -0.2492 -0.2967
28946W        W45794   3.830   3.287  10.989  0.0027  0.2294 -0.2906
28947W        W45795  16.615  11.620  13.393  0.1916 -0.0126  0.2522
28948W        W45796   0.762  11.379  11.719  0.0502 -0.2017 -0.2454
28949W        W45797  11.037   8.689  13.434 -0.1405 -0.0927 -0.2163
28950W        W45798  15.385  16.741   3.457 -0.1138  0.0669  0.3417
28951W        W45799   6.440  14.929   1.674  0.0284 -0.1832 -0.1158
28952W        W45800   5.965   5.042   2.258 -0.0168  0.2517 -0.0098
28953W        W45801   2.820   8.410   3.228  0.1488  0.3309  0.3246
28954W        W45802   7.865  11.905  15.010  0.4274 -0.1689 -0.0916
28955W        W45803  14.535  17.250   5.764 -0.1511  0.1386  0.0520
28956W        W45804   5.524   5.280   3.243  0.0686  0.0274 -0.3191
28957W        W45805  12.675  16.305   2.345 -0.2791 -0.2630  0.1885
28958W        W45806  16.987  15.248   4.712  0.0032 -0.1223 -0.1762
28959W        W45807   6.032   9.230  14.412  0.1745 -0.2622 -0.0840
28960W        W45808   8.962   7.474  15.501 -0.0343  0.1023 -0.3419
28961W        W45809  12.329   2.834  15.741  0.1203  0.0989 -0.0616
28962W        W45810   9.802  14.772   1.702  0.2113  0.2269 -0.2226
28963W        W45811   5.507   9.218  11.088 -0.2101  0.1377  0.2054
28964W        W45812   0.413   8.659   3.904  0.0367  0.1769  0.0172
28965W        W45813  13.906   1.668  15.350 -0.1338  0.0044 -0.0504
28966W        W45814   0.143   5.970   1.411  0.1282 -0.2145 -0.1683
28967W        W45815  16.012  13.392  11.486 -0.4036 -0.2008  0.0619
28968W        W45816   7.304  11.288  13.200  0.2746  0.0756  0.0730
28969W        W45817  11.343  15.867   0.805 -0.1071  0.0527  0.0135
28970W        W45818  12.742   1.726   3.984  0.1984 -0.2215  0.1833
28971W        W45819   9.813  10.197   5.030  0.1511 -0.2682 -0.0093
28972W        W45820   2.269  17.346  15.752  0.2445  0.1441 -0.2136
28973W        W45821   6.878  13.305  15.920  0.0472  0.1471 -0.0456
28974W        W45822  16.600   9.015  12.532  0.0973  0.2861  0.0378
28975W        W45823   1.367  14.930   2.619  0.1612  0.0510  0.0547
28976W        W45824  14.164   9.032  15.101 -0.1382  0.1835  0.1940
28977W        W45825  14.816  10.410   3.704  0.0413  0.1571 -0.0901
28978W        W45826  15.911   6.420   4.904 -0.2251 -0.0678 -0.0213
28979W        W45827  15.964  17.502  12.088 -0.1064  0.1781  0.1002
28980W        W45828  13.280  12.998   1.201  0.1305 -0.1656  0.0802
28981W        W45829   4.573   1.281  14.488 -0.0727  0.0232  0.0757
28982W        W45830  16.457   2.856  11.374  0.1135 -0.1217 -0.1353
28983W        W45831  11.748   7.227   1.866  0.0526  0.1683  0.1319
28984W        W45832   0.430  13.493  12.257 -0.3243 -0.0051 -0.1803
28985W        W45833  17.948   0.744   0.393  0.1905 -0.1619 -0.3343
28986W        W45834   7.414  11.331  15.729 -0.2398  0.0823  0.0877
28987W        W45835   5.699   7.147   2.478 -0.0731  0.1602  0.3132
28988W        W45836  12.138   1.569   0.817  0.2313  0.0686 -0.2060
28989W        W45837   7.328  13.664   3.796  0.0595  0.2803 -0.0181
28990W        W45838   6.958  11.067   3.862 -0.1096  0.0607  0.3748
28991W        W45839  18.046   5.303  15.536  0.3352 -0.0558 -0.0100
28992W        W45840  11.523  10.132   2.692  0.1185  0.0551 -0.0527
28993W        W45841   9.892   0.724  14.517 -0.0318 -0.3690 -0.2372
28994W        W45842  12.637  17.606   3.752  0.0354 -0.3395  0.4296
28995W        W45843  15.050  13.796  16.167  0.0283 -0.0867  0.0607
28996W        W45844   0.798  13.105  15.619  0.3132  0.1732 -0.2013
28997W        W45845   6.076  17.421   0.446  0.4392  0.0922 -0.0849
28998W        W45846   3.732  14.975   0.828  0.0670  0.0700  0.1454
28999W        W45847   2.623   0.851  11.626 -0.0175 -0.1758  0.0952
29000W        W45848  11.546   6.108  11.645  0.3244  0.1158 -0.0957
29001W        W45849   2.868  10.152   2.340  0.1738 -0.0383 -0.0605
29002W        W45850   5.550  15.388   0.388 -0.2021  0.1624  0.1028
29003W        W45851   5.411  15.780   3.556  0.1027 -0.0706  0.2404
29004W        W45852  10.076  12.648  14.120  0.2141  0.1082  0.2044
29005W        W45853   0.800   9.687   4.603  0.1214 -0.0597  0.3044
29006W        W45854   1.187   6.512  12.160  0.0147 -0.2557 -0.1056
29007W        W45855   6.149  11.853   3.306  0.2306 -0.0052  0.1901
29008W        W45856   4.181   7.454  12.068  0.2681  0.1631 -0.1861
29009W        W45857   8.764   7.256  12.167  0.2385 -0.1630  0.0924
29010W        W45858   5.860  15.478  11.937  0.0065  0.1391 -0.1852
29011W        W45859  17.028  16.876  14.513 -0.0453 -0.1603 -0.0950
29012W        W45860   4.002   4.821  12.785  0.1152 -0.0408 -0.1526
29013W        W45861  13.334  13.637  15.583 -0.0106  0.0692 -0.3099
29014W        W45862  16.417  11.348  11.560 -0.0119  0.1272  0.0731
29015W        W45863   8.089  15.060   1.147  0.2163 -0.0650 -0.0728
29016W        W45864   4.607   3.047  15.773 -0.0727 -0.0083 -0.1948
29017W        W45865   7.843   2.882  15.068 -0.1120 -0.0286 -0.0426
29018W        W45866  15.713  10.691  11.607 -0.0792  0.0729  0.0832
29019W        W45867   7.584  13.214  10.507  0.1223 -0.0046  0.0745
29020W        W45868   6.638   6.244   0.381 -0.1030 -0.1888  0.2159
29021W        W45869  14.819   7.866  12.541 -0.0066  0.5447 -0.1998
29022W        W45870   3.663  10.112  10.736  0.1588  0.0432 -0.2463
29023W        W45871   2.159  15.460  15.524  0.0329  0.0422  0.0457
29024W        W45872   0.703   7.960  14.342 -0.0255 -0.2247  0.7464
29025W        W45873  14.060   2.811  13.905  0.1964 -0.1412  0.0566
29026W        W45874  11.500  16.201   1.322 -0.2112 -0.1014 -0.0130
29027W        W45875   8.362  10.866  13.927 -0.3391  0.0166 -0.1418
29028W        W45876  12.573   7.538   1.676 -0.0943  0.3098 -0.0157
29029W        W45877  16.199   3.597   0.886 -0.0840  0.1322  0.1329
29030W        W45878  12.241   5.854   0.298  0.2251 -0.1755  0.0766
29031W        W45879   5.744   6.039   4.570 -0.3424  0.0254 -0.0151
29032W        W45880  12.424   6.554   4.649  0.0204 -0.1281 -0.1064
29033W        W45881   9.088  14.659   4.342  0.2438 -0.0782  0.3050
29034W        W45882  14.818   4.116   5.437  0.1674 -0.3298  0.0982
29035W        W45883   9.122   2.712  15.633 -0.0657  0.0713  0.2008
29036W        W45884   4.313  15.654   3.383  0.2766  0.1037 -0.0154
29037W        W45885  17.905  12.305   1.030  0.1447 -0.3242 -0.4332
29038W        W45886   4.362   2.763   0.672 -0.0315  0.1213 -0.2247
29039W        W45887  10.066   3.450  11.624 -0.0356 -0.0220  0.0672
29040W        W45888  10.993   5.151   2.629 -0.1567 -0.0084  0.2557
29041W        W45889   7.360  15.032   3.662  0.0675 -0.2236  0.0364
29042W        W45890   7.361  11.652   0.327  0.0451  0.1851  0.0622
29043W        W45891   6.883   9.583  14.070 -0.2633 -0.0585 -0.1805
29044W        W45892   4.024   8.571  13.606  0.0855  0.3094 -0.2160
29045W        W45893   5.473   6.076   1.483 -0.0054 -0.1398  0.1894
29046W        W45894   0.161  10.899  15.065 -0.0908  0.0488  0.0541
29047W        W45895  11.867   1.436  12.498  0.0268  0.3028 -0.0090
29048W        W45896  17.555  15.476  13.520 -0.0029 -0.0181  0.1235
29049W        W45897   9.833  11.907  13.717 -0.1137  0.4853  0.2884
29050W        W45898   8.557  14.973   1.389  0.1800  0.2248 -0.0449
29051W        W45899   6.334   5.407  11.557  0.1638 -0.0233 -0.0825
29052W        W45900  15.750  14.094   4.927 -0.1230 -0.2453 -0.1855
29053W        W45901   7.177  12.580  14.625  0.0782 -0.2535  0.0813
29054W        W45902  17.445  14.590  14.487  0.0327  0.0585 -0.0073
29055W        W45903  15.369   5.371   2.981 -0.0794  0.1838 -0.0883
29056W        W45904   8.264   6.853   1.922 -0.2461 -0.0371  0.2847
29057W        W45905  13.259   6.651  12.604 -0.1804 -0.0256 -0.2749
29058W        W45906  17.312   2.205   3.016  0.1998 -0.2180  0.0100
29059W        W45907   3.546   0.113  15.523 -0.0004  0.0190  0.1904
29060W        W45908  10.705   6.301  15.110 -0.1031 -0.1120 -0.0454
29061W        W45909   2.699  16.090  14.785 -0.1485  0.3929 -0.2192
29062W        W45910  17.591   2.632  11.512 -0.0755 -0.2536  0.1115
29063W        W45911  17.519   6.515   0.505 -0.0808 -0.0195 -0.0258
29064W        W45912   6.602  11.628  15.249  0.0531  0.1808 -0.1282
29065W        W45913   3.054  11.194  16.329  0.0419 -0.0724 -0.4451
29066W        W45914  13.444  10.854   5.517  0.1389  0.1992  0.2088
29067W        W45915  16.238  17.910  12.060  0.0408  0.0197 -0.0677
29068W        W45916   6.955   3.241  15.539 -0.2304 -0.2060  0.0059
29069W        W45917   7.827   5.223   4.028  0.2567 -0.1403  0.1746
29070W        W45918  13.155   1.223  15.188  0.3807 -0.0114  0.1308
29071W        W45919  13.401  15.905   4.036 -0.2515 -0.3118 -0.0087
29072W        W45920  17.164  16.834   5.003 -0.0930  0.0193 -0.3081
29073W        W45921   9.978  10.497   0.260 -0.0156  0.2647 -0.0077
29074W        W45922  17.813  13.800  16.293  0.0355 -0.1290 -0.1428
29075W        W45923  15.678  17.572   1.277  0.1608 -0.1023 -0.0414
29076W        W45924   4.346  15.204  12.662 -0.1419  0.0792 -0.1997
29077W        W45925  17.505   4.068   3.361  0.0860 -0.1207  0.0915
29078W        W45926  10.049  15.013  14.561  0.0280 -0.2178  0.0148
29079W        W45927  17.050  14.147   4.684  0.1692  0.1036 -0.1036
29080W        W45928  10.613   6.464   1.854  0.1331 -0.0374 -0.0868
29081W        W45929  10.093  10.751  14.851 -0.0909  0.0486 -0.0906
29082W        W45930  10.125   7.590  15.668  0.2026  0.0318  0.0760
29083W        W45931  11.136  10.497   2.042 -0.2923  0.0184 -0.0652
29084W        W45932   7.296  16.766   4.387  0.4059 -0.1554 -0.1050
29085W        W45933  14.478  12.226  13.303 -0.0097  0.0112 -0.0652
29086W        W45934   6.726   4.205  11.231  0.1279  0.0485 -0.1587
29087W        W45935   2.419  11.367   3.040  0.1624 -0.1370  0.0782
29088W        W45936   5.750  10.977   1.765  0.1053 -0.0949  0.0723
29089W        W45937   1.606  14.555   3.975 -0.0813 -0.0824  0.3625
29090W        W45938   8.423  16.979  16.283 -0.0883  0.2540  0.0316
29091W        W45939  15.556   8.772  13.780 -0.0691 -0.0785 -0.0178
29092W        W45940   8.111   1.145  12.075 -0.2284 -0.0448 -0.2191
29093W        W45941  15.919  17.121   3.705 -0.1434 -0.1218 -0.1705
29094W        W45942  13.213   0.055   1.846 -0.1533 -0.2697 -0.0552
29095W        W45943  11.864   1.616  14.355  0.5610 -0.2708  0.1259
29096W        W45944  17.727  17.271  12.529  0.1985  0.4705  0.2005
29097W        W45945  16.646   2.311  16.231 -0.0238  0.2509  0.2700
29098W        W45946  11.804  14.621   1.276 -0.0838 -0.0991 -0.1333
29099W        W45947   2.794   1.244  14.683  0.2451  0.0429 -0.0595
29100W        W45948   5.455  12.708  14.138  0.0281 -0.0432  0.3766
29101W        W45949  17.792   6.097  10.974 -0.0407  0.1109  0.0057
29102W        W45950   4.079  16.380   1.784 -0.0224 -0.1256  0.1058
29103W        W45951   1.285   0.541   1.414  0.2201 -0.0044  0.0264
29104W        W45952  10.021  15.071  11.752 -0.1737 -0.0212 -0.2937
29105W        W45953  12.455   3.272  12.486 -0.0479  0.1079  0.1783
29106W        W45954  17.456   2.806   5.357 -0.0248 -0.0400 -0.2494
29107W        W45955   3.375   0.898   3.446 -0.0371 -0.0803  0.1617
29108W        W45956   3.659   7.868   0.690 -0.2938  0.1818 -0.1062
29109W        W45957  10.958  17.122   4.532  0.1261 -0.1623  0.1572
29110W        W45958  12.419   4.898   2.969  0.1583 -0.0556 -0.2261
29111W        W45959  10.196   7.008   3.203 -0.1982  0.1049 -0.0488
29112W        W45960  13.891   5.153   4.539  0.0537  0.1406 -0.2744
29113W        W45961   9.499   4.898   0.497 -0.1177 -0.0715  0.1368
29114W        W45962  10.760  12.637  15.249 -0.0459 -0.2274  0.1942
29115W        W45963   1.058  13.606  13.886  0.0308  0.1768 -0.1708
29116W        W45964  15.791   2.643   2.226 -0.1163  0.2229  0.1592
29117W        W45965   1.859  17.137  15.570  0.1636 -0.1843 -0.0052
29118W        W45966   7.969   8.443   5.127 -0.3229  0.0403  0.2878
29119W        W45967  11.036  13.411  11.720 -0.0356 -0.0182  0.0306
29120W        W45968  15.999  10.930  11.981 -0.0861 -0.1765  0.1093
29121W        W45969  14.263   3.610  15.573 -0.1769 -0.0513 -0.1241
29122W        W45970  15.523   8.176  12.409 -0.0917 -0.4905 -0.2143
29123W        W45971  10.203  14.777   1.119 -0.0577  0.2163 -0.0547
29124W        W45972   5.816  11.557  11.621 -0.2084 -0.1342 -0.0857
29125W        W45973   5.031   8.404   0.375 -0.0234 -0.0683  0.0179
29126W        W45974   8.363  17.344  14.958  0.0063 -0.4264 -0.0561
29127W        W45975  10.231   5.761  15.818 -0.0068  0.2246 -0.0664
29128W        W45976   2.929  12.202  16.012  0.0805 -0.0976 -0.0722
29129W        W45977  16.749  13.278   3.602 -0.1921  0.1727  0.1264
29130W        W45978  17.028   5.484   1.387  0.0746  0.1643  0.0183
29131W        W45979   5.868   9.593   4.315 -0.0155 -0.0924 -0.0913
29132W        W45980  14.937  10.633  11.227  0.0771  0.0277  0.1970
29133W        W45981   6.332   1.312  13.221 -0.3713 -0.0617  0.2060
29134W        W45982  10.580  13.178   3.626  0.2429  0.1493  0.0956
29135W        W45983   7.313  17.313   3.597 -0.0700 -0.1053  0.1462
29136W        W45984  10.362   7.567  13.170  0.2341 -0.1265  0.0849
29137W        W45985  16.084   7.664   1.459  0.0625  0.1225 -0.0098
29138W        W45986  11.270  10.203  11.882 -0.0944 -0.0998 -0.0405
29139W        W45987   6.898   4.366   0.591 -0.3541 -0.5258 -0.0021
29140W        W45988  14.344   9.544  12.346 -0.2486 -0.2617 -0.2512
29141W        W45989  15.489   6.452   0.878 -0.2445  0.0765 -0.2923
29142W        W45990  15.172   7.752   2.146 -0.2310 -0.0498  0.1661
29143W        W45991   2.769   8.159   2.751  0.0273 -0.1637 -0.2675
29144W        W45992  16.150  16.492   1.096  0.1587 -0.3554  0.1066
29145W        W45993  13.944  10.238  15.320 -0.2510  0.1659  0.0033
29146W        W45994  13.696   2.440  16.305  0.1802  0.0650  0.1350
29147W        W45995  12.404   4.289   3.281  0.1999 -0.1021 -0.0480
29148W        W45996   8.519   4.802   1.491 -0.1079 -0.0573 -0.1203
29149W        W45997   1.229  15.135  14.883  0.1666  0.2478 -0.0431
29150W        W45998  14.899   1.149  14.552 -0.3411  0.2486  0.4582
29151W        W45999  16.227   8.996   3.420 -0.0403  0.1145 -0.0267
29152W        W46000   2.195   4.165   4.734 -0.0287 -0.0913  0.0616
29153W        W46001   1.709   9.043   4.384 -0.1553 -0.0652  0.0309
29154W        W46002   1.256  14.632   3.654 -0.3945  0.0157 -0.3288
29155W        W46003  12.506  14.119  11.925  0.0637 -0.2249  0.3988
29156W        W46004   6.619   1.842   5.219  0.3456  0.1235 -0.0812
29157W        W46005   7.302  13.623   4.367  0.0178 -0.1974 -0.0739
29158W        W46006  12.254   6.110  13.174 -0.0627 -0.0578  0.2572
29159W        W46007   9.061  16.259  13.298 -0.1251 -0.5411  0.2397
29160W        W46008  10.508   8.411   5.041  0.2470  0.2564 -0.0902
29161W        W46009  14.225   6.194   2.116 -0.0829 -0.2857  0.0470
29162W        W46010   1.721  14.801  14.324 -0.4508  0.0918 -0.2787
29163W        W46011  16.703   3.936  15.149 -0.0856 -0.1496 -0.1058
29164W        W46012  13.575   6.756   0.875 -0.1751  0.0639 -0.2350
29165W        W46013  15.926  13.735   1.554  0.1383  0.0073  0.1007
29166W        W46014   4.913   7.193   0.367  0.0271 -0.0106  0.1147
29167W        W46015   3.820   4.042  14.370 -0.1097  0.1646  0.1581
29168W        W46016   6.414   1.454   0.613 -0.1385 -0.2362  0.1056
29169W        W46017  18.062  16.045   3.741 -0.1801 -0.3265  0.3047
29170W        W46018   9.022   9.303  14.633 -0.0202  0.0831 -0.0029
29171W        W46019  11.685   6.975   3.340 -0.1509 -0.1364  0.1274
29172W        W46020   8.758   8.684   3.114  0.2145  0.0684 -0.1190
29173W        W46021   3.458   2.435  12.120 -0.1056  0.2277 -0.1643
29174W        W46022   4.872   9.444   5.418 -0.3309 -0.1471 -0.0608
29175W        W46023   0.750   0.146   2.584  0.1153 -0.0173 -0.2832
29176W        W46024   3.170  14.540  11.818  0.1668  0.4871  0.1159
29177W        W46025   5.845   4.652  10.724 -0.3710 -0.1576  0.3881
29178W        W46026   4.389  10.178  14.926  0.0043  0.1384  0.3468
29179W        W46027  12.114  10.053  11.607  0.4025  0.1855 -0.0762
29180W        W46028   6.005  17.527  14.942 -0.3160 -0.0433  0.0161
29181W        W46029  14.107  17.079   2.217 -0.2085 -0.1538 -0.2443
29182W        W46030  17.144  13.957  14.502  0.1269 -0.2053 -0.2107
29183W        W46031  11.215   6.202  14.941 -0.0205 -0.2024 -0.0674
29184W        W46032   3.327   3.610   0.735  0.3487  0.1450  0.0127
29185W        W46033   7.578   5.462   4.990  0.0998  0.0870  0.0245
29186W        W46034  11.072   5.873  10.775 -0.0199 -0.2192  0.4064
29187W        W46035  14.076  15.889   5.771  0.3363 -0.3536  0.5337
29188W        W46036  12.312  14.973   1.309  0.3405 -0.1535  0.1287
29189W        W46037   9.515   6.799   3.968  0.1158  0.1810 -0.0331
29190W        W46038  15.911  11.653  11.500  0.4986  0.4048 -0.1543
29191W        W46039   9.948  12.813  13.614  0.0712  0.3532  0.0183
29192W        W46040   0.893   2.696   4.270  0.1514 -0.2547  0.1537
29193W        W46041   9.658   6.937   0.269  0.3906  0.2886 -0.2937
29194W        W46042  11.899  17.533   0.336  0.1571 -0.0503  0.0167
29195W        W46043  11.558  10.038  15.077  0.1954  0.3746 -0.0311
29196W        W46044   3.231  17.505  12.674  0.0898 -0.2067 -0.2127
29197W        W46045  10.378  17.556  16.234  0.1478  0.3293 -0.1275
29198W        W46046   4.315  13.745   1.924 -0.1705  0.2710 -0.0329
29199W        W46047   6.679   8.439   3.855 -0.3679 -0.0673  0.1102
29200W        W46048  11.163  10.506   2.964 -0.0786  0.1911 -0.1500
29201W        W46049   4.625   8.858   0.929 -0.0319  0.0259  0.0868
29202W        W46050   6.548  15.509   1.791 -0.1733 -0.2173 -0.3172
29203W        W46051  11.935  11.847   2.419 -0.0127 -0.1892  0.1854
29204W        W46052   9.099  16.883   5.021 -0.1328  0.0435  0.2409
29205W        W46053  15.729   1.510   1.342 -0.1000 -0.3096  0.0316
29206W        W46054  14.636   7.160   4.387  0.1741  0.0041  0.0799
29207W        W46055   8.655   9.691  12.901 -0.1295 -0.0411  0.2614
29208W        W46056  11.991  13.594  15.150  0.1326 -0.1695 -0.0227
29209W        W46057   8.247  15.308  14.121 -0.1123  0.1725 -0.1058
29210W        W46058   0.147  11.089   5.204  0.0262  0.0795 -0.0622
29211W        W46059  17.540  10.925   2.703  0.1103 -0.1201  0.0335
29212W        W46060  11.910   1.333  14.862  0.2128  0.0547  0.2110
29213W        W46061  13.717  12.360  11.224  0.1322  0.3011  0.1863
29214W        W46062  10.790   5.282   4.661 -0.0770 -0.0999 -0.0372
29215W        W46063  10.085  15.854  10.547 -0.1718 -0.1086 -0.0072
29216W        W46064  16.352   1.075  14.839  0.1814 -0.2405 -0.5034
29217W        W46065   9.333   7.757  11.408 -0.0476 -0.1770 -0.1089
29218W        W46066   5.731  17.174   3.809  0.1076 -0.1397  0.0635
29219W        W46067   6.921  17.082  11.897 -0.0915  0.0936 -0.2471
29220W        W46068  16.079  16.260  12.613 -0.0347 -0.3175  0.3108
29221W        W46069   5.416   8.274   4.092 -0.1778  0.0871  0.0868
29222W        W46070   8.009  17.086   1.463 -0.3876 -0.3641 -0.2570
29223W        W46071   4.942   5.925  14.482  0.1306  0.0098 -0.0718
29224W        W46072  14.825   8.695   0.016 -0.0217 -0.0240  0.1074
29225W        W46073  14.318   4.492  11.269 -0.2607  0.1659  0.2617
29226W        W46074   5.543   4.343  15.722  0.3737 -0.0921  0.1059
29227W        W46075   6.919  10.109   6.008 -0.0459 -0.2228  0.2653
29228W        W46076  10.614  13.889   4.010 -0.1749  0.0094  0.1794
29229W        W46077  17.576   6.489   2.530 -0.0310 -0.1405  0.0605
29230W        W46078  13.697   4.676  14.077  0.2875 -0.1504  0.3088
29231W        W46079   5.935  11.680   4.395 -0.2161  0.3452  0.2197
29232W        W46080   5.017   2.341   3.163  0.1464 -0.0638 -0.0749
29233W        W46081  12.561   8.057  11.536 -0.2407  0.4202  0.0397
29234W        W46082   4.918  11.676   1.999  0.1015  0.0488 -0.2214
29235W        W46083   6.416   9.454   3.641 -0.1340  0.3324 -0.1102
29236W        W46084   9.578  13.993  11.978 -0.0682  0.2971 -0.0557
29237W        W46085  10.260   1.074  13.756  0.2391  0.0293 -0.1945
29238W        W46086   1.277  11.057   3.568  0.2192  0.0926 -0.3358
29239W        W46087   4.707   0.338   4.480 -0.0593  0.1305 -0.2289
29240W        W46088   0.515  10.807   4.858  0.0666 -0.2416 -0.0924
29241W        W46089  11.894   1.953  12.786 -0.5038 -0.0012  0.1370
29242W        W46090   7.323   6.416  15.380 -0.1620 -0.1062 -0.1032
29243W        W46091  11.566   6.495  11.997 -0.0660 -0.1893  0.1283
29244W        W46092   8.616   4.198  11.382  0.0413  0.0890  0.1489
29245W        W46093   2.956   0.842  13.268  0.3280 -0.1056  0.0932
29246W        W46094  14.331   3.556   5.056 -0.4010  0.1488 -0.0902
29247W        W46095  15.215   9.777   0.610  0.1064  0.0567  0.1534
29248W        W46096   9.723   7.481  15.371 -0.0529 -0.1385 -0.1480
29249W        W46097  17.069  15.752   0.808  0.1607 -0.0715 -0.4727
29250W        W46098   1.345   8.437   2.445  0.5096  0.1089  0.2030
29251W        W46099   1.012   3.369   4.648  0.4084 -0.0638  0.3842
29252W        W46100  12.914  15.870  15.171  0.1142 -0.1815  0.2157
29253W        W46101  12.730  10.242   2.195  0.3237 -0.0985 -0.0737
29254W        W46102   3.917   4.657   2.448 -0.0284 -0.1815 -0.1027
29255W        W46103  13.221  13.775   5.764 -0.3943 -0.2672  0.3574
29256W        W46104  13.395   7.540  15.825  0.0442 -0.0080 -0.2921
29257W        W46105  11.149   8.224   0.868 -0.2182  0.2596 -0.1007
29258W        W46106  13.399   7.603  12.735 -0.3323 -0.0081  0.1219
29259W        W46107   8.176   3.841   1.084 -0.1806 -0.0191 -0.0212
29260W        W46108   0.390  16.437  10.772  0.1526  0.2278  0.1438
29261W        W46109   2.085  16.227  12.303  0.0209  0.3018  0.3617
29262W        W46110  14.667  14.598   6.318 -0.1288  0.3654 -0.2695
29263W        W46111  10.174  16.558  15.131  0.0893 -0.1905 -0.0682
29264W        W46112  12.464   3.228  14.981  0.0516  0.2208 -0.2201
29265W        W46113  16.061   6.244   2.803 -0.0191  0.3631  0.0073
29266W        W46114  16.875  14.735   5.405  0.0737  0.2282 -0.4566
29267W        W46115  13.236  10.043   1.159  0.0688 -0.0405 -0.0293
29268W        W46116  14.368  17.014  16.227 -0.0961 -0.2488 -0.0477
29269W        W46117   3.420  13.925  15.652 -0.1505 -0.2719  0.1619
29270W        W46118  16.178   9.322   1.970 -0.1558 -0.2686  0.3538
29271W        W46119   9.186  12.596  16.029 -0.0563 -0.1789 -0.2432
29272W        W46120  16.731   5.827  14.768  0.1134  0.0235  0.0506
29273W        W46121   4.446   5.192  12.906 -0.0600 -0.3220 -0.0312
29274W        W46122   9.623   2.758   1.007 -0.1295 -0.3111 -0.0375
29275W        W46123  13.811  10.039   3.983 -0.2056 -0.0295 -0.2691
29276W        W46124  17.414  10.986  11.407  0.3088  0.0258  0.1895
29277W        W46125   8.728  15.296   6.347  0.2941  0.2787  0.0883
29278W        W46126   8.239  11.361  10.792  0.0547 -0.0799  0.0112
29279W        W46127  14.072  12.314  13.619 -0.0069 -0.1380 -0.4437
29280W        W46128   5.254  16.816   5.296 -0.1072  0.0486 -0.2060
29281W        W46129   2.831  15.692   3.656  0.1687  0.0526 -0.0929
29282W        W46130   3.418  12.168  14.262  0.0676 -0.0941  0.2716
29283W        W46131   9.848   6.516   1.502  0.2505 -0.1008 -0.0187
29284W        W46132   7.738  15.106   4.478 -0.0139 -0.1453  0.1181
29285W        W46133  16.820  17.742  12.203  0.0410  0.1116  0.0092
29286W        W46134  13.314   2.063   1.865  0.1188  0.1764  0.1314
29287W        W46135  11.052  16.609   2.815 -0.0512 -0.3273  0.1291
29288W        W46136   4.998   2.898   5.015 -0.1381 -0.3749 -0.3950
29289W        W46137   3.337   4.482  13.255 -0.1497 -0.0388 -0.2329
29290W        W46138  13.853   2.211  15.312 -0.0843 -0.2483 -0.2516
29291W        W46139   2.727   9.133  12.033 -0.0618 -0.1813  0.3207
29292W        W46140  14.752  11.838   3.620  0.0841 -0.0149 -0.1081
29293W        W46141   9.974  13.612   0.843  0.4046  0.0509 -0.0478
29294W        W46142   0.401   0.191   4.382 -0.0853 -0.0504 -0.0088
29295W        W46143   3.917   6.627   1.319 -0.0715  0.0278 -0.2507
29296W        W46144  12.939   8.131  12.268 -0.0312 -0.0165  0.0147
29297W        W46145  15.462   4.646   1.110 -0.0047  0.0255  0.1688
29298W        W46146   6.981   6.058  11.135 -0.2540  0.0225 -0.0882
29299W        W46147   3.736   7.185  13.402  0.0836 -0.0453 -0.3542
29300W        W46148   1.350   1.612   4.639 -0.0793  0.4300  0.2651
29301W        W46149   2.043   5.704  14.276  0.3841  0.2484 -0.1931
29302W        W46150   1.073   9.629   1.303 -0.0560  0.2223  0.1009
29303W        W46151   2.645   8.756   3.832  0.1096  0.0663  0.0231
29304W        W46152   2.350   7.436   3.425  0.0632 -0.2038 -0.0959
29305W        W46153  18.077   9.627   0.556  0.0602  0.0274 -0.3201
29306W        W46154  15.170   5.215  14.237  0.2543  0.0877 -0.1754
29307W        W46155  16.132   4.491  12.412  0.0007  0.2011 -0.1969
29308W        W46156   7.254   0.529   4.777  0.1484 -0.0193  0.1967
29309W        W46157  12.283  12.109   1.493 -0.1426  0.0235 -0.2022
29310W        W46158  16.167  11.728  14.561 -0.1168  0.1818 -0.2255
29311W        W46159  15.304  12.605  15.129  0.0245 -0.1835  0.0867
29312W        W46160   1.236   1.070   2.032 -0.3637 -0.0549  0.1038
29313W        W46161  11.904   6.119   4.537 -0.1312  0.1509  0.1825
29314W        W46162   4.529   5.258   2.375 -0.2212  0.1462  0.0525
29315W        W46163  14.027   5.174   0.128  0.1605  0.1483  0.1350
29316W        W46164   8.384   2.320   3.444 -0.1826 -0.1571  0.1755
29317W        W46165   9.339   4.212   1.371  0.0805  0.0853  0.1095
29318W        W46166   2.256  14.390  13.160 -0.3304 -0.4808 -0.2959
29319W        W46167  15.572  14.117   0.527  0.1965 -0.1374  0.0462
29320W        W46168   4.078   2.784   0.228  0.0260  0.0987 -0.2265
29321W        W46169  14.268   0.003   3.731  0.0259  0.1882 -0.1547
29322W        W46170  10.699  10.525   4.388  0.0056 -0.1365  0.2315
29323W        W46171   2.682  16.373   5.033  0.1945  0.2743 -0.0183
29324W        W46172  13.776   9.074  13.753 -0.1525 -0.2596  0.0490
29325W        W46173  16.789  11.128  12.752 -0.1232  0.1459 -0.1818
29326W        W46174   1.411  13.890   3.378 -0.1886 -0.2413  0.2062
29327W        W46175  12.628   8.287  13.620  0.0594 -0.1085 -0.1095
29328W        W46176   4.120   8.400  12.633  0.2462 -0.0177 -0.0192
29329W        W46177   6.904  15.175  13.776  0.0319  0.3234  0.1786
29330W        W46178   4.599   2.915  11.281  0.1348  0.1534  0.2112
29331W        W46179   6.971   3.263  11.669 -0.1225  0.1173 -0.1586
29332W        W46180  10.355  11.470  15.700 -0.2364 -0.2771 -0.0027
29333W        W46181   3.574   9.768   5.001  0.3238  0.1712  0.1128
29334W        W46182   5.058   0.761  16.016 -0.0381 -0.2669 -0.2342
29335W        W46183   7.810   0.705   1.792 -0.1865  0.2096 -0.4207
29336W        W46184   0.363  17.836  15.892 -0.0584 -0.3409  0.2522
29337W        W46185   0.490   6.427   3.136  0.4810  0.1677  0.2130
29338W        W46186  11.627   0.726  15.055 -0.0195 -0.3167  0.2958
29339W        W46187  18.078   6.401  12.422  0.1209 -0.1265  0.0181
29340W        W46188   3.762  12.445   0.178  0.2906  0.1451 -0.2147
29341W        W46189   1.405   8.430  14.622  0.0737  0.1293 -0.2848
29342W        W46190  18.091   4.794  15.608 -0.1973  0.0895  0.2354
29343W        W46191   8.034   7.819  14.262 -0.1063 -0.4021  0.2582
29344W        W46192   6.633  10.679   3.897 -0.0129  0.1403  0.1834
29345W        W46193  15.928   7.385  13.987  0.0080  0.1392 -0.0643
29346W        W46194   4.560   6.336   1.890 -0.1909 -0.0063  0.1617
29347W        W46195  17.138   9.828  11.265 -0.2282 -0.2114  0.1375
29348W        W46196   1.514  16.491  14.447 -0.0442  0.2198 -0.0377
29349W        W46197   9.735   4.583   1.295 -0.1531  0.2380 -0.0209
29350W        W46198   1.910  11.265   2.928  0.1658 -0.3156  0.1458
29351W        W46199  15.163   5.354  16.231 -0.1310 -0.5439 -0.0355
29352W        W46200   9.117  13.927  11.796  0.0912  0.1104 -0.0650
29353W        W46201   8.183  16.960  12.552 -0.1148  0.0036 -0.2683
29354W        W46202   4.646   3.759   1.498  0.1422  0.0163  0.2131
29355W        W46203  17.032   5.562  10.417  0.1702  0.2827 -0.1088
29356W        W46204  14.057   3.271  13.044  0.3148 -0.1464  0.2619
29357W        W46205   8.615  11.254  13.747  0.2064 -0.2180  0.1189
29358W        W46206   3.250  10.719  12.592  0.1512  0.1084  0.0186
29359W        W46207   0.782   4.136   1.160  0.0362 -0.1882 -0.3586
29360W        W46208  17.374   8.236   3.635  0.1498 -0.0837  0.2034
29361W        W46209   2.146  12.100   5.419 -0.1662 -0.1541  0.0392
29362W        W46210   1.236  16.606   3.423 -0.2603 -0.0458 -0.4442
29363W        W46211  14.805   7.851  13.721 -0.1112  0.1764  0.1842
29364W        W46212   1.992   7.353   0.751  0.4745 -0.0941 -0.1465
29365W        W46213   9.394   2.396  13.659 -0.1942  0.1101  0.0039
29366W        W46214   0.825   1.044  15.757  0.0779  0.2563 -0.2906
29367W        W46215  15.002   6.863  12.409 -0.4238  0.1723 -0.0308
29368W        W46216   4.964  16.738  13.703  0.2840  0.0478  0.2706
29369W        W46217  13.438   0.052   0.956 -0.1455 -0.0338 -0.0756
29370W        W46218   6.559  14.419  14.394 -0.1326  0.2447  0.0124
29371W        W46219   7.640   1.061   0.276 -0.0321  0.0768  0.2249
29372W        W46220  14.622  13.654   2.196  0.2599  0.0885  0.2319
29373W        W46221  12.551   3.142   2.294 -0.2544 -0.4000 -0.0629
29374W        W46222  16.437  13.740  11.765 -0.0729  0.2622  0.0007
29375W        W46223   1.021  11.105   3.088  0.3068 -0.1049 -0.1683
29376W        W46224  13.822   0.691  11.861  0.0896 -0.0065  0.1276
29377W        W46225  12.993   6.784   1.734 -0.3811  0.0151 -0.1461
29378W        W46226   7.574  16.330   1.127  0.5371  0.3310 -0.2651
29379W        W46227  11.076   9.404   3.075 -0.0461 -0.0479 -0.2307
29380W        W46228  11.286   4.994  13.667  0.2101  0.1296 -0.1088
29381W        W46229   0.684   7.989  13.447  0.0648  0.1208 -0.1835
29382W        W46230   4.162   8.878   4.059 -0.0097  0.3125  0.3027
29383W        W46231   2.488   6.266  12.247  0.1187  0.0255  0.0250
29384W        W46232  10.663   7.158  11.863  0.1240  0.0570  0.0489
29385W        W46233  17.675  14.589  16.148 -0.2157 -0.1165  0.1163
29386W        W46234  17.074   2.883  13.319  0.3295  0.0881 -0.0815
29387W        W46235   3.705   2.044  15.229  0.1125  0.0806  0.1684
29388W        W46236  11.184   4.732   2.403 -0.2410 -0.0597  0.1812
29389W        W46237  12.331   1.863   0.262  0.0083 -0.1089 -0.0996
29390W        W46238   6.756  13.298  11.563 -0.1372 -0.2204  0.1796
29391W        W46239   0.973  14.072  13.432 -0.2367 -0.2024  0.2066
29392W        W46240   7.993   7.701   2.051 -0.0867  0.3457  0.3065
29393W        W46241   9.579   9.646  11.644  0.0618 -0.0099 -0.2245
29394W        W46242   4.379   2.880  13.748 -0.0785  0.2225  0.1434
29395W        W46243  17.295  17.945   5.663 -0.0067 -0.1839  0.1273
29396W        W46244   8.257   2.520   4.667  0.1051  0.0911 -0.0278
29397W        W46245   0.228  11.215   1.732 -0.3798 -0.3074 -0.1092
29398W        W46246   2.297  17.625   1.981 -0.1657 -0.0374 -0.2926
29399W        W46247  12.346   2.416  15.545 -0.0218  0.0091 -0.1338
29400W        W46248  10.701  16.506   3.586  0.3125 -0.1471  0.0075
29401W        W46249  15.977  17.572   1.778 -0.0790 -0.0460  0.3966
29402W        W46250   0.551  11.695   1.898  0.1774  0.0986 -0.1933
29403W        W46251   2.223   2.254  14.462 -0.0914  0.1614  0.1154
29404W        W46252  12.730   8.881   1.410 -0.3339 -0.2014  0.1135
29405W        W46253   3.228   2.028   1.451 -0.1863 -0.0730  0.1030
29406W        W46254   0.605   4.615  13.110  0.0057  0.1017  0.0694
29407W        W46255   1.731  13.550   0.917  0.0893 -0.1816 -0.2248
29408W        W46256   2.563   9.736  15.625  0.0271  0.2881 -0.1274
29409W        W46257   4.107  10.098  11.565  0.4040 -0.0107  0.1346
29410W        W46258  11.254   9.741   2.093 -0.1668  0.0079 -0.0415
29411W        W46259  11.214  12.208  10.552  0.0917  0.0006 -0.0636
29412W        W46260   5.165  12.340  16.155 -0.1094 -0.4572 -0.1460
29413W        W46261  17.848  16.403   0.372  0.3007 -0.1586 -0.1864
29414W        W46262   7.080   0.044  15.961  0.1408  0.0838  0.1935
29415W        W46263  12.483  14.138   3.451 -0.2226  0.1055  0.1443
29416W        W46264  11.479  17.669   0.048 -0.1079  0.0743  0.3517
29417W        W46265   1.794  11.900   5.700  0.2559 -0.1250  0.1632
29418W        W46266   1.726   1.016  12.009 -0.0740 -0.0389  0.3173
29419W        W46267  12.440   1.872  15.563  0.1740  0.2328  0.4214
29420W        W46268   9.029  12.149  10.310  0.0310  0.0562  0.3076
29421W        W46269  10.698   8.801  14.213  0.2617  0.0798 -0.1591
29422W        W46270  16.948  11.025  16.266  0.0442  0.0450  0.0613
29423W        W46271   3.130   3.105   1.254  0.3676  0.0819 -0.1762
29424W        W46272   5.676   2.797  14.120 -0.0935  0.3818 -0.0512
29425W        W46273   1.707  11.687   4.105  0.0647  0.3923 -0.0086
29426W        W46274  12.480   2.471   3.336 -0.0916  0.0763  0.0750
29427W        W46275  16.226   3.651   2.688 -0.0151  0.1357  0.0023
29428W        W46276  16.325  13.897   2.945 -0.0319  0.0612  0.0119
29429W        W46277   1.802   5.805   5.134 -0.0426 -0.1579  0.2804
29430W        W46278   6.273  16.373  11.826 -0.1590 -0.1571  0.1918
29431W        W46279   4.706   0.805   4.267 -0.0354  0.0603 -0.2241
29432W        W46280   8.027  17.502   0.618  0.1707  0.0381 -0.1039
29433W        W46281  13.798  16.409   4.368 -0.1147 -0.1271  0.2103
29434W        W46282   7.644  13.657  12.298 -0.2647  0.1164 -0.1242
29435W        W46283   8.308   2.901  11.315  0.2188 -0.0417 -0.1017
29436W        W46284  13.991  16.708   0.083 -0.1650 -0.1895  0.3298
29437W        W46285   1.511  16.114   2.739 -0.5663  0.3810  0.3223
29438W        W46286   4.710  12.910   2.399 -0.1553  0.1494 -0.0576
29439W        W46287  15.147  12.040  14.323  0.0612 -0.1356 -0.0656
29440W        W46288   4.580   3.870  12.052  0.1189 -0.2123 -0.0415
29441W        W46289   1.685   5.292  16.313  0.3083 -0.1467  0.0724
29442W        W46290   2.971  11.556  14.700 -0.3409 -0.1353  0.1465
29443W        W46291   5.137  11.206   3.156  0.1186  0.2528  0.1962
29444W        W46292  17.997  15.978   1.425  0.0029  0.0522  0.1262
29445W        W46293   0.897  17.836  15.944 -0.0594  0.0011 -0.2405
29446W        W46294   7.907   9.237  11.272  0.1992 -0.1017  0.0226
29447W        W46295  14.995   9.074   5.340 -0.1989 -0.2374 -0.1412
29448W        W46296   2.592  18.038  11.724 -0.1413 -0.0801  0.0947
29449W        W46297   9.893   1.587   1.310 -0.2590  0.0102 -0.0625
29450W        W46298  11.053   3.961  15.120 -0.4868  0.1278  0.0903
29451W        W46299  17.695   0.042  14.430 -0.3914 -0.2221 -0.0769
29452W        W46300   4.912  10.354   2.223 -0.3368  0.1084 -0.0167
29453W        W46301  15.142  15.639  13.903 -0.0757  0.2519 -0.0768
29454W        W46302  14.734   3.431  12.096 -0.3765 -0.1860  0.1117
29455W        W46303  17.960   2.515   0.942  0.0036 -0.2396  0.2285
29456W        W46304  12.880  11.649  14.449  0.0463  0.0357  0.2103
29457W        W46305  12.058  17.670   5.082 -0.0574 -0.1227 -0.0226
29458W        W46306   7.981   3.137  13.395 -0.0681 -0.0643  0.3042
29459W        W46307  11.115  16.550   3.363  0.0684 -0.0638  0.2689
29460W        W46308   9.570  12.507   4.044  0.2811 -0.2011 -0.3845
29461W        W46309   7.414   7.434  11.495  0.1965 -0.0898  0.2557
29462W        W46310  10.729   7.606  14.998  0.1181 -0.2123  0.0934
29463W        W46311  15.488  15.542  16.144 -0.1405 -0.1761 -0.0905
29464W        W46312   6.407  17.630   0.870 -0.1031 -0.0676  0.1662
29465W        W46313  14.944  16.129   4.504  0.2196 -0.3456 -0.2435
29466W        W46314  10.872   2.210  11.829  0.2112  0.0548  0.2005
29467W        W46315  13.739  17.947  14.490 -0.0435  0.1191  0.1183
29468W        W46316  13.481  16.146  12.322 -0.0941  0.0992  0.0000
29469W        W46317   6.640  16.857   3.862  0.2847  0.0591 -0.1155
29470W        W46318   1.614   0.954  15.694  0.0519  0.0005  0.0493
29471W        W46319  14.933  13.402   0.763  0.1485 -0.2527 -0.0751
29472W        W46320   8.787   6.428   1.048  0.0587 -0.2763  0.1209
29473W        W46321  11.818   2.611   0.394 -0.2524 -0.2163  0.3743
29474W        W46322   4.531   7.496   4.662 -0.2745  0.0583 -0.1591
29475W        W46323  12.618   1.277  13.111  0.5056 -0.2272 -0.1727
29476W        W46324   5.637   4.042  11.508 -0.0650 -0.1462  0.0421
29477W        W46325   2.304   8.846  12.912 -0.2229  0.0751  0.0513
29478W        W46326   0.492   8.407  16.276 -0.1505  0.1499 -0.2388
29479W        W46327   0.084  14.228  15.704  0.3022 -0.1387 -0.2521
29480W        W46328  15.729   3.372   0.789  0.1436  0.1051 -0.4507
29481W        W46329   4.816  17.756   4.879 -0.3523 -0.0060  0.3724
29482W        W46330   3.006   0.615  16.197 -0.0760 -0.0967 -0.2054
29483W        W46331   1.079   1.036   3.599 -0.0937  0.0542  0.0237
29484W        W46332  10.383   3.436  16.280  0.1699 -0.3502 -0.0162
29485W        W46333   7.759  11.206  14.361  0.0269  0.0771 -0.2853
29486W        W46334   4.477   2.118   0.297  0.1731 -0.1085  0.3220
29487W        W46335  11.299   6.664   2.684  0.1399  0.1624 -0.2646
29488W        W46336  16.654   9.635   5.148 -0.0644  0.2234 -0.1868
29489W        W46337   0.604   0.732   3.202  0.1059  0.3119 -0.1284
29490W        W46338   3.437  14.866  14.907  0.3355 -0.1649  0.0039
29491W        W46339   2.186  16.178   0.719 -0.1081 -0.1594 -0.1096
29492W        W46340   3.410  10.673   1.689  0.0302 -0.2377  0.1002
29493W        W46341   9.761   6.220   1.940  0.1168 -0.1273  0.1049
29494W        W46342  17.567  16.541   4.186  0.0942  0.1303  0.0453
29495W        W46343   0.475  12.438  15.464 -0.0230 -0.2114 -0.0976
29496W        W46344  12.897   9.113   3.348  0.1096  0.1034 -0.0447
29497W        W46345  11.642  12.292   2.953 -0.2115 -0.3762 -0.0691
29498W        W46346   4.637   9.675   2.042  0.0830 -0.0182  0.4262
29499W        W46347   8.124  15.851   4.519  0.2171  0.0836 -0.2942
29500W        W46348   0.559   6.357  13.355 -0.4530  0.0254  0.0603
29501W        W46349   3.187   0.125  13.235 -0.2225 -0.0144 -0.1634
29502W        W46350   3.160   9.698   5.300  0.1784 -0.1910 -0.0797
29503W        W46351   5.239  12.337   0.729  0.2779  0.0413  0.2095
29504W        W46352   5.908  10.185  11.301 -0.1749 -0.1814 -0.0052
29505W        W46353  12.632   9.249   2.041 -0.0127 -0.0360  0.0776
29506W        W46354   8.731  13.717  16.228  0.0153  0.0731  0.1852
29507W        W46355   5.049  11.165   0.234 -0.0278 -0.1174  0.2210
29508W        W46356  17.393   6.322   1.769 -0.2533  0.3062 -0.3237
29509W        W46357  13.538   9.166  15.747 -0.0858 -0.0233  0.2646
29510W        W46358   2.750   8.754  13.779  0.0690 -0.0792 -0.3082
29511W        W46359   2.857  10.191   0.289  0.0921  0.0510 -0.0733
29512W        W46360  10.384   9.319   4.959  0.2079  0.2417  0.2177
29513W        W46361  14.762  16.657  11.376  0.0776 -0.0464 -0.3516
29514W        W46362   3.666   9.236   3.917 -0.0669 -0.1265  0.0152
29515W        W46363  16.792   3.286  12.341  0.2859 -0.0269  0.0584
29516W        W46364   9.137   9.027  11.346  0.1361 -0.4489  0.1785
29517W        W46365  13.527   9.543  12.312 -0.0822  0.0639 -0.0680
29518W        W46366  12.503   0.519   2.617  0.0628 -0.0972  0.2913
29519W        W46367  10.206   8.859   2.849  0.0161  0.0921  0.1281
29520W        W46368   0.525  12.918   4.640  0.0644 -0.1402  0.4074
29521W        W46369  10.720   9.731   4.924  0.1959  0.4102  0.3396
29522W        W46370   4.473   5.251   4.625 -0.0831 -0.0662  0.1608
29523W        W46371   2.294   7.102   2.371  0.0115 -0.0277  0.0718
29524W        W46372   9.091   0.522   5.066  0.1220 -0.1578 -0.1419
29525W        W46373  12.120   1.253  13.139  0.2382 -0.4379  0.3219
29526W        W46374  14.197  14.958  12.408  0.0356  0.0084 -0.5673
29527W        W46375  13.813  15.482   0.495  0.1599 -0.0421  0.1010
29528W        W46376   7.305   3.311   2.259  0.1685 -0.1140  0.0480
29529W        W46377  12.751   2.570  12.904 -0.1773  0.2345 -0.0899
29530W        W46378  15.735  14.257   4.394 -0.0171 -0.1549  0.0008
29531W        W46379   0.540   5.910  15.965 -0.0806  0.0485  0.0608
29532W        W46380   1.415  15.968   0.271  0.1221  0.0342 -0.4077
29533W        W46381   8.941   3.631  16.033  0.1482  0.1140 -0.4577
29534W        W46382   2.345  13.383  13.370  0.2820  0.0712 -0.0500
29535W        W46383   5.063  11.606  12.128  0.0349  0.0050 -0.0696
29536W        W46384  16.496   9.695  15.701 -0.0884  0.0257 -0.0735
29537W        W46385  10.459  10.238   3.086  0.1233 -0.1728 -0.3587
29538W        W46386   1.573  14.217   2.896  0.1907 -0.0095 -0.0246
29539W        W46387  17.499   3.002  12.886 -0.0778 -0.0837  0.0120
29540W        W46388  14.108   9.493  13.416  0.0956  0.1667  0.0974
29541W        W46389  12.696   0.735   0.818  0.0324 -0.0977  0.4499
29542W        W46390  17.341  17.793   1.054 -0.1101 -0.1903  0.0796
29543W        W46391  13.392  12.721   4.848 -0.1482  0.2064 -0.1709
29544W        W46392   2.919   0.021   1.612  0.5346 -0.0282 -0.2369
29545W        W46393  17.495  12.842  14.235  0.1878 -0.2487 -0.1059
29546W        W46394   3.812  11.475  13.809 -0.1579  0.1077  0.1096
29547W        W46395  14.613   0.929   1.831  0.1520 -0.0976  0.0999
29548W        W46396  14.252   7.714   2.148 -0.1530 -0.1740 -0.3303
29549W        W46397   7.119  13.264  10.239  0.2501  0.3538 -0.1615
29550W        W46398   5.599   0.281  14.499  0.0394  0.1179  0.2561
29551W        W46399   7.701   1.501  13.051  0.1579 -0.1871  0.1673
29552W        W46400  17.492   1.784  14.860 -0.2526 -0.0501  0.1510
29553W        W46401  10.913   6.279  11.077  0.0088 -0.0189 -0.0808
29554W        W46402  10.258  12.293  15.437  0.2492  0.0015  0.0499
29555W        W46403   5.933  13.690  11.958  0.2507 -0.0447  0.2080
29556W        W46404   6.274  10.935  11.467  0.1934  0.0493 -0.1691
29557W        W46405  11.739  15.824   3.557 -0.1782  0.2195 -0.0303
29558W        W46406  13.997  15.918   5.287  0.1397 -0.0243 -0.0414
29559W        W46407   0.231  17.355   1.152  0.0024  0.2529 -0.0884
29560W        W46408  15.061   3.283  15.635  0.0588  0.1130  0.0586
29561W        W46409   1.544   2.921  14.048  0.1772 -0.1958  0.3370
29562W        W46410   7.793  12.022  14.057 -0.0154 -0.0831 -0.0107
29563W        W46411  15.862   1.448   0.442 -0.1577 -0.3489 -0.0417
29564W        W46412  16.709   7.916   3.184 -0.0152  0.0796 -0.3506
29565W        W46413   2.817  11.686   3.443 -0.3957 -0.2639  0.0376
29566W        W46414  11.472   4.807   0.536 -0.0519  0.1074 -0.0134
29567W        W46415  13.630   2.737   4.327 -0.1648 -0.0424  0.0522
29568W        W46416   0.176   5.176  11.253  0.0047  0.0486  0.1766
29569W        W46417  18.028  11.482   4.945  0.0084 -0.2364 -0.1933
29570W        W46418   0.070  11.355  14.761  0.1804  0.0238  0.0869
29571W        W46419   5.271  15.900  15.832  0.0101  0.2356  0.0171
29572W        W46420  16.521   9.412   3.449  0.3153 -0.3235  0.0133
29573W        W46421  12.182  16.544  15.658 -0.1157 -0.0794 -0.0718
29574W        W46422  11.968   1.033  15.864  0.1914  0.0827 -0.1642
29575W        W46423   2.282  14.507   4.728  0.0912  0.2464  0.2780
29576W        W46424   3.533   9.242  13.564  0.0615 -0.4290  0.1598
29577W        W46425  10.997  12.600   2.435 -0.1766 -0.0768 -0.1706
29578W        W46426  11.994   5.402   5.089 -0.0677 -0.1642 -0.2152
29579W        W46427   2.676  12.704  14.062  0.2756  0.0371  0.0668
29580W        W46428  12.523   4.607  15.953  0.0853 -0.0001  0.1905
29581W        W46429  11.533   3.319  12.907 -0.1254 -0.0535 -0.0050
29582W        W46430   5.797   2.017   2.219 -0.1856 -0.0842  0.2653
29583W        W46431  14.343   4.283   3.620  0.1501  0.3148  0.1254
29584W        W46432   1.227   1.916  11.474  0.1619 -0.0486 -0.0541
29585W        W46433   2.240   0.001  13.762 -0.0838 -0.0026  0.2486
29586W        W46434   3.408  17.606   1.456 -0.1304  0.0290  0.1443
29587W        W46435   4.720   4.460   2.604  0.2826  0.3860 -0.0028
29588W        W46436   9.679  16.193   3.802 -0.1953  0.2605  0.1465
29589W        W46437  12.467  10.350  11.777 -0.2336 -0.1857  0.2632
29590W        W46438  15.174  13.197   1.721  0.1986 -0.0956 -0.0937
29591W        W46439  13.804  15.921   4.461  0.1349 -0.0294  0.1034
29592W        W46440   6.084  11.865   3.962 -0.0360  0.1445 -0.2775
29593W        W46441   2.064   9.130   3.401 -0.0351 -0.1527 -0.0002
29594W        W46442   1.625   2.811  11.800  0.1144  0.1289  0.1051
29595W        W46443  12.940  15.900  12.396 -0.2706  0.1757 -0.0349
29596W        W46444  11.022   8.934  12.677 -0.0172 -0.1779  0.4219
29597W        W46445  14.930  11.929   1.034  0.0386  0.4296  0.2468
29598W        W46446  14.070   4.282  14.279 -0.1020  0.0836 -0.0174
29599W        W46447   0.013   7.357   2.980 -0.2670 -0.1120 -0.1151
29600W        W46448  14.496   4.838  12.124 -0.2026 -0.0841 -0.1215
29601W        W46449   4.100   6.549   0.842 -0.3103 -0.2254  0.1424
29602W        W46450  17.579   5.769  13.863  0.0548  0.0286 -0.1561
29603W        W46451  11.608   9.762  14.231  0.3488 -0.0557 -0.3358
29604W        W46452  10.491   1.369   3.143  0.0299 -0.0253 -0.1519
29605W        W46453   0.724   0.202  14.793  0.1648  0.2011  0.0020
29606W        W46454  12.754  14.055   3.861  0.2233 -0.0917  0.2574
29607W        W46455   9.886   7.779  14.849 -0.1233 -0.0910 -0.1599
29608W        W46456   7.974   4.498  13.250 -0.3535  0.0282  0.0144
29609W        W46457   9.631   0.248   0.293  0.0608 -0.4134  0.0743
29610W        W46458  12.790  17.778   2.392 -0.2158 -0.2527 -0.1832
29611W        W46459   7.652  13.939   5.128  0.3445  0.2286 -0.0722
29612W        W46460   3.698   7.072   0.222  0.1735 -0.1560 -0.5109
29613W        W46461   6.604  12.100  15.581  0.2033 -0.2693  0.3039
29614W        W46462  15.750   7.541  12.128 -0.2106  0.3079  0.0667
29615W        W46463  11.954   7.841  15.845  0.0160 -0.2064  0.1978
29616W        W46464   3.944   7.457   4.733  0.1398 -0.0376  0.3867
29617W        W46465   4.045   7.376  15.713 -0.0243 -0.0913  0.0560
29618W        W46466   6.787   5.474   1.778  0.1750  0.1076  0.1891
29619W        W46467  14.736  15.332  13.169 -0.0936  0.2947 -0.1209
29620W        W46468  15.586   8.526   4.211 -0.0822 -0.0862  0.3220
29621W        W46469  17.168   1.418   3.442 -0.3144  0.1016  0.1008
29622W        W46470  12.750   5.027   2.213 -0.2044  0.1445  0.1557
29623W        W46471  11.950  10.816   0.591 -0.1269 -0.0032  0.1010
29624W        W46472  10.367   7.405   0.151  0.2787  0.0811 -0.0812
29625W        W46473  11.220  10.682   0.131 -0.1322  0.1961 -0.0322
29626W        W46474  14.094  13.090  14.791 -0.3042 -0.0623 -0.1046
29627W        W46475  12.876  13.755   0.876  0.0980  0.4347  0.1068
29628W        W46476   6.726  17.221   3.501 -0.1570 -0.0044  0.0728
29629W        W46477   9.905   8.437   4.781 -0.0926 -0.0543  0.1920
29630W        W46478   6.253   6.499   4.895 -0.1532  0.1389 -0.1569
29631W        W46479   3.334  12.757  12.386  0.0799 -0.2798 -0.1710
29632W        W46480   4.251  16.463   2.227 -0.2407 -0.0603  0.1505
29633W        W46481  12.110  13.204   1.035  0.2436  0.1919 -0.2920
29634W        W46482   0.414  11.742  12.721  0.0828 -0.1521 -0.0312
29635W        W46483  15.475  13.342  11.462 -0.0078 -0.0731 -0.3214
29636W        W46484   7.427   4.352  13.334 -0.2400  0.3105  0.0723
29637W        W46485  14.542   2.026   4.040 -0.0149  0.1299  0.0151
29638W        W46486   9.471   0.147   4.141 -0.3477  0.0846 -0.1034
29639W        W46487  17.930  14.329   0.732  0.0056  0.1615 -0.2112
29640W        W46488   2.605   5.723   4.809 -0.1891  0.0451  0.2004
29641W        W46489  13.304  10.386  15.018  0.0079 -0.0634 -0.2945
29642W        W46490   6.150   8.097   2.207  0.0614 -0.0540  0.0603
29643W        W46491   7.755   9.834   1.462  0.0682 -0.2482  0.2473
29644W        W46492   6.132  16.647  15.662  0.2348  0.4558 -0.1100
29645W        W46493   7.099   0.129  15.479 -0.1445  0.0950 -0.1378
29646W        W46494   9.011  12.293  15.716 -0.2796 -0.0203  0.3987
29647W        W46495   4.888  12.554  14.452 -0.2448  0.0245 -0.2470
29648W        W46496   4.688  16.312  11.746 -0.0454 -0.3107 -0.0026
29649W        W46497  11.468  17.940   2.448 -0.1366  0.1451  0.1719
29650W        W46498  14.467   5.033   0.437  0.3104 -0.3082 -0.0862
29651W        W46499   9.236   6.492  12.515 -0.3407 -0.0488  0.2634
29652W        W46500  16.164  15.122   4.332 -0.1156 -0.3016 -0.0988
29653W        W46501  11.395   5.543   4.105 -0.2318 -0.1689 -0.0687
29654W        W46502   5.230   0.473  12.172  0.0099  0.2788 -0.0865
29655W        W46503  11.548  12.248  13.811  0.1663 -0.0287  0.0290
29656W        W46504   4.318  16.700  14.310  0.0241  0.0152  0.1398
29657W        W46505   8.509   8.629  13.268 -0.1003 -0.2091  0.2570
29658W        W46506   1.969   3.328   0.598  0.1298 -0.3055  0.4746
29659W        W46507  12.591  15.791   4.958 -0.1995 -0.0419  0.1655
29660W        W46508  17.443  10.346  12.261  0.1127  0.0591  0.0007
29661W        W46509   1.661   7.746   4.993 -0.1266  0.0964  0.0562
29662W        W46510  16.949   9.298  16.152 -0.0160  0.1094 -0.1365
29663W        W46511  12.436   6.439  11.247 -0.0667 -0.0420 -0.0286
29664W        W46512  12.860  10.243  14.792 -0.0049 -0.0093  0.0519
29665W        W46513  14.321   4.469   1.200  0.0287 -0.0945  0.1595
29666W        W46514  13.278  16.346   3.657 -0.2553 -0.3362 -0.0533
29667W        W46515   7.942  10.084   1.003  0.1523 -0.1929 -0.1068
29668W        W46516  14.361   0.429  12.841  0.1453  0.3755  0.2261
29669W        W46517  11.952   5.328  10.632  0.2446 -0.4089  0.0477
29670W        W46518  13.020  16.289  11.438 -0.0075  0.2293  0.1860
29671W        W46519   8.341  14.357  15.162  0.1249 -0.1382 -0.3165
29672W        W46520   0.174   7.818  14.215 -0.0320  0.3987 -0.2172
29673W        W46521   0.964  14.441   4.020  0.0949 -0.3601 -0.2952
29674W        W46522  17.846  10.720  15.908  0.2279 -0.0951 -0.0570
29675W        W46523  17.269  10.232  12.889  0.0159  0.1518  0.3211
29676W        W46524   5.982   0.983  12.502 -0.1470  0.0013 -0.3512
29677W        W46525   1.543  16.337   0.739 -0.2663 -0.3467  0.0612
29678W        W46526   2.056   8.267  13.434 -0.5371  0.2432 -0.0725
29679W        W46527  17.242   6.695   5.236 -0.0972  0.3662  0.3827
29680W        W46528  16.239  14.726   2.468  0.2920 -0.0449 -0.2494
29681W        W46529  10.714   1.680   5.216 -0.0289 -0.0533 -0.1053
29682W        W46530   4.257   9.869  14.326 -0.0251  0.2067  0.0196
29683W        W46531  15.250  17.206  13.854 -0.1857  0.2736  0.1074
29684W        W46532   9.756  15.925   5.435  0.2564 -0.0340 -0.2241
29685W        W46533   7.333  11.056   1.450  0.2598 -0.2568 -0.0209
29686W        W46534   9.748  16.786   3.538  0.0492  0.3150  0.2078
29687W        W46535   6.757   9.593   0.336  0.1110  0.0556  0.0405
29688W        W46536   8.395   9.973   0.146  0.1041 -0.3453  0.0429
29689W        W46537  15.230   1.307  14.112 -0.1275  0.0457 -0.3303
29690W        W46538  10.448   5.259   1.186 -0.2450 -0.2294 -0.2576
29691W        W46539   5.599  17.413  14.592  0.0285  0.1549  0.2885
29692W        W46540   6.890  13.538  14.934  0.0344  0.3494 -0.3779
29693W        W46541   6.479  17.526   5.462  0.0631 -0.2035 -0.0330
29694W        W46542   8.188   3.800   2.487 -0.0100  0.1286  0.1358
29695W        W46543  15.102   1.204   0.941  0.2425  0.2030 -0.2547
29696W        W46544   5.923   3.778  14.984 -0.0654 -0.0973  0.0241
29697W        W46545  18.073  17.555   4.143 -0.0327  0.0900 -0.0627
29698W        W46546   1.897  15.144  12.943  0.2691 -0.0706 -0.2304
29699W        W46547   9.188  10.994  11.289  0.1870  0.3192  0.0693
29700W        W46548   6.513  15.964   3.412  0.1619  0.2202  0.0739
29701W        W46549   1.752   2.779  12.336  0.0525 -0.1683  0.4672
29702W        W46550   8.188  11.867  12.107  0.2081 -0.1687  0.0868
29703W        W46551  12.994  14.612   1.946  0.0215 -0.0264  0.1918
29704W        W46552  16.590   9.186  15.773  0.0311 -0.3766  0.1219
29705W        W46553  13.736  11.484   2.494  0.1923 -0.1018 -0.0678
29706W        W46554  14.068   6.924   0.639 -0.1043  0.3202  0.1284
29707W        W46555  10.921   0.055  13.967 -0.1010 -0.1321  0.1574
29708W        W46556  13.414   0.458  10.975  0.0649 -0.3309  0.0041
29709W        W46557   1.325  16.085   2.237 -0.4141  0.1180 -0.2400
29710W        W46558   9.937   4.200  13.267 -0.0522 -0.3682  0.3033
29711W        W46559   8.801   6.769   2.599  0.0256  0.4275  0.0945
29712W        W46560   8.051   8.984  12.365  0.0137  0.2735  0.4742
29713W        W46561  12.991  17.620   3.398  0.2720 -0.0805  0.1775
29714W        W46562   8.702   4.093  14.992 -0.1003  0.3332 -0.1464
29715W        W46563   1.573   7.389  14.023  0.0083 -0.2038  0.0060
29716W        W46564  12.004  16.167  13.910  0.2687  0.2313 -0.3227
29717W        W46565   4.774  10.286  15.244  0.1456 -0.0944  0.2086
29718W        W46566   0.814   2.835  16.079  0.1396 -0.0835  0.0990
29719W        W46567   9.106  10.916  13.596  0.2212 -0.2201  0.0231
29720W        W46568   2.099  13.598  10.245  0.3247  0.1972 -0.0315
29721W        W46569   9.313  11.990  13.879  0.0260  0.2019 -0.1259
29722W        W46570  16.917   3.037  16.215 -0.1062  0.0232  0.1745
29723W        W46571   6.094   3.526   2.570 -0.4166 -0.0648  0.2831
29724W        W46572   4.093  13.300   2.884 -0.2909  0.1425 -0.5032
29725W        W46573   7.241  15.958  12.966  0.0739 -0.0993 -0.0241
29726W        W46574   9.061   8.186  16.217 -0.0477 -0.2530 -0.0103
29727W        W46575  13.264  17.059  13.247 -0.1405  0.0514  0.0667
29728W        W46576  16.123  15.452   3.556 -0.0570  0.2153  0.0543
29729W        W46577  17.879  14.653   4.213 -0.1085  0.2189  0.1107
29730W        W46578  11.711  17.308  14.172 -0.0958  0.1459 -0.2601
29731W        W46579  17.009   3.667   2.674  0.1500 -0.3089  0.0272
29732W        W46580   6.114   0.875   1.504 -0.0019 -0.0829  0.0295
29733W        W46581   9.257   2.469  15.208  0.0178  0.0266  0.1107
29734W        W46582   8.806  17.548  14.316  0.0649  0.0112  0.1114
29735W        W46583   5.103   4.696   1.087 -0.0419  0.1888  0.0835
29736W        W46584   3.056   0.052   2.766  0.2297  0.2703  0.4001
29737W        W46585   9.164   9.933  11.623 -0.0144  0.1003  0.1231
29738W        W46586  11.245   0.443   0.902  0.0425 -0.0177  0.1012
29739W        W46587  12.649   8.059   2.573  0.0493 -0.0068 -0.2024
29740W        W46588   4.066  13.430   3.835 -0.0615 -0.3138 -0.1025
29741W        W46589  17.218  12.707  13.805 -0.0245  0.2791  0.2431
29742W        W46590  14.915   3.449  12.857 -0.0686 -0.2741 -0.0047
29743W        W46591   5.894   3.442   1.534  0.1568 -0.3404  0.0132
29744W        W46592   9.528  15.416  12.622 -0.1065  0.3045  0.4092
29745W        W46593   0.366   4.691  12.102  0.1992 -0.0125 -0.2166
29746W        W46594  15.500   9.325  13.788  0.1906 -0.1992 -0.1647
29747W        W46595   6.768   0.003   0.558  0.0657  0.1866 -0.2442
29748W        W46596   0.101   3.848   0.876 -0.0193 -0.0554 -0.1433
29749W        W46597   4.453   7.531  16.000  0.4439  0.1582 -0.1512
29750W        W46598   5.355  12.856   5.233 -0.0461 -0.2536  0.0014
29751W        W46599   9.619  13.938  15.311 -0.0181 -0.0807  0.0940
29752W        W46600   1.884   2.030   0.067  0.1194  0.2620 -0.1464
29753W        W46601   2.891   6.050  12.102  0.1473 -0.0016  0.0164
29754W        W46602  14.967   1.724  11.702  0.1090  0.0790  0.2195
29755W        W46603   5.548   5.561  13.837 -0.0594 -0.6017 -0.2506
29756W        W46604   5.449   6.783  11.936  0.0182  0.1637  0.0890
29757W        W46605   2.257   5.693   4.477  0.2053  0.0240 -0.1881
29758W        W46606   9.442   3.834  15.945  0.2009 -0.0745  0.4425
29759W        W46607  15.825   8.033  13.067 -0.1335  0.1419  0.0053
29760W        W46608   8.377   2.892  14.694 -0.1014 -0.0801 -0.0028
29761W        W46609  12.091   8.534   0.645 -0.0070  0.3027 -0.0732
29762W        W46610   0.778   4.249  12.731  0.2579 -0.2135  0.2502
29763W        W46611   3.698   8.181   2.382 -0.0845  0.0745 -0.2226
29764W        W46612   9.590  14.074   6.250  0.1645  0.0460  0.4139
29765W        W46613  15.214  13.497  13.305 -0.0432 -0.1514 -0.0472
29766W        W46614   1.871  16.351  15.221 -0.1746 -0.1506  0.1185
29767W        W46615   3.010   1.769  13.956 -0.0890 -0.0006  0.1295
29768W        W46616   0.055   7.420   1.732  0.2865 -0.0954 -0.0465
29769W        W46617  17.812   6.955   3.234  0.0710  0.1992 -0.0405
29770W        W46618   7.505  13.351  14.362  0.1493  0.4951 -0.1012
29771W        W46619  11.753  14.013  12.205  0.3198 -0.1476 -0.1026
29772W        W46620  13.634  15.227   0.922 -0.1415 -0.3215  0.1580
29773W        W46621  10.745   1.752  14.813 -0.2204 -0.2210 -0.0764
29774W        W46622   4.769  11.125   1.853 -0.1233 -0.0630  0.0021
29775W        W46623   5.227  11.120  14.787  0.2208 -0.3140 -0.1176
29776W        W46624   0.466  15.903  14.093  0.3125 -0.1422 -0.0084
29777W        W46625   3.850   9.630  15.988 -0.1343  0.2296  0.0682
29778W        W46626  10.988  17.173   2.620 -0.0278 -0.1653 -0.1288
29779W        W46627   6.938   5.411   0.740 -0.2079 -0.2320 -0.1911
29780W        W46628  12.247   4.344  11.608 -0.0905 -0.1754 -0.0371
29781W        W46629   4.601  13.473   0.523  0.0084  0.1403 -0.2307
29782W        W46630  12.062  10.241   3.615  0.1007 -0.1702  0.1982
29783W        W46631  12.372   8.929   4.968 -0.0246 -0.1218 -0.0428
29784W        W46632   4.672  13.884  14.796 -0.0329 -0.0492  0.1742
29785W        W46633  14.508  16.991   1.840 -0.0905  0.0559 -0.0230
29786W        W46634  13.300  16.998   3.760  0.1528 -0.1056  0.2170
29787W        W46635  12.203   8.210   4.058 -0.0453 -0.0059  0.3058
29788W        W46636   1.013   5.839   0.766 -0.0882 -0.0186 -0.1801
29789W        W46637   6.373  10.434  11.322 -0.1450  0.2423  0.0187
29790W        W46638   6.973   0.865  15.135 -0.0781 -0.2652 -0.2309
29791W        W46639   9.461  14.150   2.845 -0.1157  0.0687  0.1003
29792W        W46640   0.282  10.423  15.246  0.0555  0.2039  0.0012
29793W        W46641   5.881  17.047   6.091  0.0331  0.0226 -0.2087
29794W        W46642   2.002  13.612   1.818 -0.3350 -0.0266  0.0212
29795W        W46643   4.984  12.878  15.389  0.0118 -0.2972  0.1670
29796W        W46644  14.818  15.372   5.136 -0.1816 -0.1415  0.1353
29797W        W46645  18.096   3.866  11.416  0.3626  0.0424  0.1763
29798W        W46646  16.368   0.046  14.811 -0.1326 -0.0125  0.0940
29799W        W46647  13.001   2.344   1.587 -0.0784  0.2681 -0.1334
29800W        W46648  10.049   9.926   1.799 -0.0284  0.1362 -0.1132
29801W        W46649  12.319   6.315   1.126 -0.1522 -0.3860 -0.0004
29802W        W46650   5.419   4.569   0.641  0.0793  0.2770 -0.3424
29803W        W46651   5.975  17.314  12.051  0.0652  0.0479 -0.3412
29804W        W46652   4.468   9.884  15.315  0.0852 -0.4246  0.2508
29805W        W46653   1.410  11.963   1.986  0.0049  0.0533  0.0327
29806W        W46654   7.700   6.771  15.259  0.0181 -0.3151  0.0831
29807W        W46655  17.091   7.573   1.838 -0.2459 -0.1884  0.0995
29808W        W46656   6.268   1.077  12.114 -0.0868 -0.1043 -0.0012
29809W        W46657   1.748   4.784   2.842  0.0391 -0.4626 -0.0408
29810W        W46658   1.127   5.591  12.393 -0.0725  0.0334 -0.2118
29811W        W46659   7.944  11.840  15.474 -0.1340 -0.0690  0.2524
29812W        W46660   4.460   8.008   3.248 -0.1325 -0.1917 -0.2481
29813W        W46661  17.759  12.280   5.288  0.0019 -0.0658  0.5413
29814W        W46662  12.720   1.547   0.148 -0.2577  0.0304  0.2801
29815W        W46663  15.360  10.612   1.726  0.1025 -0.0345 -0.2189
29816W        W46664  12.790   4.779   2.683  0.0403  0.1226  0.2322
29817W        W46665  15.707  18.036   1.116  0.1557 -0.1264 -0.1251
29818W        W46666  10.746  13.285  13.583  0.3445  0.3292 -0.1342
29819W        W46667   5.274   8.997  11.922  0.2379  0.0731 -0.2478
29820W        W46668   7.092  13.900  15.677 -0.0026 -0.0860  0.1191
29821W        W46669   8.033   1.478  14.466  0.1655  0.4083 -0.2827
29822W        W46670   3.836  15.723   4.163 -0.0851  0.2014 -0.0040
29823W        W46671  14.075  11.264   2.138 -0.0310  0.1385 -0.1004
29824W        W46672  16.228  13.674   0.480  0.0293  0.2121 -0.0408
29825W        W46673   9.527   0.584  13.264 -0.0982 -0.0288  0.2104
29826W        W46674   3.991  12.406   3.540 -0.1969 -0.0717 -0.0427
29827W        W46675  11.965   4.838   4.235  0.1399 -0.1437 -0.0113
29828W        W46676  12.161   6.558  13.319 -0.1787  0.1659  0.2574
29829W        W46677  11.043   7.554   0.222  0.0931 -0.0461  0.2534
29830W        W46678  13.432  14.939   4.280  0.2124  0.3586 -0.2939
29831W        W46679   4.669   5.831   3.624 -0.2819 -0.1963  0.0255
29832W        W46680  12.610  14.550   4.083 -0.0112  0.0709  0.1697
29833W        W46681   9.617   5.594  12.050 -0.0175  0.1928  0.0853
29834W        W46682   8.229  11.443   0.215  0.0527  0.3564 -0.0991
29835W        W46683  12.325   8.875   2.296  0.2388  0.1021  0.0922
29836W        W46684  10.709   5.105  14.636 -0.2210  0.2956 -0.0581
29837W        W46685  10.940  18.073   4.008 -0.0308 -0.3833 -0.1522
29838W        W46686   2.366   7.860   0.270 -0.2384 -0.0016  0.0414
29839W        W46687   8.449   0.424  11.769  0.0670  0.1343  0.0253
29840W        W46688   8.861  10.315  11.573 -0.2454  0.3805 -0.1331
29841W        W46689   8.756   2.700   4.732  0.2051  0.1670 -0.1234
29842W        W46690   7.728   6.856   4.647 -0.2938 -0.2007  0.1071
29843W        W46691   3.769  17.239  15.910 -0.0496 -0.0011 -0.3728
29844W        W46692   6.058  12.771  10.885 -0.0978  0.1458  0.0353
29845W        W46693  12.841   5.495  15.255  0.2762  0.0165  0.2391
29846W        W46694   1.651  17.454  14.384  0.3957 -0.2268  0.3262
29847W        W46695   7.114  12.123   4.961  0.0414 -0.4853 -0.2267
29848W        W46696  13.162  14.529  14.174  0.1504 -0.1309 -0.0142
29849W        W46697   7.190   6.369   4.869 -0.0845 -0.4545  0.2165
29850W        W46698   6.696  14.812  15.451  0.2264 -0.0086 -0.3426
29851W        W46699  13.836   1.418  16.250  0.0722 -0.1639 -0.0420
29852W        W46700   2.307   5.898   0.746  0.2006 -0.5152 -0.1151
29853W        W46701   3.476  11.085   0.318  0.0041 -0.0927 -0.3152
29854W        W46702   9.278  15.166  14.995  0.0808  0.3782 -0.0769
29855W        W46703   1.987  11.564  14.171  0.0735 -0.2189  0.2896
29856W        W46704  11.358   2.385   2.578  0.3120  0.0745 -0.0221
29857W        W46705   2.547   2.195   1.962  0.0419 -0.1944 -0.0032
29858W        W46706   7.268  12.554   1.273 -0.0336  0.0332  0.2510
29859W        W46707   6.702   4.160  15.542 -0.1205 -0.1200 -0.2836
29860W        W46708   1.616   8.864  13.102  0.2296 -0.1136 -0.0955
29861W        W46709   8.913  10.586  11.078  0.0122 -0.1021 -0.2240
29862W        W46710   6.509   3.293   2.257  0.0622  0.1693 -0.0400
29863W        W46711   0.334   7.564   3.682  0.0814  0.1289 -0.1725
29864W        W46712  15.736   5.966   2.419  0.0157 -0.4318 -0.0648
29865W        W46713  11.931  11.072  12.329  0.1669  0.0515  0.2467
29866W        W46714  14.599   1.998  11.704 -0.2689 -0.3476 -0.1268
29867W        W46715  17.960  16.645   2.969  0.2358  0.4425 -0.0073
29868W        W46716  10.894  17.838   1.341  0.2593 -0.1689  0.1285
29869W        W46717  16.638   1.989  14.564 -0.2080 -0.1021  0.2728
29870W        W46718   5.288   3.298   0.759  0.0756 -0.2239 -0.1251
29871W        W46719  14.974  15.142  11.763  0.2239  0.0966 -0.1462
29872W        W46720   2.194   0.703  11.014  0.1527 -0.0945 -0.1744
29873W        W46721   7.566  13.529   1.807  0.0246 -0.3391  0.3690
29874W        W46722  15.647  17.120  11.906 -0.1918 -0.2207  0.2940
29875W        W46723   3.445   4.174   3.370  0.1080  0.0731  0.0928
29876W        W46724   7.074  16.506   2.104 -0.1419 -0.2181  0.0030
29877W        W46725   1.873   1.921   3.519  0.0571 -0.0247 -0.1823
29878W        W46726   9.598   6.601  14.405  0.1728  0.2818 -0.0233
29879W        W46727   9.360  11.867   4.416  0.1102 -0.2829 -0.1174
29880W        W46728  17.859   9.810  13.410 -0.1355  0.0820  0.0870
29881W        W46729  16.950  11.098   3.990 -0.2501 -0.2850 -0.2458
29882W        W46730   1.535   9.854   2.629  0.0561  0.2604 -0.0949
29883W        W46731  16.565   9.161  14.866  0.1769  0.2222  0.2594
29884W        W46732  12.569  16.394   4.794 -0.0718 -0.0243 -0.1345
29885W        W46733   8.980  16.427   5.129  0.1880 -0.0544 -0.0517
29886W        W46734  10.449   8.668   1.738 -0.2719 -0.1058 -0.0850
29887W        W46735   9.543   6.423  15.903  0.1036  0.1153 -0.1476
29888W        W46736   0.104  17.506   0.361 -0.0309 -0.0101  0.2373
29889W        W46737  13.835  15.859   2.802 -0.1743 -0.0606  0.1378
29890W        W46738   9.962  16.619   1.708  0.1313 -0.0515 -0.0543
29891W        W46739  11.189   0.747   4.219  0.1978 -0.1185  0.0738
29892W        W46740  11.687  15.640   4.411  0.1413 -0.3137 -0.3196
29893W        W46741   8.361   9.797  15.019 -0.2268  0.0467  0.0409
29894W        W46742  16.266   7.440  12.186  0.3935 -0.4030  0.0038
29895W        W46743   4.995  16.430   4.058  0.1112  0.0340  0.0350
29896W        W46744   5.914   2.235   1.687  0.1085  0.0075  0.1199
29897W        W46745  14.356  16.592   2.829  0.3581 -0.0287 -0.1107
29898W        W46746  15.122   5.732   1.971  0.0882 -0.0046 -0.0108
29899W        W46747  10.415   3.063  11.486 -0.1854  0.1316  0.3569
29900W        W46748   5.546  10.322   0.121 -0.0972  0.1847 -0.0432
29901W        W46749   1.642  12.877   0.718 -0.0013 -0.4023 -0.1722
29902W        W46750  16.077   7.901  10.322  0.0224 -0.2123 -0.1879
29903W        W46751   9.739   0.558  11.939 -0.0430  0.0278 -0.2637
29904W        W46752  17.260  11.022   4.517 -0.2746 -0.0160 -0.0082
29905W        W46753  14.530  14.964   2.712  0.0707 -0.0399  0.0181
29906W        W46754  15.070   3.595   3.973 -0.1441 -0.0425 -0.4737
29907W        W46755  13.885  16.717  12.917 -0.0014  0.1573  0.0885
29908W        W46756   2.693   3.204   2.884  0.0550  0.1341  0.1507
29909W        W46757   5.742  13.322   5.191  0.1545 -0.1230  0.0618
29910W        W46758  11.337  12.691   1.899  0.5925  0.3380  0.0085
29911W        W46759   8.335  16.027   1.600  0.1410 -0.1620  0.0659
29912W        W46760   3.242   9.105   1.390  0.1781  0.0288 -0.2834
29913W        W46761  17.060   7.799   2.250 -0.3486 -0.0961 -0.1052
29914W        W46762  12.074   9.705   2.873  0.3208  0.0174  0.0189
29915W        W46763  16.132   1.620  15.862 -0.3195 -0.1743 -0.2061
29916W        W46764  15.676   4.776   0.387  0.1704  0.0307  0.1192
29917W        W46765  10.845  12.709  12.383  0.1222  0.1288  0.1102
29918W        W46766  12.014  11.074  11.499  0.0242  0.1086 -0.2430
29919W        W46767   7.904   3.657   3.971  0.2640 -0.0921  0.1813
29920W        W46768  10.877   0.230   1.105  0.1938  0.3005  0.1394
29921W        W46769   2.908   4.227   3.423 -0.2306 -0.1003 -0.2016
29922W        W46770   2.908   2.724  15.055 -0.1329  0.1179 -0.0327
29923W        W46771  13.483  10.347   1.795  0.2289  0.0825  0.2842
29924W        W46772  14.926   5.316   3.275  0.0081  0.3990  0.0621
29925W        W46773  13.884  14.311  13.312 -0.2113 -0.1910  0.0967
29926W        W46774  11.135  12.734   3.665  0.0043 -0.2550  0.1611
29927W        W46775  12.189   0.078  12.347  0.2300 -0.1014 -0.0898
29928W        W46776   1.481   9.338   4.863  0.0415  0.0297 -0.1418
29929W        W46777   3.013   4.450  12.372  0.2914  0.1922  0.1324
29930W        W46778   4.699   1.651  13.563  0.2563 -0.1957 -0.1088
29931W        W46779  15.827  12.436   2.933 -0.0524 -0.0186 -0.1681
29932W        W46780  17.291   8.288   5.029 -0.4024 -0.2444 -0.1890
29933W        W46781  14.898  13.556  12.721 -0.1172  0.1048  0.4502
29934W        W46782  12.125   3.282   3.229 -0.0154 -0.0130 -0.1947
29935W        W46783  17.318  14.234  11.248 -0.1107 -0.3723  0.1224
29936W        W46784   0.415   4.638  15.400 -0.2527  0.0717 -0.0312
29937W        W46785  10.944  15.343  12.625  0.1217  0.1997  0.3929
29938W        W46786   1.427   8.453   3.463 -0.0572  0.0256  0.2933
29939W        W46787  16.411   1.004  12.130  0.2596  0.0610 -0.0109
29940W        W46788  12.460  14.385  13.374  0.1006 -0.2069 -0.2154
29941W        W46789   7.310   6.543   0.773 -0.2366  0.3727  0.2272
29942W        W46790   5.150   1.736   1.449  0.1524  0.1940  0.3976
29943W        W46791  13.518   4.728  13.578 -0.0504 -0.1742  0.0485
29944W        W46792   6.907  13.526  15.421 -0.0787  0.0407  0.0669
29945W        W46793  17.789  17.622  15.299 -0.1990  0.3683 -0.0784
29946W        W46794   5.579  18.044  13.401  0.2510 -0.1079  0.2954
29947W        W46795   3.759  17.702   0.486 -0.0208  0.0382 -0.1825
29948W        W46796   4.608   9.181  15.444  0.0498  0.1950 -0.0601
29949W        W46797  11.465   2.391  12.588 -0.1269 -0.1192  0.2001
29950W        W46798  11.742   0.438   3.777  0.2208  0.0093 -0.0824
29951W        W46799  10.858  13.309   0.357  0.1658  0.0391  0.0069
29952W        W46800   7.119  17.228   1.120 -0.1285  0.2251 -0.1075
29953W        W46801  14.865  14.471  14.374 -0.0395  0.1845  0.1600
29954W        W46802   6.927   1.002  16.009 -0.0720 -0.4241 -0.2229
29955W        W46803  17.273   9.582   1.261 -0.0891 -0.1732  0.1729
29956W        W46804   5.991  16.719   4.602  0.1618  0.3712 -0.3262
29957W        W46805   3.716   8.995   2.602  0.0281 -0.1328  0.1643
29958W        W46806  16.765   8.333   2.939 -0.1621  0.2710  0.0932
29959W        W46807   0.383  17.812   4.277 -0.1793  0.1044  0.1148
29960W        W46808  14.674   9.528   0.709  0.2095  0.4066  0.2424
29961W        W46809  10.840   5.816  12.254 -0.0940 -0.1737 -0.0490
29962W        W46810   3.936  13.899   4.415 -0.4505  0.1022  0.1036
29963W        W46811  14.814  13.725   5.774  0.1017 -0.2440 -0.0589
29964W        W46812  14.502   2.038  15.839  0.3207  0.1548 -0.0224
29965W        W46813  11.742   8.213   4.330 -0.0455  0.0636  0.3243
29966W        W46814   3.713  14.718  12.896 -0.2077 -0.3967  0.2198
29967W        W46815   0.334   5.556  13.599  0.0583  0.1499  0.0187
29968W        W46816   5.116   2.667  14.481 -0.1089 -0.0034  0.0061
29969W        W46817  14.172   6.486   2.613  0.1029 -0.0864  0.2853
29970W        W46818  12.648   1.115   1.182 -0.1743  0.0651 -0.4567
29971W        W46819  15.226   1.033  15.078  0.0162  0.0922 -0.2797
29972W        W46820  11.792  13.999  11.285 -0.0985 -0.0235  0.0127
29973W        W46821   8.930   3.223   0.037 -0.0259  0.0873  0.0307
29974W        W46822   9.053   5.164  15.091  0.0116 -0.1059  0.0868
29975W        W46823  12.006  13.620   4.328  0.2142  0.0662  0.3117
29976W        W46824  17.979   8.165  14.584  0.2593 -0.0579 -0.0514
29977W        W46825   6.133  11.106  13.587 -0.1996  0.0368 -0.1488
29978W        W46826   1.796   8.624  15.823 -0.1627 -0.0132  0.2700
29979W        W46827   4.895  14.026  11.714  0.0451 -0.1083  0.0321
29980W        W46828  15.611   4.087   3.848  0.0426 -0.3027 -0.0450
29981W        W46829  12.865   6.502   2.569  0.0568  0.1179 -0.0963
29982W        W46830  12.393   6.945   3.484  0.2459 -0.0077 -0.3315
29983W        W46831  12.019   9.793  16.017 -0.3024 -0.0473 -0.3068
29984W        W46832   5.084   0.422   4.189 -0.1537 -0.1043  0.3060
29985W        W46833  17.771  13.042  12.799 -0.2026  0.0760 -0.0848
29986W        W46834  14.758   0.815  15.151 -0.3103  0.2000 -0.3322
29987W        W46835   0.720  10.051   3.782 -0.1008 -0.1155  0.1699
29988W        W46836   4.995   5.212  12.111  0.0134  0.2121 -0.1880
29989W        W46837   7.582   8.119  15.939  0.0446  0.0611 -0.1592
29990W        W46838   8.797   8.372   0.263 -0.1587 -0.1014  0.0536
29991W        W46839   8.328   8.026   0.307  0.1377 -0.0150  0.0093
29992W        W46840  11.257   5.202   3.228 -0.1009  0.0537  0.0033
29993W        W46841  13.677   2.662   1.175  0.2493 -0.5131 -0.0891
29994W        W46842  12.113  10.686  14.038 -0.1470  0.1044 -0.0204
29995W        W46843  10.427  17.323   3.265 -0.0909  0.1171  0.5060
29996W        W46844  13.082   9.449   3.752 -0.0333  0.2865 -0.0555
29997W        W46845   1.910  13.775   0.368 -0.0194 -0.1779 -0.1343
29998W        W46846   1.209  15.603  15.066  0.0264  0.1130  0.0552
29999W        W46847   0.484   2.211  13.628  0.0410 -0.1642 -0.1373
30000W        W46848   3.458   2.286  15.948 -0.1333 -0.1011  0.1453
30001W        W46849  12.442  13.735  15.344  0.0504  0.4239 -0.4193
30002W        W46850   9.119  15.597  12.878 -0.4032 -0.0265  0.0821
30003W        W46851  10.025  14.673   3.772 -0.2884 -0.1060 -0.3099
30004W        W46852   1.267  12.205  15.734 -0.2054 -0.0275  0.2307
30005W        W46853  17.711   8.870  16.063  0.0463 -0.0646 -0.2697
30006W        W46854   4.205   4.101   1.820  0.1271  0.0853  0.1910
30007W        W46855   6.098   8.561   1.779  0.0279  0.1585 -0.1406
30008W        W46856  16.266   0.258  13.800  0.0945  0.2069  0.1043
30009W        W46857  16.686   7.616  12.446  0.4407 -0.2612  0.0213
30010W        W46858  13.516   3.442  12.039 -0.2459 -0.0848 -0.0889
30011W        W46859   7.062  13.211  13.584  0.3245 -0.0944  0.0001
30012W        W46860   5.526  17.220   4.556 -0.1965 -0.1714  0.1672
30013W        W46861  16.979  14.125   0.001 -0.2132 -0.0110  0.1245
30014W        W46862  11.045  14.460  14.898  0.1719  0.2143  0.1776
30015W        W46863   5.672  17.711   1.359 -0.0618 -0.1849  0.1500
30016W        W46864   0.641  14.453  11.192 -0.0140 -0.0761  0.1551
30017W        W46865  10.567   5.969   3.637 -0.0393 -0.0775  0.0252
30018W        W46866   7.938  15.529  15.740 -0.0689  0.0218  0.2552
30019W        W46867   9.102   7.230   3.412  0.0077  0.1647  0.0871
30020W        W46868   6.634  15.918  14.420  0.2372  0.2280 -0.2538
30021W        W46869  15.070  16.036  12.693  0.3275 -0.1029 -0.0376
30022W        W46870   9.598  14.679   4.084 -0.1665 -0.2695  0.0715
30023W        W46871   2.972  10.402   1.907  0.2575  0.2807 -0.1905
30024W        W46872   2.922  11.528  13.803 -0.2157 -0.1492  0.0961
30025W        W46873  11.821   9.056   4.303 -0.0275  0.0393 -0.0487
30026W        W46874   1.636  16.492   3.070 -0.1938  0.2124  0.1938
30027W        W46875  11.249   4.687  11.635 -0.0926 -0.3115 -0.0756
30028W        W46876   0.205   2.818  14.787  0.0108  0.1098 -0.2181
30029W        W46877   7.410  14.029   1.594  0.1093 -0.1849  0.0598
30030W        W46878   5.405   6.538   1.167 -0.2326  0.0352  0.2544
30031W        W46879   5.320  12.807   4.671 -0.0936  0.3179 -0.0348
30032W        W46880   7.382   1.581  12.518  0.0979 -0.0648  0.1769
30033W        W46881  16.059   5.879   1.526  0.0093 -0.1798 -0.0259
30034W        W46882  12.524   0.012  14.043 -0.3031 -0.4275 -0.1633
30035W        W46883   5.606   6.704  13.161 -0.1630  0.0477  0.2284
30036W        W46884  12.694  13.944   4.793 -0.2502 -0.1231  0.1119
30037W        W46885   0.452  17.595  14.816  0.2669 -0.2777 -0.1429
30038W        W46886   1.899   2.863   2.231 -0.3262  0.0758 -0.0560
30039W        W46887   1.921   5.450   2.168 -0.2294 -0.3504 -0.1129
30040W        W46888  12.851   6.299  15.395 -0.2286  0.0862  0.0601
30041W        W46889  15.590  11.507  15.989 -0.2238 -0.1226 -0.2830
30042W        W46890   9.526  16.656   4.597 -0.0205 -0.2437 -0.1945
30043W        W46891   8.740  10.866   1.699 -0.0717  0.1268  0.2004
30044W        W46892  12.535   5.318   3.763 -0.0608  0.0257 -0.0685
30045W        W46893  11.105   1.797   4.799 -0.0396 -0.0660  0.0558
30046W        W46894  10.315  13.860  16.088  0.0079  0.0224 -0.2328
30047W        W46895  11.783  13.346  11.988 -0.0134  0.2280 -0.0963
30048W        W46896   1.636  11.630  13.289 -0.1168  0.0125  0.0819
30049W        W46897   2.234   2.163   2.467  0.0146  0.2194 -0.0925
30050W        W46898  11.163  11.335   4.276  0.1317 -0.5245  0.0879
30051W        W46899  14.875   7.620   1.098  0.1341 -0.0091 -0.2337
30052W        W46900   3.366   0.020  14.878  0.0716  0.1858  0.2918
30053W        W46901  14.368   4.064   2.383  0.2010 -0.2082  0.0149
30054W        W46902  17.243  13.524  16.298  0.0298 -0.2112  0.0751
30055W        W46903   8.407  17.503   4.874  0.1209  0.0597 -0.0948
30056W        W46904  10.103  10.951   0.908 -0.0084 -0.2041  0.0850
30057W        W46905  12.720  10.146  16.292  0.1705  0.3280 -0.0061
30058W        W46906   1.176  16.884  14.731  0.2170 -0.0112 -0.1589
30059W        W46907   6.066  11.344   3.407 -0.1478  0.2919  0.0056
30060W        W46908   3.592  16.857  14.097 -0.0375 -0.2957  0.1334
30061W        W46909   8.269   5.182  14.501  0.1543  0.0778 -0.0294
30062W        W46910   1.107   4.318  13.167 -0.1302 -0.1198  0.0133
30063W        W46911  13.833   8.757  12.933 -0.3912 -0.1321  0.4279
30064W        W46912   5.694  17.521  11.638  0.0946  0.1575 -0.3191
30065W        W46913  14.245   7.247   5.038  0.1627 -0.0011  0.0774
30066W        W46914  11.398  14.408  12.484 -0.2791 -0.1180  0.0168
30067W        W46915  15.014  14.276  15.924  0.1455 -0.0113 -0.1893
30068W        W46916  10.683  16.982   1.339  0.1576 -0.0934 -0.2776
30069W        W46917  15.710  15.121  13.515  0.0147  0.0488  0.1668
30070W        W46918   1.067   9.557  11.790  0.3046 -0.0823 -0.2184
30071W        W46919  12.364  11.917   4.485  0.0913 -0.1261  0.1476
30072W        W46920   1.043  14.024  12.843 -0.1327  0.0873 -0.0841
30073W        W46921   8.019  12.022   5.067 -0.1183 -0.1033 -0.1951
30074W        W46922   7.655  17.743   2.152 -0.2819 -0.0777  0.1827
30075W        W46923  14.651  11.907  14.381 -0.0117  0.1341  0.3260
30076W        W46924   9.537  10.571   2.121 -0.0833 -0.0449 -0.0537
30077W        W46925   8.453  12.604  12.833  0.1511 -0.0715 -0.0320
30078W        W46926  15.430   8.969  11.933 -0.1003  0.2081 -0.0595
30079W        W46927  11.561   4.973   1.706  0.1705  0.0376 -0.1189
30080W        W46928   9.837  15.860  15.167  0.0391  0.2816  0.1809
30081W        W46929  18.061   7.855   0.440  0.0299  0.0288  0.0933
30082W        W46930   4.256  11.270   4.446 -0.0451 -0.0563  0.3183
30083W        W46931  13.511  13.693   1.707 -0.2069 -0.0336 -0.0202
30084W        W46932  10.114   5.234   2.382 -0.0450  0.0644 -0.1182
30085W        W46933  17.050  17.685  11.787 -0.2147  0.1562 -0.0330
30086W        W46934  16.096  11.781  13.658 -0.1235  0.1133 -0.1571
30087W        W46935  17.561   2.211   3.437 -0.0997 -0.0032  0.2731
30088W        W46936  15.020   7.349   4.061  0.1119 -0.0824 -0.1728
30089W        W46937   3.647  15.177  16.010  0.1844  0.1339 -0.3118
30090W        W46938  15.689   6.898   5.019 -0.2086 -0.0556  0.2030
30091W        W46939   0.388   2.276  16.186  0.0337 -0.0089  0.0270
30092W        W46940  10.304  13.982   0.733  0.0348 -0.0759  0.3198
30093W        W46941  11.263  11.373   3.211 -0.1150 -0.2969  0.0252
30094W        W46942   9.748  12.804  11.671 -0.4766 -0.1390  0.0090
30095W        W46943   5.355   0.076   1.245 -0.4774 -0.0264  0.2213
30096W        W46944   6.590  15.653  15.140  0.1775 -0.2062  0.2969
30097W        W46945  15.362  16.298   4.706  0.0480 -0.0392  0.1894
30098W        W46946  14.779   6.118  12.167 -0.1120 -0.0589 -0.3049
30099W        W46947   9.114  14.950   4.725  0.1785  0.0993  0.3332
30100W        W46948   2.790  17.618   5.817 -0.3451  0.0676 -0.1073
30101W        W46949  17.605   5.071  15.567  0.0936  0.2432  0.0638
30102W        W46950  15.144   7.994  11.634  0.0450 -0.2002 -0.0253
30103W        W46951  11.020   2.023  14.211  0.1984 -0.1538  0.3583
30104W        W46952  15.981  13.318   0.096  0.0315 -0.0226 -0.3314
30105W        W46953   1.486   7.113   2.757 -0.1500 -0.2917  0.1457
30106W        W46954  13.347   8.174   5.716  0.0883 -0.1317 -0.1710
30107W        W46955   7.808   0.411   2.680  0.0153 -0.0833  0.0701
30108W        W46956   5.950  14.623   2.465  0.0065 -0.1162 -0.1425
30109W        W46957   8.116   7.081  14.450  0.1248  0.0703  0.1955
30110W        W46958   4.483  16.562   1.591  0.2432  0.0338  0.1829
30111W        W46959   7.063  12.634   4.919 -0.1982 -0.1338  0.1496
30112W        W46960   9.281   5.489  11.092  0.1302  0.0304 -0.4734
30113W        W46961   1.062   1.400  12.256 -0.0577 -0.3243 -0.3307
30114W        W46962  16.353  16.990  13.750  0.0286 -0.0875 -0.1616
30115W        W46963  10.081  17.340   2.316 -0.0187  0.3292  0.0616
30116W        W46964  12.899  13.652   2.532 -0.0734 -0.0179  0.4067
30117W        W46965  12.029   3.057  14.854  0.1975  0.0225 -0.2178
30118W        W46966  14.902  11.484   5.208  0.1266  0.0080  0.1789
30119W        W46967  10.910   3.506   3.155  0.0175  0.0484  0.4446
30120W        W46968   1.377  13.270   2.774  0.1133  0.0806 -0.1794
30121W        W46969  13.388   8.127  12.457 -0.0815 -0.3806 -0.0463
30122W        W46970   6.137   9.729   5.397 -0.1482 -0.0971  0.0604
30123W        W46971  14.804   5.944   3.553 -0.3421  0.3221 -0.0057
30124W        W46972   7.806  13.787   2.466  0.2218 -0.1687  0.0469
30125W        W46973  12.819   9.782   1.543 -0.0811 -0.0805  0.2242
30126W        W46974  13.720  10.635   1.292  0.0439  0.0562 -0.0113
30127W        W46975   8.285   3.370   0.289  0.2690  0.0243 -0.1990
30128W        W46976  14.001   8.314  12.691 -0.0097  0.1943 -0.0912
30129W        W46977  17.149   8.153   2.643  0.0890  0.1406 -0.1666
30130W        W46978   0.126   4.572  16.083  0.3354 -0.0375  0.1334
30131W        W46979  10.033  13.386   5.116 -0.1448  0.0652  0.0013
30132W        W46980   3.454  17.058   2.131 -0.1103 -0.0562 -0.1172
30133W        W46981  15.024   7.278   2.942  0.0034  0.3010 -0.0273
30134W        W46982   1.682  12.920  15.962 -0.0553  0.2195 -0.0516
30135W        W46983   8.777   1.724  11.535 -0.0208  0.2287 -0.0457
30136W        W46984   1.765  10.937   4.721  0.1323 -0.1032 -0.0677
30137W        W46985   8.855   1.513  14.942 -0.2308 -0.1248  0.3242
30138W        W46986  13.356   1.652  15.374 -0.3994  0.1346  0.0323
30139W        W46987   3.088  15.133  15.872 -0.0019  0.0091 -0.0789
30140W        W46988  16.621  12.576  15.430  0.1019  0.1557  0.0160
30141W        W46989  14.109   2.496   2.891 -0.1653  0.0977 -0.0742
30142W        W46990   2.916   7.157  10.580  0.1008 -0.3865 -0.1102
30143W        W46991   1.748   6.223   1.455  0.2362 -0.1244  0.2159
30144W        W46992  10.503  16.783   3.983  0.2368  0.2049 -0.2165
30145W        W46993   0.431  15.454  16.136 -0.1789  0.2885 -0.2831
30146W        W46994   9.799  10.569  13.498 -0.0446 -0.0405 -0.0498
30147W        W46995   3.104   1.308  13.505 -0.0301 -0.0563  0.0599
30148W        W46996   2.019  10.874  10.914 -0.1513  0.0672 -0.2622
30149W        W46997   1.900   4.917  13.828 -0.2036  0.0622  0.1233
30150W        W46998  15.433   2.112   4.031 -0.1521  0.0070 -0.0187
30151W        W46999  15.943  10.903  15.168  0.1733 -0.1424  0.0692
30152W        W47000   5.827   4.284   0.864  0.2564  0.0311 -0.1726
30153W        W47001  11.074  15.056  13.985 -0.0031 -0.0664 -0.0957
30154W        W47002   3.108  10.690  14.962  0.0085  0.2119  0.2096
30155W        W47003   7.313  10.279  15.574  0.2138  0.3298 -0.0270
30156W        W47004  11.768   5.032   5.898  0.0491 -0.0490  0.5301
30157W        W47005   8.497  17.793  10.857 -0.0445 -0.1402 -0.1286
30158W        W47006  15.747   2.573   4.267  0.1631 -0.2767 -0.0227
30159W        W47007  15.638  17.957   1.776  0.1551  0.1921 -0.1743
30160W        W47008  13.337  11.460   1.272 -0.0002  0.1877  0.1896
30161W        W47009  16.530   9.118   5.065 -0.0031  0.0975  0.0835
30162W        W47010   1.509   7.371  12.604 -0.3969 -0.1829  0.3014
30163W        W47011   2.056  11.865  15.062 -0.1154  0.1776  0.1310
30164W        W47012   8.012   8.904   4.185  0.0212  0.1825 -0.0484
30165W        W47013   3.714  15.796  15.257  0.0644 -0.0261  0.1227
30166W        W47014   0.315   8.317   0.374 -0.2194  0.2704 -0.0712
30167W        W47015  10.125   1.457   4.607  0.2056 -0.0228  0.4245
30168W        W47016   0.745   6.085  11.130 -0.2221 -0.0584  0.1923
30169W        W47017  13.709  10.199  13.461  0.0825  0.0645  0.3881
30170W        W47018  10.245   3.762  13.148  0.1067  0.0844  0.0497
30171W        W47019  17.727   4.485  15.529  0.1456  0.1207 -0.1388
30172W        W47020  10.308   5.763   1.357  0.0395 -0.1626 -0.0090
30173W        W47021   0.290   4.040  13.841  0.1948 -0.1394 -0.0465
30174W        W47022   6.058  11.629  13.724 -0.2679  0.2431  0.2411
30175W        W47023   3.899  15.413   0.822  0.2650  0.2954  0.1852
30176W        W47024  10.788   6.793  15.363  0.0026 -0.0804 -0.1072
30177W        W47025   7.263   1.194   0.610 -0.6103  0.1573  0.0273
30178W        W47026   9.245   6.749   2.968 -0.3029 -0.2768 -0.3069
30179W        W47027   6.967  14.741   3.518 -0.2678  0.0891 -0.2655
30180W        W47028  16.843   2.470   0.386  0.0083 -0.0770  0.1527
30181W        W47029   5.026   0.069  11.996  0.3315 -0.2552  0.0123
30182W        W47030   9.143  11.221   2.934  0.1577 -0.1394 -0.1589
30183W        W47031   9.917   5.932  13.696  0.2217 -0.2674  0.3639
30184W        W47032   8.100  11.160  16.047  0.1460 -0.0132  0.3807
30185W        W47033   8.963  12.267   4.320  0.1491  0.1290  0.4640
30186W        W47034   6.623   5.151   1.061 -0.1208 -0.2574  0.2272
30187W        W47035   7.167  16.096   6.177  0.1252 -0.0013  0.3909
30188W        W47036  15.593   4.265   0.319 -0.1749  0.4042  0.1078
30189W        W47037  16.571  11.747  12.859  0.0969  0.4292 -0.0790
30190W        W47038   3.652  14.950  15.535  0.2136  0.0875  0.1254
30191W        W47039  11.080   1.786  12.998  0.1927 -0.2589 -0.0279
30192W        W47040   7.846   8.284  15.584 -0.0029  0.1541 -0.0223
30193W        W47041   5.697  17.252   0.008  0.1594 -0.1658 -0.1309
30194W        W47042  16.654  12.319  14.167  0.2095  0.0799 -0.0560
30195W        W47043  10.864   4.483   1.615  0.1244 -0.2147  0.2080
30196W        W47044   1.063   2.228   2.920 -0.1708  0.0319 -0.1863
30197W        W47045   9.080   2.106  13.892 -0.2128 -0.0230  0.1886
30198W        W47046   7.071  14.908  15.753 -0.3013 -0.1119  0.1746
30199W        W47047   3.292   8.114  16.133 -0.0641  0.1679  0.4648
30200W        W47048  15.684   3.054  13.316 -0.1608  0.1059  0.0103
30201W        W47049  16.323  15.081  16.054 -0.0551  0.0436  0.0366
30202W        W47050  14.460  11.392   3.609 -0.2719 -0.0497 -0.1611
30203W        W47051  17.398  17.189  15.319  0.2111 -0.0060  0.0476
30204W        W47052  10.911   0.493  14.268  0.4516  0.0317  0.2187
30205W        W47053   3.157   1.199   0.778 -0.0110 -0.2281 -0.0660
30206W        W47054   5.038   1.297  14.300 -0.4572  0.1294 -0.0251
30207W        W47055  10.500  10.021  14.504 -0.2779 -0.0492 -0.1839
30208W        W47056   2.381  14.971   3.789  0.3573 -0.1658 -0.2399
30209W        W47057  15.785   9.662   3.024  0.2295 -0.1837  0.1528
30210W        W47058   7.498   3.381   4.014 -0.0736  0.0095  0.1942
30211W        W47059   2.649   5.016   0.538 -0.1477 -0.0513 -0.4211
30212W        W47060  14.833   8.925  15.767  0.1141 -0.0026  0.1371
30213W        W47061  16.578  10.659   2.213 -0.1291  0.2177 -0.0225
30214W        W47062  16.625   5.849   1.568  0.2211  0.1452 -0.3634
30215W        W47063   6.227   1.400   5.316  0.4356 -0.0308  0.1657
30216W        W47064   2.571  17.600  14.600 -0.1272 -0.1014  0.1183
30217W        W47065   5.959  14.961   3.849 -0.0091 -0.1893  0.0081
30218W        W47066  14.877   2.934   0.222  0.2612  0.1186 -0.1364
30219W        W47067   5.474  17.868  12.061 -0.2524  0.0496 -0.1632
30220W        W47068   8.737   8.867   1.465  0.0799 -0.0588  0.2302
30221W        W47069   8.024   9.957  10.558 -0.1514  0.0137  0.1321
30222W        W47070  16.803   0.182   3.072  0.1489  0.3456 -0.0960
30223W        W47071   5.693  12.931  13.160 -0.3866 -0.0987  0.1054
30224W        W47072   9.625  12.001   2.679 -0.2620 -0.1347 -0.0156
30225W        W47073   0.806   1.388  13.564 -0.1413  0.1240  0.4186
30226W        W47074   7.535   9.122   3.926  0.2781 -0.1139  0.2812
30227W        W47075  17.438   2.740   5.833  0.2466  0.0927 -0.0151
30228W        W47076   0.143  16.337   5.266 -0.2409 -0.1608 -0.0752
30229W        W47077  10.283   1.862  13.946  0.2538  0.2952  0.1363
30230W        W47078  17.997  15.659  11.856 -0.0105  0.0962  0.1817
30231W        W47079  13.294   9.933  12.531  0.0481 -0.0508  0.2277
30232W        W47080   0.994   6.543   4.261  0.0505 -0.1433  0.0191
30233W        W47081   6.185   1.843   1.550  0.0968  0.1930 -0.0601
30234W        W47082  15.749   7.887   5.224  0.2089  0.2350 -0.1325
30235W        W47083   3.995   8.544   2.611  0.3583  0.3596  0.1556
30236W        W47084  16.098  10.984   3.450 -0.1460 -0.0364 -0.2199
30237W        W47085  11.325   4.309   0.536  0.1391  0.0451  0.0461
30238W        W47086  17.474   4.405   2.429  0.0002  0.1882 -0.0970
30239W        W47087   9.239   8.791   2.839 -0.1612  0.1399  0.3998
30240W        W47088   1.028   4.268   1.637  0.0834  0.2471  0.0749
30241W        W47089  15.146  15.455  14.556  0.1303  0.0304  0.1239
30242W        W47090   2.234   6.208   4.349 -0.2175 -0.2139  0.1669
30243W        W47091   3.613   7.820  13.734 -0.3408  0.1294  0.0749
30244W        W47092  10.823  14.929   2.515  0.1398 -0.1415  0.1396
30245W        W47093  14.834   5.610  12.264  0.1325  0.4031 -0.1088
30246W        W47094   0.767   3.031   3.108 -0.2139  0.0966  0.1771
30247W        W47095  10.516   0.264   0.625 -0.0758  0.3801 -0.2803
30248W        W47096   9.672  10.741  11.331  0.1816 -0.0646  0.1312
30249W        W47097   9.854  13.625   1.470  0.1926  0.0595 -0.2051
30250W        W47098   6.722   6.428  14.013  0.2936 -0.1306 -0.0349
30251W        W47099  12.410   8.679  12.850 -0.1687  0.2999  0.0217
30252W        W47100  12.131  12.023  10.380  0.1493  0.1457 -0.1525
30253W        W47101  12.316   9.639  11.276  0.0648  0.0952 -0.0681
30254W        W47102  15.875   9.523   4.810 -0.0283  0.3102 -0.0184
30255W        W47103   7.419   0.946  14.027 -0.0307 -0.1950 -0.0198
30256W        W47104  15.107   5.797  15.580 -0.2563  0.0952 -0.0635
30257W        W47105   5.452   4.269   4.647 -0.0448 -0.1446  0.3405
30258W        W47106  11.300   0.024   1.369 -0.0684  0.1688  0.0018
30259W        W47107   8.532  13.243   1.696 -0.2982  0.0673  0.2677
30260W        W47108   3.414  16.744   2.990 -0.3120  0.1568  0.1769
30261W        W47109   3.010   9.951  15.703 -0.1654  0.0857  0.2155
30262W        W47110   7.576  14.353   0.046 -0.0057 -0.0090  0.0967
30263W        W47111   6.448   3.508  10.720 -0.2198 -0.2334 -0.2923
30264W        W47112  10.294  13.273  15.859 -0.0227 -0.0255  0.0613
30265W        W47113  13.219   6.215  11.471  0.0124 -0.0348  0.2045
30266W        W47114   7.739   1.731  15.560  0.3835  0.1311 -0.0666
30267W        W47115   5.672  10.806   2.965 -0.2223 -0.0587  0.0496
30268W        W47116  11.193  13.004  13.799  0.2610  0.1034  0.2657
30269W        W47117   1.555   3.112   3.267  0.0059  0.0257  0.0837
30270W        W47118  16.941   8.121  12.491 -0.0303  0.2889  0.0889
30271W        W47119   1.681  17.436  10.932  0.0264 -0.0439 -0.2048
30272W        W47120  11.750  12.400   2.179 -0.0706  0.4865  0.0674
30273W        W47121  12.529  11.553  14.824 -0.0220 -0.0823 -0.0096
30274W        W47122   6.372  15.565  16.226 -0.2399  0.0417  0.1289
30275W        W47123  13.450  13.275   4.806 -0.1772  0.1665 -0.1346
30276W        W47124   2.430  11.545  13.956 -0.2459  0.0265 -0.0111
30277W        W47125  10.682   8.233   3.730  0.1009  0.0819  0.0765
30278W        W47126   7.852   8.453   3.265 -0.0582 -0.1423 -0.1567
30279W        W47127   0.140   1.877   2.810 -0.2912  0.1461  0.0880
30280W        W47128  16.211  10.947  14.484 -0.0586 -0.0083 -0.3331
30281W        W47129  12.042   7.748  11.760 -0.1640  0.2778 -0.3994
30282W        W47130  11.497  13.349   1.999 -0.1164  0.1934  0.0572
30283W        W47131  17.417  15.937  15.390 -0.0610 -0.0339  0.0796
30284W        W47132  13.036   4.309  15.845 -0.2743  0.3266 -0.1107
30285W        W47133   6.661  15.463   4.910 -0.2507  0.1467 -0.2238
30286W        W47134  15.034  14.760   3.908  0.1083  0.1689  0.0188
30287W        W47135   7.584  14.059   4.630  0.0107  0.0380  0.0521
30288W        W47136  11.015   0.887  15.143  0.3444  0.1561 -0.0265
30289W        W47137   0.365   5.469  14.918  0.0850 -0.1885  0.2288
30290W        W47138  13.802  12.007   3.266 -0.0432  0.0262  0.4230
30291W        W47139   1.490   3.283  13.691 -0.0656 -0.0075 -0.1895
30292W        W47140   5.444   7.848  15.578 -0.2591 -0.0202 -0.1923
30293W        W47141   8.594   6.613  15.635 -0.1696 -0.2383 -0.4032
30294W        W47142   9.816   8.587  15.000 -0.1245  0.2066  0.2185
30295W        W47143   5.941   0.397  14.825  0.0087 -0.2865 -0.2357
30296W        W47144   1.568   7.806   4.488  0.1862  0.0179  0.0831
30297W        W47145   2.988   1.035  12.492 -0.3038 -0.1515 -0.1139
30298W        W47146  17.240   9.377  14.094  0.1402  0.0857 -0.4293
30299W        W47147  11.092   3.797   4.642 -0.0466 -0.4150  0.1945
30300W        W47148  16.397   8.497  12.025 -0.5199  0.1770 -0.3520
30301W        W47149   9.012   0.394   2.591  0.1617 -0.0215  0.2802
30302W        W47150  17.040   1.807  11.944 -0.2555 -0.0970 -0.0582
30303W        W47151   8.646   5.261   0.596  0.0779  0.1449 -0.0068
30304W        W47152   9.262  16.708  15.569  0.3154 -0.1691 -0.1431
30305W        W47153  11.956  10.681  15.738 -0.0731  0.0305 -0.0301
30306W        W47154   9.000   0.939   1.876  0.0315  0.2066  0.0045
30307W        W47155   4.270  16.182  13.899  0.2094 -0.0114  0.0691
30308W        W47156  14.218  10.713  16.283 -0.0473 -0.1213 -0.0406
30309W        W47157   1.297  16.439   0.189  0.1488 -0.1178  0.2463
30310W        W47158   9.176  17.097   2.821  0.2472 -0.0044  0.1954
30311W        W47159   6.460  16.354   5.007  0.0683  0.0447 -0.1126
30312W        W47160   0.907   9.758  13.632 -0.1364 -0.1125  0.1457
30313W        W47161   8.953   9.650  12.378 -0.1194 -0.2757  0.0852
30314W        W47162   5.360   1.017   0.097 -0.0553 -0.0015  0.4382
30315W        W47163  14.476   2.291   4.456  0.0198  0.0818 -0.0924
30316W        W47164   3.879  16.251  15.663 -0.1052 -0.2387  0.0721
30317W        W47165  14.279   5.653  13.467  0.1721 -0.2414 -0.2649
30318W        W47166   8.794   8.954   2.567  0.0343 -0.0272  0.2760
30319W        W47167  11.189   1.116  10.502 -0.0678 -0.0615 -0.0312
30320W        W47168   9.832   1.799   4.947  0.0776 -0.1001  0.1105
30321W        W47169   8.659   3.919   5.555  0.1451  0.2858 -0.3328
30322W        W47170  12.454   0.180  11.842  0.1209 -0.0763  0.0313
30323W        W47171  10.735  10.873  10.913  0.0238 -0.1282  0.0147
30324W        W47172  10.515  15.306  11.733 -0.1947 -0.0146 -0.0198
30325W        W47173   4.318   9.443  15.119 -0.0399 -0.2815  0.3548
30326W        W47174  17.271  13.605   4.841 -0.0424  0.1659  0.0274
30327W        W47175   2.959  13.825  15.790 -0.4589 -0.1648 -0.3488
30328W        W47176   0.894   2.384  13.476 -0.2905 -0.0544 -0.2333
30329W        W47177  10.569   3.883   5.527  0.0651 -0.1102 -0.0712
30330W        W47178   2.727  14.837  10.730 -0.0635  0.0880  0.0177
30331W        W47179  13.788  11.732  15.582 -0.2289 -0.3067 -0.4954
30332W        W47180   2.634   3.490  13.935  0.3446  0.0277 -0.2054
30333W        W47181   3.751   4.628   0.838 -0.1915  0.1268 -0.1678
30334W        W47182  16.986  16.454  16.315  0.0620 -0.1432 -0.1472
30335W        W47183   2.160  14.935   1.211 -0.2957 -0.0666 -0.2724
30336W        W47184   5.330   3.546  14.972 -0.0595  0.0373  0.2624
30337W        W47185  11.047  10.577   3.884 -0.0350  0.2197 -0.0120
30338W        W47186   4.368   6.314   3.694 -0.0047 -0.0745 -0.0572
30339W        W47187  13.583  15.354  13.046  0.1947  0.2152 -0.0736
30340W        W47188   0.141  10.885  15.567  0.2838 -0.3032  0.2413
30341W        W47189  11.867  16.133  14.375  0.0717  0.0521 -0.0080
30342W        W47190  15.325   1.228  12.863  0.3306  0.0154  0.0603
30343W        W47191  15.059   5.988   4.103  0.0188  0.2185 -0.2798
30344W        W47192  17.304  17.317  14.483 -0.4322 -0.1887 -0.0367
30345W        W47193   1.769  15.807  11.485 -0.0983  0.2978  0.0913
30346W        W47194  16.636   5.052  14.413 -0.0859  0.1640 -0.1926
30347W        W47195   9.060   7.504  14.010 -0.1232 -0.0804 -0.0398
30348W        W47196   3.921  16.374  14.236  0.2991  0.1985 -0.3411
30349W        W47197  12.527   5.241   5.234 -0.2196  0.0024  0.2752
30350W        W47198   9.448   4.410   1.859 -0.3852 -0.1079 -0.1335
30351W        W47199   8.809   8.843  14.760  0.3638  0.2103  0.1695
30352W        W47200   3.619  10.997  14.956  0.0405 -0.0624  0.1759
30353W        W47201   7.451   7.145   2.873 -0.0648  0.0920 -0.1867
30354W        W47202   7.069  15.169  12.119 -0.0705 -0.1757 -0.1805
30355W        W47203   9.755  17.610   0.686 -0.0319 -0.1519  0.0967
30356W        W47204   3.610   9.248   1.703 -0.0687  0.1250 -0.0243
30357W        W47205   2.479   1.478   1.576 -0.0390 -0.1192  0.2311
30358W        W47206  14.985   7.969   3.422  0.1923 -0.1928 -0.0486
30359W        W47207  15.590  13.816  13.185  0.2715 -0.0253  0.0976
30360W        W47208   4.543   3.064   2.540 -0.0089  0.4209  0.1940
30361W        W47209   1.077   1.977   4.432  0.1043 -0.3201  0.0658
30362W        W47210   1.237   8.469   5.204  0.2230 -0.1519  0.0326
30363W        W47211  11.335  14.426   1.213  0.3645  0.0191  0.0721
30364W        W47212  15.960   9.344  15.086 -0.2114 -0.5382 -0.1478
30365W        W47213  15.823  10.084  12.718  0.0588  0.0867 -0.1263
30366W        W47214   5.451   1.475   0.574 -0.1314  0.1566 -0.1052
30367W        W47215  15.898   6.201   1.934  0.0485  0.4527  0.2983
30368W        W47216  11.066  10.790   1.110 -0.3234  0.0218 -0.0286
30369W        W47217  11.168   5.033  10.346 -0.4939  0.2068  0.2331
30370W        W47218   6.972  14.525   0.124  0.0796 -0.3031  0.2614
30371W        W47219  15.268   3.113   4.054 -0.3113  0.2650 -0.0785
30372W        W47220  14.845   3.662   2.000  0.1824 -0.0466  0.2028
30373W        W47221  14.151   1.158   3.189 -0.2059 -0.0730 -0.5286
30374W        W47222  11.923   2.601  13.563  0.0397  0.0384 -0.3139
30375W        W47223  10.820   1.631   6.126 -0.0630  0.0931  0.0911
30376W        W47224   9.422   7.268  11.375  0.0414  0.0838 -0.0091
30377W        W47225  17.742   2.185   4.561 -0.3158 -0.1102  0.4249
30378W        W47226   8.951   1.456  13.120  0.0639 -0.2700  0.0681
30379W        W47227  11.423  10.314   4.870 -0.0522  0.1333 -0.0324
30380W        W47228  11.633   5.836   0.593 -0.0935  0.0228  0.0144
30381W        W47229  17.253  14.555  15.896  0.1165 -0.1699  0.2837
30382W        W47230  13.028  15.472   1.959  0.0382 -0.2134 -0.2469
30383W        W47231  11.453  15.085  16.139 -0.1186  0.1842  0.0783
30384W        W47232   4.451   4.087   4.569  0.2846  0.1267  0.0123
30385W        W47233  10.435  15.028   5.368  0.1702 -0.2803  0.0316
30386W        W47234  12.081   8.958  14.647 -0.1318 -0.0998  0.1466
30387W        W47235   0.924  15.484  14.559  0.0494  0.3488  0.1454
30388W        W47236   8.502  14.273   1.871 -0.0887 -0.0385  0.2317
30389W        W47237   4.693   1.032   3.677  0.0801  0.0534 -0.4345
30390W        W47238   2.772   6.317  13.898  0.0235 -0.1533  0.2011
30391W        W47239  12.102  15.720  14.598 -0.0964  0.3276  0.2097
30392W        W47240  17.303  15.347  13.906 -0.1774 -0.1038 -0.0480
30393W        W47241   1.623   1.612  12.213  0.0919  0.3650 -0.0151
30394W        W47242  14.461   0.756   4.994 -0.1077  0.0811 -0.1658
30395W        W47243  13.307   1.732   2.231  0.2473  0.1541  0.0217
30396W        W47244  17.275   4.050  13.316  0.0435 -0.1310 -0.0243
30397W        W47245   8.085  16.284   4.726 -0.0932 -0.0335 -0.2283
30398W        W47246  17.760   9.697   2.376  0.1352 -0.0578 -0.0361
30399W        W47247   3.546   2.962   2.698 -0.1072 -0.1092  0.2681
30400W        W47248   2.134   6.310   3.115  0.2112 -0.2559 -0.5973
30401W        W47249   3.199   0.566   5.806 -0.1377  0.2149 -0.1133
30402W        W47250  11.877   8.795  11.855 -0.2152  0.1363 -0.0027
30403W        W47251   4.993   1.914   4.813  0.3181  0.0845  0.1246
30404W        W47252   3.153   2.392  11.679 -0.1123  0.2164 -0.3056
30405W        W47253   9.298  12.145   1.464  0.0502 -0.2027  0.1716
30406W        W47254  15.110  11.004   3.091  0.1288  0.3272 -0.1115
30407W        W47255  15.861  13.008  12.840 -0.0020  0.0388 -0.2326
30408W        W47256   2.342   1.311  14.617 -0.2720  0.3453 -0.3451
30409W        W47257  17.445  11.465  13.379  0.0210 -0.0112  0.1772
30410W        W47258   6.737   9.040   1.953  0.1793  0.0911 -0.0363
30411W        W47259   1.703  16.530  12.017 -0.5128 -0.2966  0.2068
30412W        W47260  17.957   5.295  11.851 -0.1308 -0.1910  0.0263
30413W        W47261   0.732  12.048  15.222  0.1305 -0.0603  0.3117
30414W        W47262  14.028  10.101  13.051  0.0088  0.4790  0.0975
30415W        W47263   7.248   3.538  14.514 -0.1523 -0.0117  0.1682
30416W        W47264  11.155  17.432  15.658  0.1884 -0.3474 -0.0043
30417W        W47265  12.597   9.417   2.596 -0.0847 -0.1294  0.1338
30418W        W47266   1.882   0.308   1.984  0.0672  0.0807 -0.1238
30419W        W47267  17.899  15.687   1.053 -0.1868 -0.0196  0.0978
30420W        W47268   2.198  11.177   0.535  0.3348 -0.1617 -0.0408
30421W        W47269   6.125  10.254  12.086  0.1966 -0.1113 -0.0973
30422W        W47270  11.164   7.255   2.089 -0.2614 -0.3014 -0.2312
30423W        W47271  11.632   1.942   3.864  0.1551  0.2676  0.1388
30424W        W47272   7.924   4.163  14.675  0.1245  0.0475 -0.2357
30425W        W47273   3.102   4.263   2.941  0.2599  0.3792  0.0339
30426W        W47274  12.030   4.038  13.846  0.1104  0.0269  0.1183
30427W        W47275  13.873   3.716   2.085 -0.0474  0.1796  0.2360
30428W        W47276  10.350   7.659   4.807 -0.0575  0.0189 -0.1939
30429W        W47277  14.956  17.042   1.493  0.2175 -0.0221  0.2858
30430W        W47278  12.684  15.260   3.834  0.2468 -0.0510 -0.0940
30431W        W47279   4.275  14.679  14.860 -0.2233 -0.0764 -0.1605
30432W        W47280  11.963  13.976   3.418 -0.0080  0.0932 -0.4468
30433W        W47281  17.953   9.375   4.607  0.1691 -0.2098  0.2606
30434W        W47282   1.060  17.242   5.122  0.0726  0.5454 -0.0585
30435W        W47283   4.951  14.756  14.397  0.1217  0.3232  0.1360
30436W        W47284  17.069  16.484   4.063  0.0662 -0.1028 -0.1220
30437W        W47285  12.974  11.696   5.811 -0.2503 -0.0450  0.1718
30438W        W47286   8.288   0.937  15.716 -0.1732 -0.0116  0.0559
30439W        W47287   7.809   4.876  12.513 -0.0292 -0.0555 -0.0737
30440W        W47288   2.166  12.799  16.126  0.2290  0.1705 -0.0425
30441W        W47289   3.036  12.116   3.108  0.1676  0.0871 -0.0727
30442W        W47290   1.126   4.701   2.876  0.0108 -0.1263  0.0509
30443W        W47291  13.664  16.822   1.636 -0.0956 -0.0905  0.0647
30444W        W47292   5.482   9.849   9.829  0.0867 -0.3443  0.0586
30445W        W47293   7.802  14.641   4.376  0.2452 -0.0064  0.2014
30446W        W47294   9.297   9.074  15.643 -0.0898 -0.0492 -0.0253
30447W        W47295  14.339  12.805   4.858 -0.0290  0.2099  0.2460
30448W        W47296   5.386   4.498  13.867  0.1968 -0.1998 -0.0495
30449W        W47297   4.119   2.407  15.285 -0.1760  0.1158  0.4173
30450W        W47298   6.299   9.001  11.985 -0.0590  0.2008 -0.0186
30451W        W47299   2.103   2.635  14.848  0.1600  0.1181  0.1751
30452W        W47300  10.835   3.524   4.225  0.0063  0.1651  0.0179
30453W        W47301  15.033   0.202   4.615 -0.0839 -0.0840  0.1054
30454W        W47302  17.131   5.972  15.638  0.0425 -0.0615  0.1480
30455W        W47303  14.561   6.378   2.904  0.0621 -0.1470 -0.0920
30456W        W47304  10.248  13.049   0.799  0.0731 -0.0749 -0.0996
30457W        W47305   1.692   4.509  14.049 -0.1541  0.0253  0.1154
30458W        W47306   2.035   7.498  11.773 -0.1924  0.1366  0.1614
30459W        W47307  15.196  12.854   1.314  0.1335 -0.0856 -0.0779
30460W        W47308   4.173  13.539   4.854 -0.0770 -0.3053  0.1681
30461W        W47309  14.858   5.785   5.461  0.0097 -0.0212 -0.1764
30462W        W47310  11.962   5.377  16.274 -0.4171  0.2069  0.0449
30463W        W47311   9.442   0.295  11.645 -0.1685 -0.1084  0.3397
30464W        W47312  15.799  10.264  16.039 -0.0437 -0.0421  0.0436
30465W        W47313   9.127   9.169   3.702  0.1203 -0.0185 -0.0907
30466W        W47314  17.726   6.574   1.503  0.0086 -0.1279  0.1156
30467W        W47315   1.103   5.262  14.019  0.0538  0.1227 -0.0435
30468W        W47316   7.690  12.151  15.895 -0.0206 -0.4388  0.1901
30469W        W47317   5.180   3.639  14.287 -0.2865  0.3286  0.0756
30470W        W47318   2.280  10.421  15.301 -0.0695 -0.3253  0.2374
30471W        W47319   0.958  12.372  11.768 -0.2300 -0.3946  0.0935
30472W        W47320   6.443  17.346   4.748  0.0486 -0.1996  0.2795
30473W        W47321   2.664   0.800   1.564 -0.0608  0.0695  0.1719
30474W        W47322   7.976  11.977   2.880 -0.3780  0.0610 -0.0000
30475W        W47323   8.065  16.616   0.390 -0.3148 -0.1103 -0.1912
30476W        W47324  14.194   2.778   4.374 -0.0724  0.3185 -0.0015
30477W        W47325   9.233  13.060   2.266 -0.0921  0.5245 -0.0749
30478W        W47326   8.015   3.032  16.043  0.2255  0.0263  0.0805
30479W        W47327  16.152  15.969   1.498  0.1328  0.1005 -0.3377
30480W        W47328   8.433   5.899   0.538 -0.2823  0.0742 -0.2181
30481W        W47329   2.570  17.210  14.237  0.1947  0.0500  0.5314
30482W        W47330  16.821  13.292   4.909 -0.1112  0.1072 -0.2685
30483W        W47331   6.783   4.042  15.051 -0.2574  0.2361  0.0021
30484W        W47332  15.879  16.612  14.174 -0.1025  0.2522 -0.0907
30485W        W47333   3.438   9.691  12.511  0.1973 -0.3030 -0.0978
30486W        W47334   5.108   3.380  11.879 -0.1175  0.1889  0.0596
30487W        W47335   2.924  15.589  15.651  0.0052  0.1434  0.1225
30488W        W47336   3.334   6.439   2.575  0.0383  0.0812  0.0883
30489W        W47337  14.180   2.313  14.011  0.1477 -0.1225 -0.0378
30490W        W47338  14.626   1.595   3.001 -0.0396  0.0076  0.0797
30491W        W47339  13.624  10.833  12.709 -0.1005 -0.0676  0.2740
30492W        W47340   9.046   4.751   4.325 -0.1974  0.3214  0.2182
30493W        W47341   8.539   2.362  13.877 -0.0406  0.0525 -0.0567
30494W        W47342  10.417   6.217  13.618 -0.4274 -0.0794  0.2974
30495W        W47343   9.306   0.965   5.096  0.1019 -0.0788 -0.1692
30496W        W47344  12.908  14.681  12.628  0.0591  0.1220 -0.1521
30497W        W47345   7.287  11.057   2.428  0.1126  0.1246  0.2113
30498W        W47346  14.048  15.970   0.615 -0.1468 -0.1259  0.3605
30499W        W47347   0.011   6.558   5.092 -0.0610  0.1955  0.0323
30500W        W47348   5.919  15.644   2.658 -0.0625 -0.0380  0.0207
30501W        W47349  11.480  14.601   3.207  0.2937 -0.0992  0.1874
30502W        W47350   9.063   1.345   4.284  0.1728  0.2400 -0.3515
30503W        W47351   4.827   8.253  13.186  0.0134 -0.0616 -0.1832
30504W        W47352  11.261  13.981  13.965  0.2270  0.0313  0.4072
30505W        W47353  17.547   1.758   3.583 -0.1317  0.0424 -0.2160
30506W        W47354   9.572  16.814   2.443  0.3113 -0.5509 -0.3843
30507W        W47355  11.696   2.951  11.849 -0.2356 -0.0772 -0.0410
30508W        W47356  14.633  11.722   0.635  0.0991 -0.1614  0.2791
30509W        W47357   5.646   0.270  12.154 -0.3610 -0.1135  0.1361
30510W        W47358   5.519   0.049   1.689 -0.1408 -0.3836 -0.0070
30511W        W47359  17.499   5.423   4.703 -0.1265 -0.1355 -0.0543
30512W        W47360  15.519   5.610   0.763  0.1484 -0.4108  0.1088
30513W        W47361   0.791   5.474  15.803 -0.0441  0.3167 -0.1986
30514W        W47362   8.211  16.270  14.351 -0.0047 -0.0207  0.0736
30515W        W47363   9.788  17.754   2.010 -0.0018 -0.1695  0.1550
30516W        W47364  18.076   7.062   5.213 -0.0590 -0.1072 -0.2330
30517W        W47365  13.702   9.321  10.494 -0.0334 -0.0923  0.1847
30518W        W47366  10.721   1.182  13.561  0.0691  0.0388  0.0541
30519W        W47367   0.881  14.227   2.373  0.0340  0.2292 -0.1586
30520W        W47368  11.175  10.078  13.748  0.2351  0.0806  0.0596
30521W        W47369   8.857  16.248   3.848  0.5431 -0.0895  0.0990
30522W        W47370   8.489  13.116   2.769  0.1115 -0.1575 -0.0751
30523W        W47371   0.791   4.414  14.982 -0.1275  0.1316  0.0334
30524W        W47372   8.749   0.011  13.458 -0.2781  0.0981 -0.1253
30525W        W47373   0.901   7.244   1.327  0.2680  0.2413 -0.2415
30526W        W47374  15.124   1.894   2.081 -0.3880 -0.1356 -0.0350
30527W        W47375  13.761  11.788   3.800 -0.1199  0.0338  0.0322
30528W        W47376  17.943   6.734  14.771 -0.1990 -0.3647 -0.0970
30529W        W47377   4.775  15.065   0.601 -0.1311  0.2162 -0.0719
30530W        W47378  17.612  12.318  10.617  0.2363  0.0941 -0.0118
30531W        W47379  14.041   2.506   5.220 -0.2315  0.1810  0.0734
30532W        W47380  15.440  10.203   0.363 -0.0093  0.0636  0.2699
30533W        W47381   3.326   0.279   5.392  0.2575  0.0706  0.2428
30534W        W47382   5.618  11.046  15.106  0.0915  0.0549  0.0523
30535W        W47383   8.620  13.868  13.759  0.1688  0.1447  0.0128
30536W        W47384  11.842   3.073   0.599  0.1026 -0.3618 -0.2364
30537W        W47385  13.796  17.998   3.760  0.1429  0.3013  0.1898
30538W        W47386   1.674  14.604  15.681 -0.1604 -0.0396  0.4853
30539W        W47387   3.930  15.954  12.279 -0.1244 -0.3005  0.1025
30540W        W47388   3.380  11.809  13.938  0.0805 -0.0839 -0.0043
30541W        W47389  11.112  12.491  13.515  0.0043 -0.3157  0.0330
30542W        W47390   7.189   3.161   1.182 -0.1096 -0.1920 -0.1839
30543W        W47391   7.943  18.016  14.943 -0.1014  0.1123  0.2332
30544W        W47392   7.611   2.247  12.295  0.3079  0.0954 -0.0683
30545W        W47393  12.899   2.699   3.282 -0.0877 -0.0324 -0.1613
30546W        W47394   6.845   9.712  14.713  0.0917 -0.1670 -0.2699
30547W        W47395  17.163   1.076  15.502  0.0899 -0.0690  0.1029
30548W        W47396  13.449  14.733  16.280  0.2295 -0.3035  0.2549
30549W        W47397  10.034  12.166   6.053  0.0641 -0.1019 -0.2098
30550W        W47398   8.730  11.705   5.945  0.2145  0.0750  0.2793
30551W        W47399  13.746  15.029   1.457 -0.1310 -0.0483 -0.2528
30552W        W47400   5.473  15.888  14.476  0.0073  0.0226 -0.1061
30553W        W47401  15.443  11.223   3.425  0.0251 -0.0707 -0.1265
30554W        W47402   9.519  14.639   4.618 -0.1140  0.1314  0.0506
30555W        W47403  17.102  12.952   2.939 -0.1262  0.0087 -0.0313
30556W        W47404  15.216   2.728  11.239  0.0292  0.2429 -0.0946
30557W        W47405  15.422  16.438  14.070 -0.0059 -0.2570 -0.2279
30558W        W47406  13.637   8.322   3.835 -0.0283  0.3475 -0.1376
30559W        W47407   5.215   5.793  11.329  0.1613 -0.1949  0.2111
30560W        W47408  16.832   8.313   0.237  0.3508 -0.0441 -0.0372
30561W        W47409  10.426  14.768  12.434 -0.0509 -0.1138 -0.2369
30562W        W47410  14.691  10.788   1.141 -0.2664 -0.0163 -0.3583
30563W        W47411   5.650   8.901   3.242 -0.0656  0.0589 -0.0884
30564W        W47412   2.976   0.429  13.594  0.0574 -0.2090  0.0100
30565W        W47413   2.348   8.623  15.531  0.0580  0.3956 -0.0020
30566W        W47414   2.333   8.593  11.657 -0.0537  0.0952 -0.1259
30567W        W47415   9.065  15.969  11.216  0.0836  0.0684 -0.0828
30568W        W47416  14.249  11.813   3.806 -0.1749  0.1415  0.0865
30569W        W47417  11.744   7.937  10.916  0.1132 -0.2359 -0.0771
30570W        W47418   8.613   5.494  11.819 -0.4041  0.2419 -0.1307
30571W        W47419  14.364  11.284   0.386 -0.0423  0.1979 -0.0521
30572W        W47420   7.859   0.760  15.549 -0.1122  0.1299 -0.0133
30573W        W47421   8.567   8.786  12.322  0.2707  0.1911 -0.0155
30574W        W47422   8.324   2.249   3.972 -0.1611  0.2141  0.4091
30575W        W47423  11.229   7.126   1.619  0.2579  0.1810  0.2454
30576W        W47424  12.925   1.453   4.935 -0.2477  0.1591  0.1757
30577W        W47425  12.612  14.395   2.250 -0.0780 -0.0898 -0.2562
30578W        W47426   0.332   2.700   1.854  0.1563 -0.1104 -0.2773
30579W        W47427  15.798  16.559   4.425  0.0107  0.3224 -0.2613
30580W        W47428   4.743  15.387   4.928  0.1305  0.1935  0.3038
30581W        W47429   0.282   7.338   1.303  0.3403  0.2298 -0.5732
30582W        W47430  12.850   8.422  11.681 -0.2088 -0.0037 -0.0952
30583W        W47431   1.957   8.848  15.298  0.0328 -0.3187  0.0208
30584W        W47432   2.748   9.834   3.874  0.2241  0.0705 -0.2802
30585W        W47433   5.548   3.394   1.872  0.0019  0.0531 -0.1068
30586W        W47434   7.238   3.310   0.051 -0.2761 -0.0522 -0.0627
30587W        W47435   8.258  14.382   3.061 -0.0111  0.1556  0.3803
30588W        W47436  16.505   2.958  13.245  0.1294  0.0788  0.1524
30589W        W47437   2.038  11.655   3.185  0.2276 -0.0271 -0.0766
30590W        W47438   1.533   1.659  16.233 -0.0266  0.3141  0.0605
30591W        W47439   1.583   0.866  13.046  0.0646 -0.2987 -0.0470
30592W        W47440  15.517   9.288  12.311 -0.0022  0.0597  0.0693
30593W        W47441  10.807  12.326   3.646 -0.0533 -0.0274 -0.1503
30594W        W47442  11.974   3.560  15.163 -0.1006  0.0211 -0.3613
30595W        W47443  16.802   9.673  12.598  0.0322  0.2645 -0.0858
30596W        W47444   3.045   6.543   3.607 -0.0965  0.1604 -0.0083
30597W        W47445   9.712   2.174   6.092  0.2245  0.3682 -0.1411
30598W        W47446   1.577  10.040   3.203 -0.0299 -0.0507  0.2336
30599W        W47447   3.672  17.660   3.765  0.1649  0.1762  0.3315
30600W        W47448   8.438  16.437   5.074  0.1282 -0.1105  0.2372
30601W        W47449  17.254   0.265  11.225 -0.0942 -0.0832 -0.3245
30602W        W47450  16.356   2.134   0.397  0.2788 -0.0460 -0.2518
30603W        W47451  13.051  16.413   2.817  0.1278  0.0633  0.1639
30604W        W47452  17.458   2.030   0.702  0.1248  0.0002  0.1040
30605W        W47453  13.110   1.157  14.651  0.0720 -0.0132  0.2902
30606W        W47454   2.044   1.383  12.462 -0.0144 -0.0855 -0.1291
30607W        W47455   6.511  16.551  12.780  0.0593 -0.1343  0.0038
30608W        W47456   6.406  16.449  16.105 -0.0667 -0.1736 -0.0653
30609W        W47457  12.108   1.998   4.759 -0.0881  0.2521 -0.0696
30610W        W47458   3.569   7.420  14.357  0.0273  0.3111 -0.1673
30611W        W47459  16.958   7.315   3.966 -0.0224  0.0668 -0.1195
30612W        W47460   9.931   0.150  12.391 -0.2358 -0.3592  0.1742
30613W        W47461   9.261  14.304   1.251 -0.1023  0.1163  0.0091
30614W        W47462   2.151   6.957  13.565  0.1247  0.2140  0.3094
30615W        W47463  13.129  15.205  16.132 -0.0080 -0.1755 -0.0324
30616W        W47464  11.185   5.171  14.216 -0.0159 -0.0617  0.1681
30617W        W47465   5.815  12.554  14.597  0.0418  0.3095 -0.0558
30618W        W47466  13.830   3.216  12.561  0.0431 -0.1685  0.0047
30619W        W47467   2.653   4.835  12.240 -0.1893  0.3092  0.0823
30620W        W47468   3.507   7.363   0.767 -0.0616  0.0690 -0.2793
30621W        W47469  12.434   4.681   1.436 -0.3103 -0.1471 -0.1114
30622W        W47470   2.044  10.436  14.888 -0.0103  0.3261  0.1231
30623W        W47471   1.642  12.054  14.900 -0.0988 -0.0738  0.3668
30624W        W47472   4.186   4.634  15.968  0.0964  0.1546 -0.0447
30625W        W47473   2.318   1.792   3.328 -0.0122  0.1001  0.1552
30626W        W47474   1.584  16.297  11.485 -0.0114  0.1923  0.1455
30627W        W47475  16.828   2.019   4.405 -0.2002  0.1913 -0.3408
30628W        W47476   4.873  11.446  15.689  0.0846 -0.0428  0.4655
30629W        W47477   8.020   6.098  12.138 -0.2317  0.1536 -0.0153
30630W        W47478  13.050   8.396   2.378 -0.0691 -0.3478  0.0071
30631W        W47479   6.887   9.740   4.344 -0.0979 -0.3442  0.0556
30632W        W47480   3.378   1.327  12.014 -0.1352  0.1638 -0.0581
30633W        W47481  15.492  15.879   5.126  0.1352  0.0194  0.1353
30634W        W47482  17.404   6.730   3.437  0.2371 -0.0405 -0.1011
30635W        W47483  17.738  15.426   5.119  0.0173 -0.2680 -0.2143
30636W        W47484   2.319   7.639  12.744  0.0138  0.0276  0.2746
30637W        W47485   8.545   3.853  12.013 -0.2783 -0.1036 -0.2837
30638W        W47486   6.959   3.111  12.124  0.1237 -0.1024  0.1104
30639W        W47487   7.258   7.560  15.402 -0.3516  0.0548 -0.0101
30640W        W47488   5.814   5.453  13.417  0.2836  0.1445 -0.2059
30641W        W47489  10.278   1.043  14.272  0.1793 -0.0382 -0.2892
30642W        W47490   5.305   6.247   4.694 -0.2373 -0.3655  0.1131
30643W        W47491   9.007   9.843  14.394  0.2236  0.0450  0.2904
30644W        W47492  13.096   7.848  14.285  0.1441  0.0891 -0.2610
30645W        W47493  15.475  14.317   1.877  0.3013  0.1825  0.2886
30646W        W47494  14.115   5.509   4.096  0.0765  0.1083  0.0825
30647W        W47495  13.665   5.637  12.688  0.0725  0.3270 -0.1157
30648W        W47496   9.979   1.473  13.332  0.0724 -0.0129 -0.0100
30649W        W47497  15.063   4.690   2.495  0.3016 -0.2824 -0.4958
30650W        W47498  14.002   6.892  11.870  0.0811 -0.1432 -0.4201
30651W        W47499   1.916   4.344   1.065  0.1418  0.1243  0.0011
30652W        W47500  11.578   0.264   5.873 -0.1500 -0.1467 -0.0102
30653W        W47501   7.233   3.876  14.885 -0.2039 -0.0949 -0.1797
30654W        W47502  10.514   1.292   1.874 -0.0964  0.0708 -0.0502
30655W        W47503  11.850   0.662   4.379 -0.2136 -0.1193 -0.3178
30656W        W47504   0.024   9.773  11.699 -0.0889 -0.1615 -0.0218
30657W        W47505   9.566   0.415   3.329  0.1372  0.0224  0.0252
30658W        W47506   5.919  16.492   2.110  0.1661 -0.0648 -0.0468
30659W        W47507   9.424   6.177  14.761  0.3891 -0.1321 -0.0439
30660W        W47508  17.872  10.710   2.381  0.2047 -0.1761 -0.1560
30661W        W47509   2.005   7.873   0.768  0.0543 -0.1597 -0.1490
30662W        W47510  16.534   5.208   4.398 -0.3133  0.1734  0.0718
30663W        W47511  11.863   7.861   4.658  0.0314 -0.2141 -0.2029
30664W        W47512  15.296   5.759  12.114  0.0135 -0.1199  0.0612
30665W        W47513  17.974   1.426  13.444  0.0666  0.1130  0.1658
30666W        W47514  15.552  12.763   4.308 -0.0339 -0.3674  0.0541
30667W        W47515   0.816  14.926   1.516 -0.4684  0.0399  0.3419
30668W        W47516  15.502   9.702  11.056 -0.2416  0.2198  0.1372
30669W        W47517   5.768  13.254  14.599 -0.2670 -0.2816 -0.0860
30670W        W47518   5.551  15.471   4.478  0.0049 -0.2127  0.2407
30671W        W47519   2.547  13.227  13.799  0.1594 -0.0151 -0.1772
30672W        W47520  11.138   5.990   2.483 -0.3221  0.1358 -0.0167
30673W        W47521   8.578  10.103   3.581  0.0697 -0.0175 -0.0056
30674W        W47522   4.591   9.329  11.575 -0.2834  0.2151  0.1206
30675W        W47523   7.416   0.433   3.851 -0.3162 -0.0358 -0.1300
30676W        W47524   6.193  17.708  15.493  0.0561 -0.1929  0.3812
30677W        W47525   6.288   2.930   3.777  0.0511  0.3143  0.2470
30678W        W47526  12.299  17.495   0.832  0.1163 -0.1189 -0.0698
30679W        W47527   6.664   4.623   0.999  0.3478  0.2854  0.0703
30680W        W47528  16.085  10.561   2.476 -0.0892  0.1632 -0.0723
30681W        W47529  13.131   0.803  11.477 -0.2488  0.2206 -0.0608
30682W        W47530   6.794  10.594   3.378  0.1461 -0.0105  0.1472
30683W        W47531  11.595  17.495   5.108  0.3807  0.0394 -0.0184
30684W        W47532  15.491  17.660  13.069 -0.0065  0.3051 -0.0595
30685W        W47533   9.495   2.856   1.526  0.1834  0.2861 -0.1773
30686W        W47534   0.525   9.939  12.840  0.2580 -0.3621 -0.2026
30687W        W47535  16.502   8.040  12.172  0.0752 -0.1911  0.0401
30688W        W47536  18.065  16.608   6.312 -0.0469  0.2535  0.1295
30689W        W47537  10.442   2.430   1.436 -0.2495 -0.1666  0.0149
30690W        W47538  15.456  14.667   6.062 -0.0591  0.0482  0.1467
30691W        W47539   3.616   3.333  14.962  0.0207  0.2928  0.2263
30692W        W47540   5.788  12.919  13.709  0.3404  0.1186 -0.0570
30693W        W47541  16.230   4.053  15.114  0.0930  0.0859  0.4603
30694W        W47542   0.063  17.932   0.029  0.1315  0.2992 -0.4009
30695W        W47543  11.450   7.984   0.400 -0.0291 -0.1776  0.1432
30696W        W47544   6.150  13.465   1.299  0.1713  0.0678 -0.2208
30697W        W47545   7.669   1.167   2.128  0.3016 -0.0148 -0.3181
30698W        W47546  15.057   0.949  15.586  0.3666 -0.0295  0.4010
30699W        W47547  16.685   7.879   0.463 -0.1897 -0.2458 -0.1183
30700W        W47548   9.247  15.163  16.049  0.0274  0.1256  0.0725
30701W        W47549  15.272   4.225   1.286 -0.1904 -0.1635  0.1374
30702W        W47550   7.178  13.730  14.069  0.0317 -0.1700  0.0868
30703W        W47551   9.505   0.445   2.747 -0.2043 -0.1287  0.1221
30704W        W47552  10.368   0.553   3.580  0.1906  0.1832  0.2083
30705W        W47553  12.023   4.539   4.729 -0.0448  0.3460 -0.1330
30706W        W47554  16.118  11.182  15.987  0.1071 -0.3079  0.0730
30707W        W47555   2.719  11.810  15.711 -0.1236 -0.0405 -0.0013
30708W        W47556  11.295   9.128  11.949 -0.1537 -0.0792  0.1940
30709ION     NA47557  10.574  17.785  14.691 -0.2929 -0.0949  0.2450
30710ION     NA47558  11.076   2.672   5.020 -0.2413  0.4275 -0.0453
30711ION     NA47559  16.242   5.743   5.592 -0.0034  0.2245  0.0149
30712ION     NA47560  17.008  11.654  10.680 -0.1212  0.1083 -0.2662
30713ION     NA47561  11.151  15.838   2.244  0.0591  0.1404  0.0102
30714ION     NA47562  12.559   3.354   1.492  0.1294 -0.1754 -0.3448
30715ION     NA47563   6.471   9.974   5.739  0.1576 -0.2124  0.3447
30716ION     NA47564  14.877   2.146  10.404  0.2138  0.1835  0.0805
30717ION     NA47565  11.202   1.887   5.887  0.1782 -0.1396  0.0472
30718ION     NA47566  16.839  11.553   6.065 -0.0253 -0.2178  0.0693
30719ION     NA47567   1.897   4.841   5.932 -0.0383 -0.0912  0.0541
30720ION     NA47568   5.967   4.041   5.698 -0.0529 -0.3245  0.0320
30721ION     NA47569   1.367  14.643   3.089 -0.0677  0.0383 -0.0452
30722ION     NA47570   8.965  11.109  10.250 -0.2050  0.3573  0.0610
30723ION     NA47571   6.588  13.673   6.032 -0.0270 -0.0021 -0.1425
30724ION     NA47572  11.168   7.200  10.421 -0.1269  0.0734 -0.3337
30725ION     NA47573   8.655   1.367   6.116  0.3917 -0.0441  0.1675
30726ION     NA47574   9.443  15.708   5.756  0.0149 -0.2202 -0.1651
30727ION     NA47575  10.640  14.066  10.670 -0.0051  0.5251  0.1621
30728ION     NA47576   8.754  17.346  10.814 -0.3236 -0.0795 -0.1747
30729ION     NA47577   5.865   1.328  14.507 -0.0937  0.1655  0.0454
30730ION     NA47578   6.858   5.835  10.197  0.0486  0.2014 -0.0449
30731ION     NA47579  13.686  14.610  10.571  0.1935 -0.0844 -0.3320
30732ION     NA47580   4.400  16.008  12.529 -0.1243 -0.0624 -0.1843
30733ION     NA47581  10.809  17.623   5.672  0.3673 -0.0282  0.0092
30734ION     NA47582  15.902   2.101  15.861 -0.0318  0.3265 -0.0726
30735ION     NA47583  15.533  10.963  11.064 -0.1438  0.3449  0.1680
30736ION     NA47584   5.058  12.426   5.896  0.2994  0.2593 -0.0618
30737ION     NA47585  17.202   3.623   6.020  0.0822 -0.0461 -0.3240
30738ION     NA47586   9.374   1.887   6.183  0.0613  0.0749  0.3142
30739ION     NA47587   5.344   4.416   5.614 -0.0331  0.1990 -0.1926
30740ION     NA47588  15.949  14.087   5.702 -0.4449 -0.1981  0.2458
30741ION     NA47589   3.930  13.241   5.240 -0.2940  0.0728  0.1223
30742ION     NA47590   6.915   6.825  10.299 -0.2885  0.2077  0.0591
30743ION     NA47591  15.569  15.327   6.268  0.0383 -0.0435  0.0192
30744ION     NA47592   5.631  12.486  15.905  0.0551 -0.4920 -0.1831
30745ION     NA47593   7.257  11.360   5.604 -0.0973  0.0048 -0.2004
30746ION     NA47594  17.196  16.386  15.291 -0.0049 -0.2478 -0.0278
30747ION     NA47595   2.364   8.111   5.508  0.2034  0.1568 -0.1455
30748ION     NA47596  14.084   1.106  10.140 -0.0694  0.0198 -0.2658
30749ION     NA47597   8.543   8.537  10.031  0.0260 -0.2315 -0.0629
30750ION     NA47598   6.556   2.629  12.634  0.3667  0.0224 -0.3942
30751ION     NA47599  12.070   6.793  11.135  0.0755  0.1577  0.1744
30752ION     NA47600   6.514  16.832  13.209  0.1518 -0.0889 -0.0737
30753ION     NA47601   6.155  14.460   6.038  0.0729  0.0541 -0.3746
30754ION     NA47602  11.336  10.113  10.575 -0.4454 -0.0861  0.5337
30755ION     NA47603  12.017  12.387  15.311  0.1374  0.5451  0.1303
30756ION     NA47604   9.017   3.718   5.822  0.0594  0.0426 -0.4142
30757ION     NA47605   0.928  12.887   5.796  0.3004 -0.0152 -0.0062
30758ION     NA47606  13.448   8.490  10.494  0.2368  0.0489 -0.2201
30759ION     NA47607  10.645   0.498   5.931 -0.0000 -0.3537 -0.2713
30760ION     NA47608   3.420   7.182  10.683 -0.3650  0.4247 -0.1799
30761ION     NA47609   5.754   9.244   5.683 -0.0090 -0.1401 -0.1228
30762ION     NA47610   2.901   0.281  10.774  0.1107  0.0952 -0.1883
30763ION     NA47611   2.317  16.873   5.851  0.0908 -0.1353  0.2719
30764ION     NA47612   4.543  16.494   3.934 -0.0834 -0.0862  0.0930
30765ION     NA47613   1.340   6.352  10.652 -0.2861  0.2607 -0.1177
30766ION     NA47614  16.971   1.749   1.550  0.3232 -0.0651  0.2794
30767ION     NA47615  13.382   1.863   5.455  0.2520 -0.2025  0.0895
30768ION     NA47616  16.974   3.872   3.144 -0.2564  0.1578  0.3545
30769ION     NA47617  17.039   0.142   4.071 -0.1272  0.1583  0.2556
30770ION     NA47618  11.670   6.705  13.304 -0.0015 -0.0839 -0.0365
30771ION     NA47619   5.428   3.741  10.729 -0.0593  0.1933  0.3917
30772ION     NA47620   9.256   6.652   0.410 -0.2557  0.0159  0.2143
30773ION     NA47621   3.679   5.075   5.994  0.0254 -0.1895  0.0700
30774ION     NA47622  15.726   9.859  13.701 -0.3705  0.2714 -0.1489
30775ION     NA47623   0.126   1.476  10.745  0.0015 -0.0969  0.1548
30776ION     NA47624   1.256   9.318  10.780 -0.1414 -0.0751  0.0596
30777ION     NA47625   0.455   0.050  10.652 -0.1457  0.3799 -0.2328
30778ION     NA47626   3.924   2.350  10.661 -0.0033 -0.0562  0.6862
30779ION     NA47627   4.840  15.452  14.991  0.1583  0.1602  0.1755
30780ION     NA47628  13.254   6.992   5.710 -0.0276 -0.0099 -0.0351
30781ION     NA47629   8.083  16.071  11.307 -0.1966 -0.1641  0.1469
30782ION     NA47630   7.938   2.539   5.874  0.1660 -0.5609 -0.2297
30783ION     NA47631   4.441  16.770   6.105  0.2072 -0.0742 -0.0744
30784ION     NA47632  10.994   7.952  10.440 -0.0156 -0.1892 -0.1395
30785ION     NA47633   8.154   7.513   5.315 -0.1299 -0.1047 -0.0301
30786ION     NA47634   7.154  10.930   9.922 -0.2115 -0.5889  0.4558
30787ION     NA47635  15.532  13.367   4.140 -0.2777  0.2185  0.2794
30788ION     NA47636  11.509  12.595  11.496  0.2574  0.1951  0.2225
30789ION     NA47637   9.790   9.455   5.586  0.1115  0.0353  0.0639
30790ION     NA47638   7.282   7.412  13.726 -0.0678  0.1728  0.1108
30791ION     NA47639  17.750   9.871   1.337  0.2823 -0.1263  0.0223
30792ION     NA47640  16.001  11.916   5.848 -0.2060 -0.4304 -0.0191
30793ION     NA47641  15.976  16.590  16.291 -0.2164 -0.1424  0.3095
30794ION     NA47642  12.348   8.818   5.947  0.4034  0.1679 -0.1915
30795ION     NA47643  18.009  11.923   2.255  0.2699  0.0467 -0.0394
30796ION     NA47644   5.773  12.100   5.674 -0.0940 -0.0933  0.1404
30797ION     NA47645   8.513   1.366  12.918  0.1975 -0.1099  0.0790
30798ION     NA47646   9.075  11.804   0.595 -0.3337 -0.0740  0.3086
30799ION     NA47647   6.242  16.116  12.980  0.1847  0.1874  0.1340
30800ION     NA47648   4.052   6.339   5.599 -0.1436 -0.1709 -0.2194
30801ION     NA47649   7.348  11.731   0.784 -0.2598  0.1051  0.1316
30802ION     NA47650  16.231   1.359  10.629  0.2474  0.2919  0.1632
30803ION     NA47651   9.153  13.163   6.007  0.0703  0.1676  0.2039
30804ION     NA47652   4.136   9.712   5.904 -0.2346  0.0619  0.0606
30805ION     NA47653   4.947  14.750  11.707 -0.1674 -0.0239 -0.2598
30806ION     NA47654   2.292   1.274  14.136 -0.1598  0.0989 -0.2286
30807ION     NA47655  11.192   2.152  10.334 -0.1100 -0.0731  0.1073
30808ION     NA47656  17.407   6.714  10.590  0.1205  0.3121 -0.1299
30809ION     NA47657  11.704  17.247   5.939 -0.1723 -0.2284  0.0762
30810ION     NA47658  10.802   8.536   5.871  0.2137 -0.3274  0.0318
30811ION     NA47659  17.190  14.494  10.840  0.0365 -0.0757  0.3700
30812ION     NA47660   0.799  12.033   5.714 -0.1688 -0.2041 -0.0415
30813ION     NA47661  12.443   3.775   5.353  0.1459  0.0560 -0.1344
30814ION     NA47662   7.094   4.978  10.191  0.0607 -0.0273  0.0704
30815ION     NA47663   5.007  17.508   5.980  0.0676 -0.1616  0.3718
30816ION     NA47664   7.783   9.164   3.215 -0.0642  0.0638  0.2504
30817ION     NA47665   8.219  14.267  11.100 -0.1577  0.1954  0.2022
30818ION     NA47666   6.301   5.782   3.376 -0.1055 -0.0853 -0.0359
30819ION     NA47667   4.951  13.088   4.479 -0.0951 -0.3316  0.1571
30820ION     NA47668  10.579  17.534  13.340 -0.5057 -0.0609  0.2075
30821ION     NA47669  15.676   8.638  10.717 -0.0231  0.1170 -0.1770
30822ION     NA47670   9.620  17.737   5.868 -0.0164 -0.0813 -0.1246
30823ION     NA47671   7.544  13.847   5.712  0.0110 -0.0506 -0.0435
30824ION     NA47672   1.150   5.596  10.152  0.0508  0.0754 -0.0269
30825ION     NA47673   1.312  14.912   1.260 -0.0498 -0.2144 -0.0653
30826ION     NA47674   9.285   0.201   5.326  0.0655  0.0938  0.6697
30827ION     NA47675   5.657   8.358   5.719  0.2017 -0.2338  0.3052
30828ION     NA47676   7.046   5.344   1.307 -0.2047  0.0954  0.1280
30829ION     NA47677   6.097  15.342   3.095  0.1466 -0.2023  0.0835
30830ION     NA47678   0.714   7.335   6.048  0.0855 -0.0436 -0.0076
30831ION     NA47679  12.615  11.691  10.638  0.0636 -0.0172 -0.0770
30832ION     NA47680   7.163   7.361   5.300  0.3137  0.2076  0.0312
30833ION     NA47681   8.216  13.463   6.044  0.1233  0.2078 -0.1416
30834ION     NA47682  14.399   1.535  10.102  0.1240 -0.1352 -0.3905
30835ION     NA47683   1.597   4.878  11.767  0.2238 -0.3127 -0.1157
30836ION     NA47684  14.009  17.871   5.957  0.1283  0.1392  0.0085
30837ION     NA47685  11.547  17.184   0.382 -0.0432  0.1769  0.2054
30838ION     NA47686  10.950  16.368   6.102 -0.2185  0.2646  0.3675
30839ION     NA47687  13.330  12.238   2.069 -0.3332 -0.0638  0.1199
30840ION     NA47688   1.263  17.401   6.060 -0.1166  0.2294 -0.0417
30841ION     NA47689   9.658  16.025  10.726  0.2033  0.0988 -0.2845
30842ION     NA47690   3.235   4.396   4.723 -0.1706  0.0989 -0.0404
30843ION     NA47691  10.257   3.996   1.313 -0.2065  0.0132  0.0260
30844ION     NA47692   8.636  15.428   5.900  0.1145  0.1355  0.0817
30845ION     NA47693   8.026  17.181  15.897  0.0265  0.1845 -0.0011
30846ION     NA47694   6.943  17.820   5.722 -0.0317 -0.0883  0.0246
30847ION     NA47695  12.887  16.915   2.996 -0.0419 -0.1397 -0.0882
30848ION     NA47696   3.921   5.301  12.678  0.0658  0.2203 -0.2752
30849ION     NA47697   8.611   3.115  10.851 -0.3199 -0.0363  0.1488
30850ION     NA47698  16.468  15.487   5.934  0.0125 -0.1301  0.1361
30851ION     NA47699  14.987  16.444  15.060  0.2845 -0.0651  0.1247
30852ION     NA47700   4.574   2.689  10.599  0.2889  0.2839  0.2002
30853ION     NA47701   5.125   3.521   1.452 -0.2928  0.0312  0.2683
30854ION     NA47702   2.026   9.916  10.733 -0.1042 -0.1521 -0.0992
30855ION     NA47703   9.384  17.103  14.438  0.0201 -0.1146 -0.5744
30856ION     NA47704  13.601   1.874  10.202 -0.0385  0.1382 -0.1105
30857ION     NA47705   8.834   1.495  10.591  0.0458  0.1543  0.2282
30858ION     NA47706  15.251  12.406   5.720 -0.0555 -0.1631 -0.0578
30859ION     NA47707  15.455   0.204  14.799 -0.0313 -0.0852 -0.2776
30860ION     NA47708   9.156   7.186   5.525  0.2373 -0.1472 -0.3014
30861ION     NA47709   8.018  14.888   6.010  0.1721 -0.2673 -0.1564
30862ION     NA47710   4.474  10.214  12.305  0.2648  0.0802 -0.3043
30863ION     NA47711   8.285  10.051  10.123 -0.3226 -0.3963 -0.3100
30864ION     NA47712   3.767   0.379   5.681  0.0809 -0.0001 -0.0657
30865ION     NA47713  13.331  10.823   3.824  0.1222  0.0168 -0.0179
30866ION     NA47714  11.371   3.767  16.014 -0.0853  0.0203  0.1090
30867ION     NA47715  13.645   7.586  11.011  0.4019  0.0786 -0.2598
30868ION     NA47716   3.165  13.042  10.414  0.1997  0.1510  0.2757
30869ION     NA47717   2.699   6.669  10.727 -0.1202 -0.2362 -0.0191
30870ION     NA47718   5.727   8.837   2.741  0.1581 -0.2590  0.1417
30871ION     NA47719  12.209   8.865  10.497  0.0325 -0.1180 -0.1425
30872ION     NA47720  13.077  13.312   5.799  0.0069 -0.1379 -0.0355
30873ION     NA47721   6.483  17.870   6.003  0.3693  0.1222 -0.3551
30874ION     NA47722  11.850   8.003  10.361  0.1022 -0.0670 -0.0948
30875ION     NA47723   2.870   7.717   2.517 -0.0370 -0.2938 -0.1710
30876ION     NA47724  14.663   2.878  10.884 -0.1052 -0.1479  0.0027
30877ION     NA47725   8.042   5.931   1.800  0.0663 -0.0351  0.1086
30878ION     NA47726  12.536   7.735   5.963  0.1574  0.0359  0.1448
30879ION     NA47727  14.338  15.208  10.444  0.0198  0.0188 -0.0983
30880ION     NA47728  11.643   1.395  10.524  0.0768  0.0369  0.2530
30881ION     NA47729  18.028  16.514  12.886  0.0115 -0.2338 -0.0151
30882ION     NA47730  17.284   9.796   5.736 -0.1599  0.0529 -0.1839
30883ION     NA47731   1.590   7.624  15.366 -0.0732 -0.0016  0.4058
30884ION     NA47732  15.294   1.249  10.267  0.2188 -0.1796 -0.0907
30885ION     NA47733  15.848   9.736   6.205  0.1543 -0.2312 -0.1945
30886ION     NA47734   8.106   4.167   4.371 -0.1217  0.3254  0.0528
30887ION     NA47735   6.988  14.996  11.046  0.2133  0.0405 -0.2628
30888ION     NA47736   6.954  17.043  10.483  0.0520  0.1719  0.3894
30889ION     NA47737   2.378   7.997   6.088  0.2380  0.1269 -0.2164
30890ION     NA47738  13.037   3.283   5.546 -0.0393 -0.0069 -0.1476
30891ION     NA47739  15.461  11.476   6.068 -0.0200  0.0996  0.6280
30892ION     NA47740  12.497  14.978   5.790 -0.1618  0.0012 -0.3498
30893ION     NA47741  17.422   9.918  10.878  0.1984 -0.0626  0.1011
30894ION     NA47742   7.118  12.314  10.451 -0.0219  0.0406 -0.1018
30895ION     NA47743   6.590  16.029  10.485  0.1361  0.5522  0.0054
30896ION     NA47744   0.097   9.912  11.031  0.1195 -0.0885 -0.0676
30897ION     NA47745  15.695  13.245   5.934  0.1289 -0.1338 -0.2508
30898ION     NA47746   2.597   3.643  10.356  0.0146  0.2969 -0.1115
30899ION     NA47747   1.187   2.718   5.578 -0.0338  0.3966 -0.0152
30900ION     NA47748   2.906   0.550  12.605 -0.2669  0.1536  0.0671
30901ION     NA47749   4.818  11.240  10.217 -0.0891 -0.0624 -0.1481
30902ION     NA47750  17.015   1.295   5.402 -0.0479  0.1588 -0.2095
30903ION     NA47751   2.109  11.793  10.906 -0.0637  0.1256 -0.0515
30904ION     NA47752   2.194   4.473  13.983  0.0633 -0.1160  0.0833
30905ION     NA47753  12.785  16.089  10.357  0.1820  0.4023 -0.1305
30906ION     NA47754  14.769   4.720   5.606 -0.0368 -0.1346 -0.0120
30907ION     NA47755  15.161   1.757   5.660 -0.4762 -0.1026  0.0703
30908ION     NA47756   1.431   2.732  10.572 -0.0286 -0.1372 -0.2678
30909ION     NA47757   9.689   2.177  15.067 -0.0035  0.0195 -0.0192
30910ION     NA47758   1.002  15.290   5.941 -0.1082 -0.0943  0.0668
30911ION     NA47759  11.407  12.043   6.426 -0.2448 -0.1015 -0.2861
30912ION     NA47760  12.179  15.331   5.640  0.0060 -0.3289  0.0529
30913ION     NA47761   2.099   3.294   5.783 -0.2531 -0.3603  0.0067
30914ION     NA47762   5.404  16.810   6.187  0.0289  0.0927 -0.0959
30915ION     NA47763   4.622   9.854  10.074  0.3904  0.1115 -0.0288
30916ION     NA47764   9.228  10.067  10.458  0.1396 -0.1628 -0.2481
30917ION     NA47765  17.757   4.699  10.506 -0.2440  0.0563  0.0005
30918ION     NA47766   1.357   9.976  11.827 -0.3262  0.0485 -0.0989
30919ION     NA47767  17.185  17.000  10.259  0.0299 -0.1158 -0.1002
30920ION     NA47768  15.956   7.531  10.623  0.4735  0.1975 -0.0131
30921ION     NA47769   6.427   3.094   4.489 -0.1157  0.0620  0.1198
30922ION     NA47770   8.150  16.753   6.051 -0.3957 -0.1989  0.0492
30923ION     NA47771   8.187  10.852  10.275  0.3238 -0.1562 -0.1180
30924ION     NA47772  14.498  11.630  10.719 -0.0220 -0.1884  0.1196
30925ION     NA47773   9.934  14.585  10.727  0.2393 -0.1247  0.1937
30926ION     NA47774   1.124   0.615   5.698 -0.5087 -0.1049  0.0445
30927ION     NA47775  14.463   9.514  10.390 -0.1167 -0.0129 -0.1814
30928ION     NA47776  11.906  10.080   5.449 -0.1686  0.1550 -0.0402
30929ION     NA47777  10.816  10.925   5.989 -0.1503 -0.2603 -0.0689
30930ION     NA47778   7.142   5.378   5.667 -0.2070 -0.1783  0.2443
30931ION     NA47779  12.650  10.693  15.522 -0.0840  0.2539  0.3075
30932ION     NA47780   0.564  13.482  10.287 -0.0742 -0.1226 -0.0031
30933ION     NA47781   9.623  16.938  10.878  0.3154  0.1125  0.0633
30934ION     NA47782  11.894   4.742  10.737  0.1122 -0.0071  0.0002
30935ION     NA47783   1.677  13.314  10.374 -0.2859 -0.3155 -0.0124
30936ION     NA47784  10.593   5.934   5.731 -0.1781 -0.2137  0.0680
30937ION     NA47785  13.553  14.912   0.545 -0.0304  0.2377 -0.2145
30938ION     NA47786   6.328   1.851  15.777 -0.1042  0.0221  0.3440
30939ION     NA47787   0.034   0.947  12.192  0.1324 -0.1462 -0.0850
30940ION     NA47788  15.261   0.640   5.771  0.4032 -0.3179  0.0501
30941ION     NA47789   4.887  12.833   1.403 -0.3292  0.0133  0.0502
30942ION     NA47790  15.698   4.435   5.863  0.1315 -0.1703 -0.0366
30943ION     NA47791  12.575  11.143   2.423 -0.0734 -0.1920  0.1430
30944ION     NA47792  11.845   9.397   0.509  0.0082 -0.3065  0.0037
30945ION     NA47793  12.220  17.975  10.540  0.1586  0.1147 -0.2950
30946ION     NA47794  12.120  11.462   3.512 -0.3177  0.3349 -0.0110
30947ION     NA47795  13.814   8.248  12.247 -0.1782 -0.0310  0.0497
30948ION     NA47796  16.084   0.549  16.086 -0.1502  0.0261 -0.0504
30949ION     NA47797   8.138   0.867  10.566  0.0250  0.0754  0.0275
30950ION     NA47798   3.593  12.923   5.607  0.1197  0.1644  0.1671
30951ION     NA47799   7.519  12.375   5.860 -0.1433 -0.0213  0.1044
30952ION     NA47800   1.253  16.114   5.394  0.2475  0.3018 -0.1504
30953ION     NA47801   7.377   6.019  10.435 -0.1830 -0.0028  0.1107
30954ION     NA47802   5.705   2.989  10.966 -0.3475  0.4237 -0.0744
30955ION     NA47803   3.887   1.888  14.375  0.1687 -0.2103  0.0099
30956ION     NA47804  15.780   2.334  10.409  0.0699  0.0894  0.0415
30957ION     NA47805   0.620   8.750  11.195  0.0400  0.1484 -0.0825
30958ION     NA47806  16.873   5.112  10.551 -0.0854  0.1740 -0.1131
30959ION     NA47807   9.547  11.241   0.015  0.3780  0.0462 -0.0469
30960ION     NA47808   0.876   3.302  10.751  0.2623  0.1641 -0.4060
30961ION     NA47809   9.276   5.688  10.219  0.1626 -0.0704 -0.1229
30962ION     NA47810  11.871  16.959  12.306  0.2989  0.2866  0.1534
30963ION     NA47811   1.983  11.914  11.906  0.1549 -0.0649 -0.1803
30964ION     NA47812   9.681   3.254   5.856 -0.0457 -0.1325 -0.2739
30965ION     NA47813   8.508  12.618   6.092  0.2098  0.0870  0.3415
30966ION     NA47814   4.466   8.372  10.335  0.0309 -0.0923  0.1476
30967ION     NA47815   1.982  12.965   5.976  0.1216  0.1030  0.1987
30968ION     NA47816  12.537  16.920   5.957  0.2620 -0.4884 -0.4038
30969ION     NA47817  13.108   4.034   3.172 -0.1769 -0.2792  0.4256
30970ION     NA47818   8.079   4.951  14.931  0.0482  0.2507 -0.5958
30971ION     NA47819  15.582  17.812  10.330  0.1357 -0.4372  0.2563
30972ION     NA47820   5.915   1.950  12.555 -0.3950 -0.2747  0.1793
30973ION     NA47821   4.769   4.650   3.898 -0.2242 -0.2167  0.2556
30974ION     NA47822   1.217   0.795  14.448 -0.3871  0.2366 -0.0524
30975ION     NA47823   9.218  12.264  10.734 -0.0001  0.0426  0.0370
30976ION     NA47824  12.219  10.256  10.837 -0.2629  0.0809 -0.2774
30977ION     NA47825   5.126   3.534   5.851 -0.0068  0.1589  0.1950
30978ION     NA47826  17.801  15.767   4.672 -0.2373 -0.1453 -0.0884
30979ION     NA47827   1.898   0.785  16.200 -0.1803 -0.3391 -0.0124
30980ION     NA47828  16.354   8.329   6.040 -0.2824 -0.1322 -0.0457
30981ION     NA47829   7.836   2.607   6.362 -0.2862  0.2718 -0.2541
30982ION     NA47830  11.422   9.268   5.835 -0.0912 -0.4560 -0.0519
30983ION     NA47831  15.528   7.403  15.944 -0.0456 -0.0750 -0.0859
30984ION     NA47832   1.466  14.331  10.213  0.2532 -0.1484  0.1389
30985ION     NA47833   4.435   7.139  10.474  0.2297  0.0656  0.2020
30986ION     NA47834  16.814   1.044  14.554  0.0414  0.2134  0.0738
30987ION     NA47835  15.442  12.158   2.591 -0.0124  0.0219  0.0854
30988ION     NA47836  12.124   0.142   5.952 -0.1255  0.1005 -0.2945
30989ION     NA47837   1.291   5.645   5.867 -0.0980 -0.2424  0.1478
30990ION     NA47838   3.122   2.722  10.519  0.2979 -0.4495 -0.0849
30991ION     NA47839   7.539  10.098  10.288  0.3288 -0.2287 -0.0695
30992ION     NA47840  15.993  14.920  10.336  0.3081 -0.2930  0.0071
30993ION     NA47841   4.067  14.190  11.437 -0.0096 -0.0104  0.1448
30994ION     NA47842  17.902  11.727   5.877 -0.4097 -0.0691  0.2350
30995ION     NA47843   2.205   4.328  10.218  0.5854 -0.1841 -0.3229
30996ION     NA47844   5.240  13.369   6.044 -0.0169 -0.1542 -0.1730
30997ION     NA47845  12.184   6.912   6.015 -0.2362 -0.3840  0.1305
30998ION     NA47846  13.662   1.221   5.898  0.0056 -0.1152 -0.0020
30999ION     NA47847   6.086  12.887   6.022 -0.1545 -0.1238  0.1789
31000ION     NA47848   0.425   5.086  15.718 -0.2567  0.1572  0.0440
31001ION     NA47849  16.001   0.586  10.122 -0.0326 -0.2368 -0.2337
31002ION     NA47850  14.257  16.272   6.004 -0.0436  0.1675 -0.2443
31003ION     NA47851   4.132   3.415   5.921 -0.1567  0.0483  0.4330
31004ION     NA47852   1.979   3.827   2.946 -0.3732  0.1117  0.0587
31005ION     NA47853   3.358   4.023  10.315 -0.2300 -0.0328 -0.3789
31006ION     NA47854  10.658  16.901  10.501  0.0572  0.2031  0.0694
31007ION     NA47855  12.677   1.454  10.396  0.1135 -0.0953 -0.1623
31008ION     NA47856   4.400   4.544   5.830 -0.3859 -0.0258  0.2769
31009ION     NA47857   6.988   0.901   5.862  0.0430 -0.2413  0.2389
31010ION     NA47858  14.210   6.626  10.873  0.0927  0.0995  0.3599
31011ION     NA47859  17.893   6.520   3.550 -0.0457 -0.0443  0.1292
31012ION     NA47860  12.183  17.224   5.764 -0.0924  0.2667 -0.0765
31013ION     NA47861   9.037  12.519   5.376 -0.0788  0.1012  0.0248
31014ION     NA47862   2.142   2.498   5.369  0.1926 -0.1018 -0.2655
31015ION     NA47863  12.724   1.491   5.818 -0.1442 -0.1807 -0.3207
31016ION     NA47864   9.057  14.871  11.393  0.3533  0.3162  0.0514
31017ION     NA47865   5.268   2.257   2.682  0.0728  0.2920  0.0419
31018ION     NA47866   0.968   3.067   3.825  0.2370 -0.1854 -0.0928
31019ION     NA47867   2.242   7.486  10.895 -0.0787  0.1610  0.0538
31020ION     NA47868   6.148  16.754  10.561  0.1231 -0.1014 -0.2272
31021ION     NA47869   7.804  11.394   5.525  0.1242  0.0403 -0.0216
31022ION     NA47870   1.276  12.455   2.272  0.1141  0.2645 -0.1726
31023ION     NA47871  12.008   1.837  10.446  0.1448  0.0004 -0.0705
31024ION     NA47872  15.385   7.929   5.978  0.1580  0.0720 -0.0028
31025ION     NA47873   8.271   8.449   5.554 -0.1677  0.0456  0.0906
31026ION     NA47874   1.489   1.619  10.696  0.1124  0.1451  0.0117
31027ION     NA47875   1.668   6.332  11.473  0.0615 -0.0001  0.0723
31028ION     NA47876   3.156   5.410  10.592 -0.2035 -0.0020  0.1008
31029ION     NA47877  17.510   7.075   5.917  0.1786  0.2089  0.0390
31030ION     NA47878  13.998   0.526   5.869 -0.3273 -0.0616  0.0591
31031ION     NA47879  10.143   5.892  10.187 -0.0326  0.2041 -0.0039
31032ION     NA47880  16.165  11.982  16.166 -0.1195 -0.1246  0.0150
31033ION     NA47881   3.273   5.149   4.808  0.0839 -0.0731  0.0485
31034ION     NA47882  10.257   0.177   1.084  0.2024 -0.1734 -0.2387
31035ION     NA47883   2.820   5.107   5.786  0.1971 -0.4398 -0.0607
31036ION     NA47884  13.107  14.100   5.371  0.0518 -0.2361 -0.3019
31037ION     NA47885  17.768   3.138  10.472  0.1233 -0.1526 -0.0199
31038ION     NA47886  11.416   9.636  10.627 -0.2404 -0.2598 -0.2012
31039ION     NA47887   8.261   5.505  10.243  0.0616  0.3437  0.1457
31040ION     NA47888  17.689   5.399   5.781 -0.1732 -0.1655 -0.0188
31041ION     NA47889  13.956   0.507  10.176  0.1970  0.0544 -0.0184
31042ION     NA47890   9.546   2.995   4.368  0.1337  0.0025 -0.0257
31043ION     NA47891  10.023   4.829  15.317 -0.1065  0.1882 -0.1746
31044ION     NA47892   4.021   8.021  10.378  0.1575  0.0485 -0.0190
31045ION     NA47893  14.172  13.889  15.907  0.2771 -0.0566  0.1010
31046ION     NA47894  14.765   5.734  10.851 -0.0578  0.2919  0.2107
31047ION     NA47895  14.859   0.060   6.039 -0.0465  0.1062  0.3852
31048ION     NA47896   3.820  12.389  15.465  0.1794  0.1134 -0.0424
31049ION     NA47897  13.110   9.901   5.672  0.0917  0.2845 -0.3555
31050ION     NA47898   8.503  11.229   5.720  0.1107  0.3553  0.1029
31051ION     NA47899   2.738   4.314   5.750  0.0667 -0.0421 -0.0967
31052ION     NA47900   3.493  11.876   5.862 -0.0576  0.1492 -0.0784
31053ION     NA47901  18.028  16.109   6.212 -0.0410 -0.1969 -0.0120
31054ION     NA47902   0.296   2.902   5.369 -0.0358  0.0935  0.0712
31055ION     NA47903   9.842  12.485   5.690 -0.0624  0.0423 -0.2954
31056ION     NA47904  17.365   4.481   3.592 -0.2253  0.1011 -0.0340
31057ION     NA47905  10.116  16.536   5.919  0.3096  0.2113  0.0460
31058ION     NA47906   3.108   2.642   5.375  0.1259  0.0024  0.0215
31059ION     NA47907  15.513   1.981   2.497 -0.2267  0.1629 -0.1384
31060ION     NA47908  17.870   3.160   5.648  0.2509 -0.1004  0.0755
31061ION     NA47909  13.070   4.322   5.559 -0.0404  0.0395  0.0228
31062ION     NA47910   3.732  13.500  12.251  0.0812 -0.0282  0.1744
31063ION     NA47911  12.428   5.547   6.012  0.4694 -0.0746  0.0470
31064ION     NA47912   9.144  15.745   2.811 -0.2067 -0.0431  0.3716
31065ION     NA47913  12.076   6.396   5.856 -0.0902 -0.1781  0.1935
31066ION     NA47914  10.708   1.547  10.457  0.0563 -0.2913 -0.2117
31067ION     NA47915   2.213  14.068  10.465  0.0472  0.0428 -0.0013
31068ION     NA47916   3.727  17.346  10.891  0.3653  0.0020  0.1167
31069ION     NA47917   3.069   1.826   5.392  0.5003 -0.0920  0.1771
31070ION     NA47918   1.702   9.641   5.750  0.2878  0.0070  0.3019
31071ION     NA47919   6.022   5.265  12.356 -0.1452 -0.2675 -0.0514
31072ION     NA47920   1.176  17.550  10.866 -0.2030 -0.0590  0.1024
31073ION     NA47921   5.700  17.533   5.954 -0.0937  0.0539  0.0966
31074ION     NA47922  13.492  15.408  10.623  0.3681 -0.2135 -0.0430
31075ION     NA47923  14.454  13.670   5.312 -0.3468  0.0883 -0.1429
31076ION     NA47924   2.142   8.015  10.431 -0.0842 -0.2930 -0.0200
31077ION     NA47925   0.570  14.197   5.987 -0.0204 -0.1331 -0.0488
31078ION     NA47926   6.687  14.055  10.854  0.1365 -0.1371  0.2604
31079ION     NA47927  12.981   2.153  10.423 -0.1040 -0.2014  0.2295
31080ION     NA47928   5.996   9.332  10.224 -0.1186 -0.0083 -0.0449
31081ION     NA47929  10.844  14.228   5.917  0.2224 -0.2987  0.0840
31082ION     NA47930   6.407   8.354   0.684 -0.1402  0.1833  0.1155
31083ION     NA47931   4.833   8.584   5.935  0.0527 -0.1210 -0.0714
31084ION     NA47932   0.470  16.032  13.492  0.1724 -0.0323 -0.3017
31085ION     NA47933   9.999  11.104  14.522  0.2723 -0.3249  0.0947
31086ION     NA47934   2.015   7.127   6.026 -0.0613 -0.0113 -0.0700
31087ION     NA47935  17.985   8.235  13.187  0.3297 -0.3512 -0.0008
31088ION     NA47936   0.443  17.344   5.980  0.1754 -0.0932 -0.1129
31089ION     NA47937   5.810   1.971   5.785  0.1765  0.2358 -0.0243
31090ION     NA47938   1.704   1.381  12.900  0.4037 -0.0201  0.0482
31091ION     NA47939   4.773  14.164  10.722  0.0325  0.1988  0.0503
31092ION     NA47940   4.105  13.745  10.539  0.2889 -0.0555 -0.0116
31093ION     NA47941  16.330  10.987  10.603  0.0862 -0.0161 -0.1336
31094ION     NA47942   0.444   8.039  11.119  0.1337 -0.0376  0.0309
31095ION     NA47943  11.272  13.932  12.359  0.0196 -0.1613 -0.0143
31096ION     NA47944  11.204   2.368   0.798  0.2789 -0.0055  0.1225
31097ION     NA47945  14.743   8.611  10.555  0.0301 -0.1622  0.1647
31098ION     NA47946  14.630   9.555   4.173 -0.1520 -0.0602  0.0132
31099ION     NA47947   0.604  13.992  10.950 -0.0361 -0.1333 -0.1699
31100ION     NA47948  13.441   5.195   5.222  0.0369  0.1227 -0.0526
31101ION     NA47949  17.878  13.019  10.678 -0.1746 -0.1771  0.0397
31102ION     NA47950   8.389   9.020  10.271  0.0549 -0.0103  0.2513
31103ION     NA47951   0.308   1.261   5.325  0.1078  0.3467  0.2979
31104ION     NA47952  15.242  15.608  10.405  0.0029 -0.0352  0.2258
31105ION     NA47953   2.470  13.965   4.355  0.0459 -0.2357  0.0703
31106ION     NA47954   6.171   6.056   5.613  0.2139 -0.0869  0.2094
31107ION     NA47955  14.690  15.322   6.138  0.2491  0.0082 -0.0496
31108ION     NA47956  16.988   3.321  13.550 -0.1191  0.2053  0.1532
31109ION     NA47957   4.964   8.171  10.158  0.3985 -0.1375  0.1545
31110ION     NA47958   8.442  15.546   4.064 -0.0749  0.3717  0.2489
31111ION     NA47959  13.371   5.660   6.075 -0.3561 -0.0016  0.0666
31112ION     NA47960  15.063   9.071   6.057 -0.0481 -0.1799 -0.0099
31113ION     NA47961  15.899  15.912  11.211 -0.1626 -0.0165 -0.0183
31114ION     NA47962  16.938  11.103   1.803 -0.2069  0.0981  0.1377
31115ION     NA47963   3.653   9.574   5.956 -0.3009 -0.3416 -0.3458
31116ION     NA47964   2.318  12.676  10.529  0.2264 -0.0293  0.2020
31117ION     NA47965  10.405  15.700   5.938  0.0318 -0.1542  0.1302
31118ION     NA47966  13.258   0.359   5.965  0.0637  0.0388 -0.1101
31119ION     NA47967  13.222   6.681  15.339 -0.0606  0.0696 -0.1694
31120ION     NA47968   9.865   4.419  13.793  0.2262 -0.0795  0.0947
31121ION     NA47969   3.786   2.508   5.750  0.3846 -0.0424  0.3986
31122ION     NA47970   2.528   7.841  15.028 -0.1078  0.1723  0.3365
31123ION     NA47971   3.953   8.685   6.059 -0.1231 -0.0125 -0.0783
31124ION     NA47972  17.312  10.718   5.957  0.1197 -0.1668  0.2075
31125ION     NA47973  14.508   4.446  14.026 -0.0874 -0.2261  0.0779
31126ION     NA47974  17.368  12.138   4.143 -0.1548  0.1630  0.0171
31127ION     NA47975   2.478  10.069   5.543  0.1519 -0.2899  0.1016
31128ION     NA47976  12.878   2.595  11.214  0.2557 -0.1773 -0.2954
31129ION     NA47977   1.159   5.935  12.009  0.1923  0.5095 -0.2565
31130ION     NA47978   7.034   8.989   1.293  0.0014 -0.1392 -0.1456
31131ION     NA47979   6.860   0.978   1.068 -0.1224  0.0804 -0.0470
31132ION     NA47980  10.600   9.437   5.807  0.3075  0.1890 -0.0526
31133ION     NA47981   5.202  10.691  16.301 -0.1739  0.1820  0.3695
31134ION     NA47982   7.860   1.272  11.306  0.0563  0.2363  0.1665
31135ION     NA47983   5.691   0.568  10.640  0.4125 -0.0594  0.2133
31136ION     NA47984  13.250  10.330  10.520  0.1181  0.0365 -0.1172
31137ION     NA47985   3.514  11.083   5.856 -0.0846  0.0180  0.0590
31138ION     NA47986   2.202  11.093  14.175  0.0521  0.1076 -0.2498
31139ION     NA47987  12.830   5.113  10.749 -0.3010 -0.0808 -0.1289
31140ION     NA47988  14.456   2.813  15.282  0.3121  0.1626  0.2206
31141ION     NA47989   4.667   0.859  10.703  0.4306  0.4894 -0.2509
31142ION     NA47990   0.638   7.994   6.178 -0.1370  0.3088  0.0205
31143ION     NA47991  14.417   6.093  15.977 -0.4862 -0.0885  0.0179
31144ION     NA47992  16.597   7.401   5.664  0.3014  0.1595  0.3127
31145ION     NA47993   0.802  16.833   5.239 -0.2882 -0.0524  0.1090
31146ION     NA47994  16.928   5.025   5.650 -0.0271 -0.2295 -0.0845
31147ION     NA47995   2.963  17.220  14.619  0.2336  0.0522  0.1144
31148ION     NA47996  14.197  17.361  13.905  0.0011 -0.0947 -0.1062
31149ION     NA47997   6.636  16.282   6.188 -0.0494  0.6085  0.4449
31150ION     NA47998  13.272  14.893  12.230 -0.1015 -0.1552 -0.0663
31151ION     NA47999  10.701  17.803  10.727  0.2649 -0.0188 -0.2109
31152ION     NA48000  14.643   6.571   5.620 -0.0466 -0.3483 -0.0398
31153ION     NA48001   6.316  12.483  10.118 -0.1635 -0.3171 -0.0416
31154ION     NA48002  16.638   8.248  14.280 -0.1241  0.3070  0.1717
31155ION     NA48003  14.990   9.267  11.075 -0.2374  0.0104  0.0673
31156ION     NA48004  14.282   5.747  10.607 -0.1223 -0.2529  0.2025
31157ION     NA48005  16.770  17.906   2.259  0.1230 -0.3195  0.0607
31158ION     NA48006  15.790   9.634  10.639  0.2006  0.1822  0.0553
31159ION     NA48007   2.157   0.847   5.887  0.4825 -0.2917  0.1296
31160ION     NA48008   1.369   4.709  10.338 -0.1886  0.2797  0.4521
31161ION     NA48009   0.507  11.011  14.715 -0.2721 -0.2027 -0.2417
31162ION     NA48010   7.117  14.235  11.720  0.0333  0.1320  0.1453
31163ION     NA48011   5.619  16.024   6.180  0.2309 -0.1287 -0.0562
31164ION     NA48012   4.105  15.934  10.900  0.0878  0.0968 -0.4896
31165ION     NA48013   0.582   3.125  10.302 -0.0516 -0.2065 -0.2523
31166ION     NA48014  15.096  16.088   6.067 -0.1623 -0.1374 -0.2507
31167ION     NA48015   2.725  14.427   5.689 -0.1922 -0.1501  0.0055
31168ION     NA48016  17.290   0.397  10.298 -0.1264  0.0842  0.2042
31169ION     NA48017  17.308  16.189  10.462 -0.2155 -0.0562 -0.4372
31170ION     NA48018   0.753   0.596  15.921 -0.4454 -0.3223 -0.1702
31171ION     NA48019   6.409   7.793   5.781 -0.0385  0.0069  0.1487
31172ION     NA48020   0.624  11.808  10.634 -0.0820 -0.0429 -0.3008
31173ION     NA48021  17.690   5.577  10.938 -0.0401  0.0466  0.1844
31174ION     NA48022   7.776  12.127  11.050 -0.2215  0.0762 -0.1597
31175ION     NA48023   6.195   1.801  10.859  0.3332  0.0356  0.2698
31176ION     NA48024  13.554  16.252  10.570  0.2311  0.0229  0.2283
31177ION     NA48025  13.798  10.865   5.948  0.4703 -0.0493 -0.0225
31178ION     NA48026   9.117   9.927   5.837 -0.5876  0.1350  0.1243
31179ION     NA48027   3.685  11.125  10.604  0.1814 -0.1445  0.3425
31180ION     NA48028  16.694  16.703   5.816 -0.2557 -0.1219  0.0126
31181ION     NA48029  14.750   7.371  12.574 -0.0960  0.3108  0.2226
31182ION     NA48030   7.760   7.970   9.997 -0.0437 -0.0429  0.1642
31183ION     NA48031   3.020  12.247  10.839 -0.1006  0.1622  0.2776
31184ION     NA48032  12.102  13.573   2.817 -0.1424  0.1606 -0.1298
31185ION     NA48033   5.190  11.343   5.626  0.0497 -0.0711  0.0761
31186ION     NA48034  14.470   9.659   6.163  0.1757  0.1044 -0.0248
31187ION     NA48035  15.906   7.105  11.967 -0.2177 -0.1602 -0.0585
31188ION     NA48036  14.068   8.301   4.803 -0.0706  0.0199 -0.1845
31189ION     NA48037   2.288   4.756  12.647 -0.3735 -0.1089 -0.2131
31190ION     NA48038   1.206   6.642   5.931 -0.3413 -0.1846  0.1064
31191ION     NA48039  17.122   6.246   5.996  0.3048  0.2497 -0.1274
31192ION     NA48040   3.975  14.774  10.729  0.2746 -0.2688  0.2034
31193ION     NA48041   1.736  15.845  10.615  0.0690  0.1696 -0.1893
31194ION     NA48042  11.441   8.797  10.667 -0.0271 -0.0632 -0.0076
31195ION     NA48043   7.817   4.516  10.052  0.1686  0.1489  0.2709
31196ION     NA48044  13.868   2.408   5.771  0.0028  0.1839  0.2061
31197ION     NA48045  12.322   2.175   6.007  0.0839  0.0288 -0.1642
31198ION     NA48046  17.443  11.631   5.684 -0.1465  0.1067 -0.0479
31199ION     NA48047  12.052  15.400  10.584  0.1940  0.1742 -0.1823
31200ION     NA48048   2.251  13.656   0.773  0.2117 -0.0563  0.4260
31201ION     NA48049   6.362   9.696  12.660 -0.2852 -0.0200 -0.4816
31202ION     NA48050   5.794  11.278   9.907  0.0378 -0.2390 -0.2736
31203ION     NA48051   4.650  16.719  10.762 -0.0309  0.2673  0.0465
31204ION     NA48052  16.239  12.487  10.655  0.3064  0.3128  0.0235
31205ION     NA48053  11.340  10.789  10.566 -0.3245 -0.2193 -0.1846
31206ION     NA48054   7.021   8.514   9.905  0.0229 -0.0307  0.2133
31207ION     NA48055  16.061  12.673   6.187 -0.2597 -0.2385 -0.1183
31208ION     NA48056  13.955   4.751   1.641  0.0518 -0.0448 -0.5137
31209ION     NA48057  12.689   8.116  10.790 -0.3878  0.1493 -0.2020
31210ION     NA48058   5.923  14.319   5.035 -0.2969  0.0415 -0.0171
31211ION     NA48059   3.966  16.032   1.400 -0.2555 -0.1875 -0.0389
31212ION     NA48060  16.561  13.437  10.756 -0.1363 -0.1260 -0.0565
31213ION     NA48061   9.597  17.828  10.791  0.2059  0.2578 -0.0649
31214ION     NA48062  10.705   6.168  10.583 -0.0908  0.3511 -0.0974
31215ION     NA48063  15.194   8.776   5.680  0.0946  0.0541  0.2533
31216ION     NA48064  10.467   8.527   5.524  0.0515  0.1756 -0.1223
31217ION     NA48065   6.318   8.709  10.136 -0.1598  0.1635 -0.2391
31218ION     NA48066   1.976  13.869   5.918  0.0890  0.2859 -0.0930
31219ION     NA48067   4.990   5.770   5.840  0.0160  0.1847  0.4085
31220ION     NA48068   4.809  15.991   6.289 -0.1160 -0.3581  0.0214
31221ION     NA48069  16.038   3.680   5.844  0.2637  0.3460  0.2773
31222ION     NA48070  11.818  12.021  13.088 -0.0084  0.0345  0.3451
31223ION     NA48071  12.593   3.898   2.566  0.0691  0.0503  0.0678
31224ION     NA48072  16.505   5.984   2.740 -0.0419  0.1768 -0.0272
31225ION     NA48073   4.400   8.260   2.210 -0.1511 -0.1651 -0.3590
31226ION     NA48074   4.575   0.921   5.907  0.4878 -0.0359  0.3001
31227ION     NA48075   5.262  17.903  10.488 -0.1008  0.1076 -0.1689
31228ION     NA48076   6.257   4.288   1.194 -0.0253 -0.3028  0.1466
31229ION     NA48077   3.413   3.829  14.831  0.0326 -0.0787 -0.2615
31230ION     NA48078  12.353  13.221   5.885  0.1202 -0.4260 -0.2696
31231ION     NA48079  18.054   7.287  10.857 -0.0767  0.1045 -0.1644
31232ION     NA48080   9.305  11.433   6.195 -0.0092 -0.2191 -0.1678
31233ION     NA48081  14.965  10.484  10.610  0.1218 -0.0744  0.0506
31234ION     NA48082  16.551   9.196   6.032  0.2664  0.0396 -0.3362
31235ION     NA48083  14.403   0.118   2.735 -0.0083  0.1478  0.2075
31236ION     NA48084  16.044   7.197   3.071  0.1731 -0.3620 -0.4071
31237ION     NA48085  17.749  15.198  10.559  0.3258  0.1135 -0.1064
31238ION     NA48086   0.500   5.197   5.767  0.1345 -0.3487 -0.2395
31239ION     NA48087  16.726   2.217   5.614  0.4418  0.3607  0.4375
31240ION     NA48088   9.712  11.164   6.003  0.0426 -0.1842 -0.1296
31241ION     NA48089   2.998   3.611   5.879  0.0082 -0.1267  0.1262
31242ION     NA48090  14.492   4.838  10.620  0.2876  0.0278 -0.0098
31243ION     NA48091   5.128   8.235   4.550 -0.0203  0.0100  0.1518
31244ION     NA48092  14.576   1.852   1.896  0.1867  0.3097  0.0339
31245ION     NA48093  14.310  16.272   1.523 -0.1992 -0.0893 -0.2394
31246ION     NA48094  17.186  14.883   5.840  0.0094 -0.0871  0.0528
31247ION     NA48095  12.797   1.130  11.172  0.1452  0.1870 -0.1778
31248ION     NA48096  11.588  14.673   6.003 -0.2392 -0.2058 -0.0997
31249ION     NA48097  17.863   6.166   1.804  0.0490  0.0907 -0.1323
31250ION     NA48098  14.495   8.236   5.794  0.1759 -0.0247 -0.2946
31251ION     NA48099   0.028   7.038   0.942  0.1219  0.1546 -0.0125
31252ION     NA48100   2.733  17.129   2.740  0.1444 -0.0654 -0.2252
31253ION     NA48101   0.322  14.618  12.895  0.1643  0.2211  0.1336
31254ION     NA48102   6.616   0.807  10.590  0.2430 -0.1364  0.4053
31255ION     NA48103   7.792   3.159   5.345  0.1518 -0.0113 -0.1410
31256ION     NA48104   7.860  17.517   5.906 -0.2583 -0.2217  0.0029
31257ION     NA48105  17.932  14.509  10.756 -0.2117  0.0431 -0.3510
31258ION     NA48106   4.319  11.638   5.809  0.0204 -0.0422 -0.2538
31259ION     NA48107   5.116   1.616   5.287 -0.2021 -0.2348  0.1489
31260ION     NA48108  16.201   5.764  10.411 -0.1080 -0.0178  0.0561
31261ION     NA48109  11.510  17.455  10.870 -0.4265  0.0172  0.3471
31262ION     NA48110   1.630  10.828  10.602 -0.2415 -0.0314  0.2073
31263ION     NA48111   6.819   9.293   5.131 -0.1633 -0.1640 -0.5687
31264ION     NA48112  14.829   0.458  10.182 -0.0608 -0.0342 -0.2548
31265ION     NA48113  15.615  12.876  16.332 -0.1414  0.2317  0.0214
31266ION     NA48114  10.637  12.006  14.487  0.1321  0.1536  0.2170
31267ION     NA48115  15.125   8.601   2.622  0.2191  0.1150 -0.1255
31268ION     NA48116   5.662   2.834   5.549  0.4650  0.2020 -0.0488
31269ION     NA48117  12.853   7.163  10.588 -0.0867 -0.0055 -0.1771
31270ION     NA48118  14.804   0.840   5.464  0.0692  0.2420 -0.0562
31271ION     NA48119   0.543   6.512   4.548 -0.2399  0.2666  0.3484
31272ION     NA48120   2.280   2.196  10.690 -0.0937  0.2202  0.0626
31273ION     NA48121  13.755  17.723  10.528 -0.0717  0.2879 -0.4915
31274ION     NA48122  11.759  16.156  11.042  0.1697 -0.1271 -0.2603
31275ION     NA48123   5.088  13.902   1.663  0.0253 -0.2693 -0.0799
31276ION     NA48124   5.487   9.814  15.447  0.0566  0.0248  0.0234
31277ION     NA48125   6.054   0.877   3.209 -0.1900 -0.1574  0.0221
31278ION     NA48126  11.230  13.101  15.812  0.0715 -0.0374  0.2514
31279ION     NA48127  17.891  13.337   2.563 -0.0546 -0.0819 -0.1050
31280ION     NA48128   1.721  11.255   5.873  0.0224 -0.3270  0.1435
31281ION     NA48129  11.776  15.776   1.137 -0.1854  0.2876  0.1179
31282ION     NA48130   9.413   1.101   5.858 -0.0822  0.1862  0.1537
31283ION     NA48131  15.651   2.461   5.324 -0.0278 -0.0511 -0.1531
31284ION     NA48132   7.194  17.100   6.061 -0.5238  0.0952 -0.0122
31285ION     NA48133  10.176   6.261   1.176 -0.1056  0.2043 -0.1791
31286ION     NA48134   3.110   1.770  10.766 -0.2086 -0.2885 -0.4446
31287ION     NA48135   8.917   5.667   1.364  0.0534  0.1458  0.1134
31288ION     NA48136  12.261   5.800   4.986  0.3042  0.1366 -0.0954
31289ION     NA48137  10.366   1.415   6.154 -0.1190 -0.0522 -0.1068
31290ION     NA48138  16.555   7.896  10.629 -0.1520  0.0458 -0.2222
31291ION     NA48139  10.464  10.441  10.888 -0.0472 -0.1846 -0.2256
31292ION     NA48140  14.456  11.487   6.059 -0.0515 -0.0578 -0.2382
31293ION     NA48141   0.457  16.666   6.157 -0.0444  0.2932 -0.0756
31294ION     NA48142   3.203  12.289  13.178  0.2011 -0.1506 -0.2509
31295ION     NA48143  17.073  13.926   5.891 -0.0581  0.3412 -0.1091
31296ION     NA48144  10.222  13.291  11.114  0.1157  0.0084  0.2763
31297ION     NA48145   3.310  10.048  11.166  0.0880  0.1889  0.1177
31298ION     NA48146  10.938  13.774   6.046 -0.0275  0.1210  0.0800
31299ION     NA48147  12.490   2.761  14.576 -0.3423 -0.3250 -0.0593
31300ION     NA48148   0.273  11.922  10.996 -0.0474  0.2754  0.0991
31301ION     NA48149  11.280   1.289   6.103 -0.1609  0.1543 -0.2015
31302ION     NA48150  14.649   1.875   5.535 -0.0010 -0.0399  0.0287
31303ION     NA48151   1.920  17.025  10.725  0.1844  0.0434  0.0107
31304ION     NA48152   3.082  16.485   5.927  0.2340 -0.0249 -0.0355
31305ION     NA48153  17.796   7.179  11.719  0.1849 -0.0500 -0.1287
31306ION     NA48154   5.969   2.260  10.387  0.1920 -0.2457 -0.1872
31307ION     NA48155  10.785  14.875  10.968 -0.0579  0.1721 -0.0473
31308ION     NA48156  13.479  17.023  12.165 -0.2153 -0.0004  0.1021
31309ION     NA48157  10.892   7.241   5.349  0.0045 -0.1003  0.2359
31310ION     NA48158  15.513   1.059   5.940 -0.1601 -0.1610 -0.0276
31311ION     NA48159   1.492  12.695  12.557 -0.3163  0.1316  0.1621
31312ION     NA48160   4.620   1.578   5.116  0.3319  0.0935  0.1060
31313ION     NA48161   1.645   3.649  12.897 -0.0583  0.0314 -0.2421
31314ION     NA48162   8.422  13.509  10.715  0.1037 -0.0258  0.0051
31315ION     NA48163   3.674   7.198   5.723  0.0693  0.0836 -0.1483
31316ION     NA48164  15.249   5.963   5.811  0.1126  0.0547 -0.0429
31317ION     NA48165   4.705  15.226   3.613  0.1696  0.1839  0.0105
31318ION     NA48166  14.222  16.920  10.689 -0.1293 -0.1422  0.1270
31319ION     NA48167   4.145   3.856  11.768  0.2391 -0.3403  0.2522
31320ION     NA48168  16.819   5.450   3.904  0.0472 -0.3095 -0.1180
31321ION     NA48169  11.779  14.654  11.170  0.1647  0.1102 -0.1684
31322ION     NA48170  10.104  10.415   2.094 -0.1752  0.1381 -0.3475
31323ION     NA48171  12.915  14.085  10.697 -0.1306 -0.2535 -0.1732
31324ION     NA48172  13.535   1.372  10.403  0.2080  0.1639  0.0812
31325ION     NA48173  16.809  14.428   0.984  0.2700 -0.0973  0.0041
31326ION     NA48174  13.132   2.356   4.676  0.3486 -0.2876  0.2017
31327ION     NA48175   8.217   0.305  10.489  0.2295  0.0586  0.1876
31328ION     NA48176   4.434  15.058  10.884  0.2351 -0.2481 -0.4262
31329ION     NA48177  12.420   7.646   3.635 -0.0477  0.2630  0.0306
31330ION     NA48178  17.079  17.920  10.452 -0.3343  0.2286  0.2074
31331ION     NA48179  13.509  11.936  10.619 -0.0071 -0.1683  0.2063
31332ION     NA48180   1.505  14.583   6.210 -0.0920 -0.0891  0.1512
31333ION     NA48181   9.972   1.101  10.591  0.1485 -0.0877 -0.2145
31334ION     NA48182  14.918   4.708   3.977  0.0911  0.0522  0.3259
31335ION     NA48183  15.164  16.618  10.960 -0.0917  0.1646 -0.1747
31336ION     NA48184   1.863  10.423   5.930  0.2316  0.3768  0.5687
31337ION     NA48185   0.058   8.516   5.900  0.0062 -0.2696  0.5179
31338ION     NA48186  17.810  14.201   5.951 -0.1784 -0.1205 -0.0731
31339ION     NA48187   5.082   3.131   2.747  0.0779  0.3679  0.0449
31340ION     NA48188   9.416   7.952  10.224  0.2268  0.0986  0.1437
31341ION     NA48189   3.189   8.234   5.974  0.1798  0.2041  0.0889
31342ION     NA48190  13.712  11.046  10.584  0.2974  0.0817 -0.0228
31343ION     NA48191  10.746  14.976   5.962  0.1241 -0.0932  0.0159
31344ION     NA48192  15.178   5.139  12.980  0.1142 -0.1255  0.0329
31345ION     NA48193   8.869  10.836   5.684 -0.2187 -0.1032 -0.1714
31346ION     NA48194  12.079   2.961   5.725  0.1748  0.0303  0.2263
31347ION     NA48195  13.185  11.554   6.198  0.0962 -0.0537  0.0035
31348ION     NA48196   5.329  17.282  11.242  0.1523 -0.2518  0.2380
31349ION     NA48197  13.069  14.036  13.277  0.3030 -0.1377 -0.2097
31350ION     NA48198   0.710   6.372   5.995 -0.0292 -0.1440  0.0993
31351ION     NA48199   3.390   6.000  10.492  0.1616  0.1705  0.1670
31352ION     NA48200   5.078  13.319  10.465 -0.1964 -0.2625 -0.0565
31353ION     NA48201   9.607   7.102   3.177  0.0975  0.1021 -0.0245
31354ION     NA48202   2.918   0.088   5.697 -0.1732 -0.1103  0.1039
31355ION     NA48203   6.618   2.663  10.428 -0.2710 -0.3245 -0.1472
31356ION     NA48204  16.044  14.884   2.944 -0.0057  0.1824  0.1520
31357ION     NA48205   8.299   3.936  10.288  0.2901  0.1238 -0.1291
31358ION     NA48206   9.061  13.002  10.434 -0.2120 -0.0981 -0.1061
31359ION     NA48207   5.174  11.963  10.466 -0.0828 -0.0967  0.0520
31360ION     NA48208   1.154  10.000  10.886  0.0704  0.3110  0.0091
31361ION     NA48209  15.499   8.237   2.005  0.0012  0.0727  0.1273
31362ION     NA48210  17.778   6.328  10.536  0.0689  0.2412  0.0626
31363ION     NA48211   5.099   9.094  10.243 -0.0010 -0.1476 -0.3928
31364ION     NA48212  11.040  14.214   4.166 -0.0731 -0.0505 -0.1438
31365ION     NA48213   3.229  16.467  10.937 -0.0764 -0.0531 -0.1421
31366ION     NA48214  17.743  16.506   1.217  0.4665 -0.1494 -0.0796
31367ION     NA48215   5.081   7.703   5.620  0.2053  0.1293  0.2305
31368ION     NA48216   9.217   8.758   2.308 -0.0103 -0.2889  0.1050
31369ION     NA48217  17.328   8.117   5.894 -0.0787  0.2333 -0.0791
31370ION     NA48218   1.975  15.694  14.648  0.1368 -0.1956  0.0647
31371ION     NA48219   0.816   4.320   5.448 -0.1097 -0.2103 -0.1662
31372ION     NA48220  15.216   3.832   5.562  0.1675 -0.2121  0.1075
31373ION     NA48221  15.958  14.398  10.778 -0.0889  0.1003  0.0622
31374ION     NA48222   1.484  11.897  10.468 -0.2065 -0.2064 -0.0420
31375ION     NA48223   7.506   6.076  16.306  0.0424  0.0399  0.1698
31376ION     NA48224  11.424   1.500   0.226 -0.0470  0.3050  0.2558
31377ION     NA48225  14.482  14.084  10.764 -0.0999 -0.3665 -0.2632
31378ION     NA48226   9.126  15.231  13.253  0.0210 -0.0206 -0.0814
31379ION     NA48227   1.148   4.787   5.821  0.1915  0.0835  0.2674
31380ION     NA48228   6.472  17.083   6.204 -0.1678 -0.1352 -0.1800
31381ION     NA48229  17.698   9.981   2.789  0.1872  0.0193 -0.4523
31382ION     NA48230   4.292  10.714  10.353  0.1905 -0.2322 -0.1829
31383ION     NA48231   7.842  17.143  10.682 -0.1022 -0.1325 -0.0582
31384ION     NA48232   2.626  17.500  10.793 -0.0715  0.1660 -0.0893
31385ION     NA48233   2.158   6.646   6.019  0.0593 -0.0804  0.3840
31386ION     NA48234  13.376  14.225   1.793  0.2409 -0.0741 -0.0334
31387ION     NA48235   6.250  17.666  10.525 -0.0767  0.0034  0.1636
31388ION     NA48236   6.600  14.631  14.994  0.0017 -0.0143 -0.0335
31389ION     NA48237  17.330  13.930   0.263  0.2073  0.0711 -0.0512
31390ION     NA48238   0.841  10.276   3.334  0.2132 -0.0979  0.0722
31391ION     NA48239  12.950  15.109   5.885 -0.1229  0.0212  0.1046
31392ION     NA48240   7.160  13.455  10.665 -0.0088  0.1408  0.1359
31393ION     NA48241   6.927   4.998   2.725 -0.1525  0.0857 -0.2720
31394ION     NA48242   9.075  13.890  10.720 -0.1372  0.0459 -0.0258
31395ION     NA48243  14.356   6.215   4.819  0.0068 -0.0975  0.1745
31396ION     NA48244  17.895   1.063   5.672  0.0984  0.1800 -0.0943
31397ION     NA48245   2.624   9.069   5.558 -0.1537 -0.0135  0.2820
31398ION     NA48246   5.947   1.456  10.568 -0.0326 -0.0090  0.5198
31399ION     NA48247  17.400   1.342  10.406  0.0013 -0.1051 -0.1250
31400ION     NA48248   8.352  10.157   5.631 -0.1544  0.0146 -0.0151
31401ION     NA48249   5.219   2.765   0.881 -0.0830 -0.3760  0.0510
31402ION     NA48250  12.982   7.245   4.924  0.2143 -0.2199  0.0040
31403ION     NA48251  17.592   2.004   2.657  0.1176 -0.2608 -0.0948
31404ION     NA48252  16.556  15.626  10.612 -0.2290 -0.1100 -0.1037
31405ION     NA48253  17.799  12.702   5.816 -0.1199  0.0284  0.0961
31406ION     NA48254  17.321   1.727   5.398 -0.1513  0.2697  0.0684
31407ION     NA48255  12.853  14.905  10.506  0.2312 -0.0511 -0.1021
31408ION     NA48256   8.150  15.629  11.000 -0.3709  0.3763  0.0954
31409ION     NA48257  14.844  10.044   6.176 -0.0187  0.0335  0.2753
31410ION     NA48258   8.686  15.687  11.627 -0.1327  0.1276  0.4846
31411ION     NA48259  15.674  15.537  14.531  0.3112 -0.4483 -0.5064
31412ION     NA48260   2.136  12.311   3.726 -0.2198 -0.1119  0.1125
31413ION     NA48261   0.045   3.905  10.498 -0.1363  0.2676 -0.1624
31414ION     NA48262   2.610  11.352   5.792 -0.0425  0.0039 -0.0809
31415ION     NA48263  12.553   9.394   5.834  0.2525  0.0266 -0.1898
31416ION     NA48264  12.132  11.105  15.486  0.1670  0.0553 -0.0046
31417ION     NA48265   9.859   8.994  16.211 -0.0384  0.0236  0.2754
31418ION     NA48266  16.567   2.629  10.765 -0.0890 -0.0970 -0.1451
31419ION     NA48267   6.037   0.652   5.966 -0.2675  0.2489  0.1152
31420ION     NA48268   7.805   1.754  10.458  0.0715 -0.2839  0.3360
31421ION     NA48269  11.396  11.126   6.167  0.1280  0.0844  0.1760
31422ION     NA48270  10.961  14.653   0.285 -0.2196 -0.0603 -0.0560
31423ION     NA48271  12.926   4.169  14.115  0.0839  0.2480  0.3438
31424ION     NA48272  13.801   8.961   6.170  0.0312 -0.1109 -0.0232
31425ION     NA48273   1.966  14.883  10.883 -0.0129 -0.0377  0.2479
31426ION     NA48274   5.908   5.604  10.239 -0.0763 -0.3745 -0.0228
31427ION     NA48275   6.586   2.463   5.995 -0.0352  0.1662 -0.0774
31428ION     NA48276  13.429   5.440  11.181 -0.0365 -0.1497 -0.0346
31429ION     NA48277  16.146   8.717  11.642 -0.1257  0.4532  0.0141
31430ION     NA48278  18.027  10.169   6.107  0.0261 -0.1416  0.3298
31431ION     NA48279  17.182   3.690  10.713 -0.1029  0.0736  0.2565
31432ION     NA48280   1.566   3.768  10.438  0.1304 -0.2285 -0.2891
31433ION     NA48281  15.897   4.815   0.896 -0.1028  0.0384 -0.0243
31434ION     NA48282  10.485   4.974   5.547 -0.0645 -0.2230  0.2270
31435ION     NA48283   9.082   0.563  10.515 -0.1166  0.2962  0.0694
31436ION     NA48284  11.651   8.527  12.266  0.2146 -0.2078  0.2083
31437ION     NA48285   6.042   8.133  10.081  0.0576  0.2218  0.0598
31438ION     NA48286  14.534  16.872   3.852  0.1730 -0.3875 -0.0608
31439ION     NA48287  17.327  15.914   6.039 -0.3124 -0.1398  0.1754
31440ION     NA48288  14.968   9.576  10.359 -0.0911 -0.0389 -0.2221
31441ION     NA48289  11.244  13.682  11.021 -0.0934  0.0654  0.1309
31442ION     NA48290  17.040  14.992  11.667  0.2898 -0.0964 -0.1591
31443ION     NA48291   7.331  15.601   6.100 -0.0267 -0.1452 -0.0324
31444ION     NA48292   3.740   3.680   1.010  0.0641 -0.1457 -0.2203
31445ION     NA48293  13.331  16.577   6.040 -0.1446 -0.2711 -0.0277
31446ION     NA48294   3.906  12.035  10.774  0.0538  0.0055  0.3059
31447ION     NA48295   4.452  12.490   5.792 -0.1306 -0.0953 -0.0366
31448ION     NA48296  16.533   0.866   2.484  0.1981 -0.2671  0.3504
31449ION     NA48297  16.386   1.698   3.863 -0.0479 -0.2622  0.0798
31450ION     NA48298  12.459  11.120   6.121  0.1155 -0.0932  0.0847
31451ION     NA48299   8.776   2.561   6.137  0.1866 -0.1806 -0.1020
31452ION     NA48300  13.581   4.732   5.864  0.2185  0.0735  0.0220
31453ION     NA48301   8.515   6.362  10.378  0.2831  0.2655  0.2568
31454ION     NA48302   6.960   1.891  12.155 -0.2288 -0.0352 -0.2071
31455ION     NA48303   0.281  10.722   2.863 -0.1287 -0.2696  0.0928
31456ION     NA48304   7.651   7.025  10.329  0.0940  0.0509 -0.0682
31457ION     NA48305  12.288   6.438  10.782 -0.2682 -0.1907  0.2495
31458ION     NA48306  12.815   9.449  10.666  0.1868 -0.2838 -0.2629
31459ION     NA48307   9.724   6.209   5.158  0.3915 -0.0103 -0.3097
31460ION     NA48308  16.499   6.880  10.577 -0.0593  0.4061 -0.0302
31461ION     NA48309   6.666   3.598  13.780 -0.3097 -0.3530  0.1146
31462ION     NA48310  11.225   4.098   1.410 -0.4404 -0.0986  0.1378
31463ION     NA48311  11.516  11.640  10.535 -0.2893 -0.0677 -0.0200
31464ION     NA48312   7.221   9.259  10.505  0.0386  0.0131 -0.0996
31465ION     NA48313   7.717   2.743  10.398  0.0763  0.3042 -0.1159
31466ION     NA48314   2.588  12.388   5.878  0.0736  0.0752 -0.1868
31467ION     NA48315   8.228  14.405   6.038  0.0209  0.0732  0.2484
31468ION     NA48316  16.688   4.278   5.809 -0.0664  0.3554  0.1432
31469ION     NA48317  10.085   7.604  10.282 -0.0050  0.1389 -0.1704
31470ION     NA48318   8.760  17.962   5.823  0.0222 -0.1741  0.2532
31471ION     NA48319  10.078   1.410   5.703 -0.2940  0.3427  0.2018
31472ION     NA48320   1.686  16.296   5.863 -0.2435 -0.1196  0.1903
31473ION     NA48321   3.059   5.799   5.871 -0.0745  0.0901 -0.1112
31474ION     NA48322   7.135   7.527   9.961  0.0851  0.2072  0.0763
31475ION     NA48323   4.798  10.712   5.927 -0.1632 -0.2173  0.2769
31476ION     NA48324   3.626  14.927   5.776 -0.2530 -0.0693  0.0274
31477ION     NA48325  11.867  12.954  10.732  0.3106 -0.0258 -0.2083
31478ION     NA48326   5.461  10.081   5.382 -0.1287  0.1418  0.2011
31479ION     NA48327  12.950  12.291   5.607 -0.1720 -0.0100  0.4677
31480ION     NA48328  11.311  17.172   3.670  0.2277 -0.4007 -0.0220
31481ION     NA48329  11.255   6.581   5.737  0.0445 -0.1528  0.2111
31482ION     NA48330   0.618  16.770  10.442 -0.2033 -0.0909  0.0457
31483ION     NA48331  13.186  10.367   2.360 -0.0405 -0.0393  0.1168
31484ION     NA48332  10.158  10.202   5.982  0.3029  0.0731 -0.0428
31485ION     NA48333  15.771   8.552   1.269 -0.1914 -0.1174 -0.0004
31486ION     NA48334  16.721  16.161  12.584  0.0564  0.0662  0.1230
31487ION     NA48335   1.954  15.224   5.959 -0.3595 -0.0560 -0.1091
31488ION     NA48336  11.711   3.308  10.179  0.0220  0.1262  0.5189
31489ION     NA48337   7.006   2.106  10.543 -0.2008  0.2152 -0.1992
31490ION     NA48338   9.227   8.624   5.556 -0.0928 -0.0939 -0.1962
31491ION     NA48339  17.454   8.230  11.021 -0.0561  0.0201  0.1854
31492ION     NA48340   0.927   2.009   5.434 -0.3710 -0.0477 -0.0507
31493ION     NA48341   3.331   9.244  12.605 -0.0266  0.1593 -0.2104
31494ION     NA48342  15.570   6.442  10.796 -0.1362 -0.0332  0.0706
31495ION     NA48343  10.071  14.231  13.019  0.1029 -0.2455  0.3299
31496ION     NA48344  12.955   0.561  10.316 -0.0276 -0.0103  0.0766
31497ION     NA48345  15.220  17.536   2.195 -0.0979 -0.1836 -0.3384
31498ION     NA48346  10.608  15.993  10.618 -0.2068  0.2499 -0.0265
31499ION     NA48347  13.068  17.785  10.136  0.2756 -0.1824 -0.2379
31500ION     NA48348  10.444   5.555   3.359 -0.1547  0.1460 -0.1612
31501ION     NA48349  11.535   7.874   5.799 -0.0007  0.0099  0.0553
31502ION     NA48350   6.626  15.033   5.686 -0.0397  0.3654  0.0179
31503ION     NA48351  16.291   4.995  12.294  0.0112  0.0655 -0.2445
31504ION     NA48352   2.848  15.234   5.903 -0.3883 -0.2030  0.2750
31505ION     NA48353  11.284   7.644  14.778 -0.1459 -0.1005 -0.2254
31506ION     NA48354  16.196   6.603   6.039 -0.0541 -0.1487  0.2358
31507ION     NA48355  12.574   3.463  10.428 -0.1254 -0.1457 -0.2274
31508ION     NA48356  14.676  10.239  10.961  0.0796  0.0932  0.0372
31509ION     NA48357   6.392   6.594   5.428 -0.1734  0.1862  0.2563
31510ION     NA48358   1.935   8.754   5.845  0.0373  0.0691  0.0956
31511ION     NA48359   9.727  11.379  10.480 -0.3670 -0.1606  0.2677
31512ION     NA48360   2.741  13.413   5.921 -0.2055 -0.1333 -0.4335
31513ION     NA48361  10.725   3.359  10.306 -0.4964 -0.2099  0.0738
31514ION     NA48362  11.348  15.610   6.071 -0.0257  0.4539  0.2603
31515ION     NA48363   4.561  15.090   6.054  0.0496 -0.0490 -0.1671
31516ION     NA48364   7.649   9.668   5.187 -0.1926  0.1643  0.2505
31517ION     NA48365  14.486   9.492   2.698 -0.2356 -0.2998 -0.2178
31518ION     NA48366   3.898   6.379  11.220  0.3851 -0.0334 -0.0107
31519ION     NA48367  14.955  12.383  10.590 -0.0886 -0.1709 -0.1460
31520ION     NA48368  12.977  12.504  10.480  0.0142  0.0225 -0.2338
31521ION     NA48369  10.055  12.296  14.592 -0.1924  0.0748  0.0308
31522ION     NA48370   3.928  16.437   5.924 -0.0289 -0.0307  0.2662
31523ION     NA48371   9.828  11.920   4.609  0.0784 -0.2079  0.0975
31524ION     NA48372  15.199   3.646  10.515 -0.3181  0.2249  0.1541
31525ION     NA48373  17.539   2.239  10.465 -0.2492  0.1355  0.0420
31526ION     NA48374   9.447   9.581  10.673 -0.2889 -0.0399 -0.1378
31527ION     NA48375  10.899   2.967  10.117  0.0340  0.1150 -0.0655
31528ION     NA48376   8.892   7.247  10.350  0.0290  0.1907  0.1938
31529ION     NA48377   3.636  13.450  10.314  0.3399  0.3325 -0.3055
31530ION     NA48378   1.926   1.252   5.102 -0.0353 -0.0209  0.1845
31531ION     NA48379  17.668   4.021   5.410 -0.0792 -0.0061 -0.1776
31532ION     NA48380  18.032  14.373   3.836  0.0054  0.1664  0.4346
31533ION     NA48381   6.483  10.230  10.112  0.0889 -0.1768  0.0379
31534ION     NA48382   2.266   2.760  10.796 -0.1586 -0.1011  0.2575
31535ION     NA48383  18.095   9.331   6.167  0.3860 -0.0162  0.1530
31536ION     NA48384   1.278   0.169   2.768 -0.2635  0.1282  0.0316
31537ION     NA48385   8.946   4.105  10.843 -0.0172  0.1085  0.0848
31538ION     NA48386  15.611  16.886  10.288 -0.0155 -0.2404  0.1179
31539ION     NA48387   8.510  12.191  10.304 -0.2483 -0.1734 -0.1459
31540ION     NA48388   3.843   0.358  10.594 -0.0261 -0.1254  0.3158
31541ION     NA48389   5.265   1.436   5.730  0.0012 -0.3689  0.0172
31542ION     NA48390  16.663   7.909   1.935  0.2058  0.0683  0.3714
31543ION     NA48391  16.951   7.524  10.633 -0.1189 -0.2109 -0.0783
31544ION     NA48392   7.904   9.151  10.189  0.0116  0.0653 -0.2062
31545ION     NA48393  16.421  16.468  10.579 -0.0754  0.1755 -0.0155
31546ION     NA48394   3.263  14.221  10.376  0.0208 -0.0823 -0.1005
31547ION     NA48395   0.819   9.450   6.042 -0.3868 -0.2918  0.3366
31548ION     NA48396   3.186  17.416   5.613  0.0965  0.2536  0.2111
31549ION     NA48397   6.159   1.539  13.752 -0.1909  0.4497 -0.0930
31550ION     NA48398  16.408  17.374  10.203  0.0603 -0.2083 -0.1555
31551ION     NA48399  13.671  15.717   6.040  0.0792  0.2182  0.1399
31552ION     NA48400   8.716   9.230   5.768 -0.0043  0.0721  0.3094
31553ION     NA48401   0.525  16.004  10.363  0.4651  0.2464 -0.3241
31554ION     NA48402  13.449   3.870   4.500 -0.0456  0.2573  0.3083
31555ION     NA48403  17.009  13.008   5.300 -0.4813 -0.0906  0.4210
31556ION     NA48404   6.335   3.831  10.364 -0.1911  0.0906 -0.0469
31557ION     NA48405   6.204  11.977  10.310  0.1153  0.2120 -0.3072
31558ION     NA48406  14.109   7.395   5.476 -0.1611  0.0366  0.1418
31559ION     NA48407   5.339   4.610  10.551 -0.4276 -0.0403  0.1591
31560ION     NA48408   1.260   3.449   5.545 -0.1936 -0.0744  0.3904
31561ION     NA48409  13.785   3.759   6.007  0.0498 -0.0016  0.2243
31562ION     NA48410   9.396  14.849   5.993 -0.1258  0.1106 -0.0455
31563ION     NA48411   7.397  15.608  10.734  0.0249 -0.0807  0.1530
31564ION     NA48412   2.693   4.501  10.453  0.0622 -0.2024  0.0665
31565ION     NA48413   0.492   4.251   4.375  0.0135  0.0997  0.1654
31566ION     NA48414   5.852  13.551  10.943 -0.2463  0.0194 -0.0649
31567ION     NA48415  16.005   4.095  10.569 -0.1380  0.1575  0.3081
31568ION     NA48416   7.638  14.147  10.853 -0.1128  0.1425 -0.0473
31569ION     NA48417  10.237   6.793  10.309  0.1828  0.1475  0.3261
31570ION     NA48418  15.278  14.556  10.692  0.0417  0.0315 -0.4672
31571ION     NA48419   5.267   6.647  10.468 -0.0228  0.0137 -0.0889
31572ION     NA48420  13.355   6.058   5.711 -0.0644 -0.0824  0.0580
31573ION     NA48421   9.774  10.097  13.695 -0.0635 -0.0956  0.0895
31574ION     NA48422  17.145  13.004   3.936  0.0437 -0.0814  0.0503
31575ION     NA48423   2.690   9.244   1.797 -0.0336  0.1658  0.1428
31576ION     NA48424   4.676   9.545   5.878  0.1167 -0.3502 -0.2000
31577ION     NA48425   7.961   4.748   5.465 -0.0776 -0.0134  0.1939
31578ION     NA48426   3.422  18.062   3.449  0.0792 -0.0247 -0.1310
31579ION     NA48427  12.712   9.394  12.247 -0.0283 -0.0404 -0.0964
31580ION     NA48428  10.354   2.357  10.172 -0.1342  0.0813 -0.0089
31581ION     NA48429  13.058  16.883   5.621  0.0532 -0.0949  0.0764
31582ION     NA48430  14.839   4.798   3.352 -0.1333  0.1475  0.1031
31583ION     NA48431  12.683   0.653   2.141  0.0469  0.0106 -0.1058
31584ION     NA48432   9.722  16.946  12.954 -0.0620 -0.0526 -0.0817
31585ION     NA48433   8.901   8.028   4.975 -0.1109 -0.0686 -0.2322
31586ION     NA48434   8.725  17.447   5.762  0.0921  0.0028  0.3917
31587ION     NA48435  14.151  10.575   2.483  0.1232 -0.0412 -0.2277
31588ION     NA48436   6.058  10.933   5.687 -0.3782 -0.2138  0.1404
31589ION     NA48437   1.500   8.686  11.307  0.0510  0.1025  0.1386
31590ION     NA48438   1.033   1.881  10.467 -0.0601 -0.0064 -0.3957
31591ION     NA48439  17.952  17.520  10.308 -0.1244  0.2543  0.2288
31592ION     NA48440   1.379  16.509  10.624  0.0567 -0.1771 -0.0673
31593ION     NA48441   9.115  17.930  12.107 -0.3243 -0.0194  0.1123
31594ION     NA48442  18.045   5.097   1.648  0.1037  0.1448  0.0362
31595ION     NA48443   0.821  11.198  10.869  0.1945  0.0907 -0.4512
31596ION     NA48444   4.626  13.893  13.070 -0.1168  0.2887  0.0670
31597ION     NA48445   0.470  17.236   1.664  0.0578 -0.0276 -0.1253
31598ION     NA48446   7.804  16.441   6.118 -0.1347  0.2845 -0.2963
31599ION     NA48447  10.934  14.467  15.955  0.1829  0.1722 -0.1992
31600ION     NA48448   4.449  14.187   2.188 -0.0707 -0.0150 -0.1477
31601ION     NA48449  16.683   7.451   6.134 -0.0878 -0.2140  0.1057
31602ION     NA48450   1.449  13.633   6.058 -0.0233 -0.0168  0.1661
31603ION     NA48451  10.772  12.278   4.907  0.2639  0.0396 -0.0648
31604ION     NA48452   9.783   2.415   5.625 -0.3401  0.0260  0.1030
31605ION     NA48453   5.297  14.486   6.183 -0.3238  0.0499 -0.0999
31606ION     NA48454  17.368  10.400  10.661  0.2594  0.2434 -0.0880
31607ION     NA48455   9.623   8.873  10.584 -0.1888  0.1360  0.0820
31608ION     NA48456  14.238  12.456   5.960  0.0986 -0.3456  0.2794
31609ION     NA48457   3.318   7.835   5.044 -0.1852  0.0788 -0.0192
31610ION     NA48458  12.087   1.123   5.934 -0.1423 -0.2066 -0.0214
31611ION     NA48459   3.073  16.132  10.496  0.2012 -0.1158  0.1901
31612ION     NA48460  15.984  16.367  10.382 -0.3812 -0.1439  0.0951
31613ION     NA48461   0.343  16.567  14.574 -0.1566 -0.1522  0.2489
31614ION     NA48462  16.764   9.629  14.767  0.0581  0.1098  0.0831
31615ION     NA48463  12.104   2.612  10.079 -0.1404  0.0263  0.0778
31616ION     NA48464   3.870   1.244   5.779 -0.2990 -0.1618  0.0239
31617ION     NA48465   5.355   8.567  10.302 -0.1952 -0.0657 -0.1629
31618ION     NA48466  11.156  13.336  10.709 -0.1029  0.4241 -0.4110
31619ION     NA48467   7.215   1.858   6.099  0.0354  0.2533 -0.0760
31620ION     NA48468  13.954   2.695  10.406 -0.0428 -0.1849 -0.0506
31621ION     NA48469  11.608   6.138  10.621 -0.2042 -0.0319  0.1261
31622ION     NA48470   9.941  14.281   5.911 -0.1256 -0.3863 -0.0114
31623ION     NA48471   0.035   6.534   6.222 -0.1374  0.3547  0.3214
31624ION     NA48472   8.125   3.958   1.972  0.1788  0.1807  0.3356
31625ION     NA48473  17.445   9.322  11.188 -0.0895  0.0429  0.0014
31626ION     NA48474   5.455   7.226   5.648 -0.0788 -0.3562  0.0914
31627ION     NA48475  16.546  14.662  12.964 -0.0677 -0.0344  0.0409
31628ION     NA48476   3.501   6.066   4.049  0.0883 -0.1396 -0.0282
31629ION     NA48477   2.588  15.409   2.618 -0.1048 -0.0656 -0.2582
31630ION     NA48478   4.686  17.809  15.264  0.1635 -0.0926  0.0863
31631ION     NA48479  14.419   7.447  10.784  0.0560  0.1428  0.0563
31632ION     NA48480   9.380  15.095  10.780 -0.0310  0.1982 -0.1711
31633ION     NA48481   5.209  10.298   5.731  0.1785  0.1148  0.0938
31634ION     NA48482   1.404  12.393  10.605  0.0889 -0.1363  0.4005
31635ION     NA48483   5.777  11.925   1.967  0.1717  0.0680  0.0539
31636ION     NA48484   1.648   0.260   5.504 -0.0297  0.1492  0.0060
31637ION     NA48485   3.373   4.464   6.092 -0.1297  0.0555  0.1110
31638ION     NA48486   7.649   6.600   5.072  0.1737  0.1114  0.0058
31639ION     NA48487   4.390  12.671  10.382  0.1750  0.0933 -0.2888
31640ION     NA48488   4.828  15.391   1.202 -0.2118 -0.0912 -0.0690
31641ION     NA48489   3.439   5.938  14.363  0.2186  0.0237  0.0076
31642ION     NA48490  13.389   8.013   3.398  0.4197  0.2134 -0.1935
31643ION     NA48491   2.261  11.876  14.528 -0.1540 -0.0365 -0.0324
31644ION     NA48492   9.757   2.781   3.479 -0.0422  0.0036 -0.1385
31645ION     NA48493  12.115   9.679  15.054  0.2912 -0.0039  0.0099
31646ION     NA48494  10.869  12.683   5.917 -0.1539  0.2362 -0.1533
31647ION     NA48495  10.155   5.200  10.380 -0.0706  0.0902  0.0405
31648ION     NA48496  14.094   5.257   3.626  0.3955  0.1919 -0.0548
31649ION     NA48497   4.127   5.766  10.742 -0.0644 -0.1401 -0.0423
31650ION     NA48498  16.178  13.364  11.002  0.2362 -0.0258 -0.1467
31651ION     NA48499   4.331  17.956  10.558  0.1058 -0.3938 -0.1106
31652ION     NA48500  13.499   5.552  10.695 -0.2354 -0.2017  0.1819
31653ION     NA48501  15.599   9.320  16.225  0.1133  0.0855 -0.0018
31654ION     NA48502   9.838   3.453  12.408  0.0613 -0.1460  0.0520
31655ION     NA48503  11.294  16.549  15.161  0.0589 -0.1722 -0.0138
31656ION     NA48504   9.032  17.107  12.089 -0.0868 -0.1227 -0.0555
31657ION     NA48505  15.754  10.134  10.934 -0.2555 -0.0659 -0.3173
31658ION     NA48506   2.470   6.127  10.475 -0.3128 -0.0507  0.1747
31659ION     NA48507   0.615  10.627   6.063  0.0303  0.1115  0.3822
31660ION     NA48508   0.172   5.501  10.249  0.2268 -0.2795 -0.2894
31661ION     NA48509   1.093  14.295  14.547  0.3792 -0.2721 -0.0384
31662ION     NA48510  13.764  13.667  10.630  0.1181 -0.1176 -0.0036
31663ION     NA48511   6.200   4.738  10.412 -0.1712 -0.3347  0.1104
31664ION     NA48512  17.476   9.281   5.871 -0.2447 -0.0240 -0.0292
31665ION     NA48513   0.214   0.280   5.694 -0.2896  0.0904 -0.0888
31666ION     NA48514  12.087  13.607  10.625  0.1030  0.2367  0.0402
31667ION     NA48515   3.791   8.592   0.755 -0.0269 -0.2009 -0.2890
31668ION     NA48516   6.680   5.389   5.390  0.4153  0.2717  0.0864
31669ION     NA48517   7.512   5.257  10.001 -0.1916  0.0218  0.3407
31670ION     NA48518  13.006   2.583  10.142  0.0427  0.2417  0.0188
31671ION     NA48519  17.717  17.978   5.316 -0.2490 -0.2940  0.3072
31672ION     NA48520   9.441   2.799  11.982 -0.0965 -0.1470  0.1985
31673ION     NA48521   6.116  13.928   6.220 -0.0250  0.2814  0.1664
31674ION     NA48522  10.992   9.070  11.368 -0.0710 -0.4915 -0.0532
31675ION     NA48523   1.493   6.802   3.139 -0.1505 -0.0202 -0.1321
31676ION     NA48524  10.159  12.277  11.652 -0.2843  0.2913  0.0355
31677ION     NA48525  10.466   9.350  10.802  0.1526 -0.1912 -0.2493
31678ION     NA48526   5.884  13.012  10.497 -0.2916  0.3285  0.0932
31679ION     NA48527  16.556   1.847  10.395 -0.0340  0.1477  0.1872
31680ION     NA48528   8.255  15.710   6.040 -0.0940  0.3636 -0.1484
31681ION     NA48529   1.405  15.408  10.575 -0.0056  0.2068 -0.0479
31682ION     NA48530   7.392   3.669  10.415  0.0929  0.0088  0.1380
31683ION     NA48531  15.711  17.127   5.494  0.0432  0.1169 -0.2814
31684ION     NA48532  15.481   2.539   1.420  0.1234  0.3272 -0.0321
31685ION     NA48533  13.443   3.496  10.439 -0.3963  0.0160  0.0553
31686ION     NA48534  17.879   4.043  11.878 -0.2530  0.0254 -0.2010
31687ION     NA48535  14.892   4.366  10.478 -0.2852  0.2559 -0.1308
31688ION     NA48536  12.242  10.977  10.725 -0.1943  0.2544  0.0935
31689ION     NA48537   2.650   5.216  10.268  0.1380  0.0986  0.4752
31690ION     NA48538  16.929  14.832  10.561  0.0991  0.3169 -0.1584
31691ION     NA48539   3.575   9.577   0.592  0.0512 -0.0831 -0.0125
31692ION     NA48540  14.823  16.975   6.052  0.2851  0.0315  0.0415
31693ION     NA48541   9.350   0.501   5.860 -0.0318  0.0847 -0.1379
31694ION     NA48542   4.536   2.123  16.072  0.0296  0.3145 -0.4418
31695ION     NA48543  16.879  15.026  13.968  0.2941 -0.2191  0.3026
31696ION     NA48544  17.813   0.383  10.446 -0.1670 -0.0558  0.0392
31697ION     NA48545   9.281   6.553  10.278  0.0854  0.2503  0.1824
31698ION     NA48546  11.076   2.850   2.936 -0.1472 -0.1497 -0.1086
31699ION     NA48547   9.462   3.147  10.408 -0.1377  0.2830  0.1848
31700ION     NA48548  17.239  12.604  11.037  0.1259  0.2429 -0.2164
31701ION     NA48549  10.898  10.406   5.817 -0.3002  0.2150  0.4291
31702ION     NA48550   5.364  15.089  10.669  0.0460  0.0517 -0.1228
31703ION     NA48551   0.328  10.410  11.004  0.1895 -0.0190 -0.2081
31704ION     NA48552  15.555   4.996  10.657 -0.0931  0.3557  0.0959
31705ION     NA48553   8.954  16.375  10.778  0.0117  0.1238 -0.0186
31706ION     NA48554  16.627   5.735  10.688  0.0362  0.2707 -0.3488
31707ION     NA48555  12.426  11.710   0.204 -0.4044 -0.1170  0.0882
31708ION     NA48556   7.267   0.260  10.465  0.0577  0.0600  0.4490
31709ION     NA48557  11.334   7.559   0.703  0.1207 -0.2395 -0.1401
31710ION     NA48558  14.749  11.052   6.131  0.3766  0.0916 -0.1271
31711ION     NA48559  14.397  17.869   0.513 -0.0077 -0.1675  0.1354
31712ION     NA48560   8.017   0.208   5.960 -0.4323  0.1672 -0.0709
31713ION     NA48561  13.410   4.043  10.578 -0.3046 -0.2903  0.2342
31714ION     NA48562  12.132  15.814  12.773 -0.0057  0.1148 -0.0907
31715ION     NA48563  10.437   2.965   5.801 -0.1185  0.0993  0.2130
31716ION     NA48564  16.759  13.303   6.254  0.3120  0.1219  0.2156
31717ION     NA48565   0.465   4.642  10.367 -0.2147 -0.3332  0.1931
31718ION     NA48566   5.405   7.387  10.252 -0.1272 -0.3996  0.4809
  18.09720  18.09720  16.33570
