INSANE! Membrane UpperLeaflet>loPI:POPI:DPPI:PYPI:ERGO=20.0:5.0:3.0:2.0:10.0 LowerLeaflet>loPI:POPI:DPPI:PYPI:ERGO=20.0:5.0:3.0:2.0:10.0
48566
    1loPI    C1    1  14.733   3.900  10.936 -0.1980  0.0120  0.1606
    1loPI    C2    2  14.442   3.676  10.777  0.0248 -0.0724 -0.1381
    1loPI    C3    3  14.804   3.518  10.841  0.0734  0.0966  0.0129
    1loPI   PO4    4  14.782   4.100  10.760  0.0840  0.0945  0.3492
    1loPI   GL1    5  15.062   4.398  10.544  0.0410  0.1362  0.2318
    1loPI   GL2    6  14.932   4.221  10.275  0.1752 -0.1237  0.0089
    1loPI   C1A    7  15.218   4.648  10.206  0.0880 -0.0559  0.0309
    1loPI   C2A    8  15.242   4.707   9.789 -0.0257  0.0073  0.0185
    1loPI   C3A    9  15.247   4.624   9.376 -0.2450 -0.0702 -0.2444
    1loPI   C4A   10  15.198   4.396   9.078 -0.4217  0.0922  0.1313
    1loPI   C5A   11  15.494   4.257   8.808  0.0586  0.0443 -0.2696
    1loPI   C6A   12  15.528   3.943   8.445  0.1649 -0.2302 -0.0985
    1loPI   C1B   13  14.665   4.078  10.037  0.1744  0.0067  0.0596
    1loPI   C2B   14  14.752   3.786   9.779  0.0049 -0.1426  0.4409
    1loPI   C3B   15  14.805   3.587   9.345  0.1529  0.0917  0.1806
    1loPI   C4B   16  14.672   3.435   9.034  0.1961  0.2206 -0.0902
    2loPI    C1   17  15.759  14.497  10.335  0.1927 -0.0158  0.0634
    2loPI    C2   18  15.998  14.433  10.650  0.0686 -0.0909  0.1433
    2loPI    C3   19  15.949  14.804  10.508  0.1092 -0.0540  0.2250
    2loPI   PO4   20  15.556  14.266  10.418  0.0246  0.1714  0.2955
    2loPI   GL1   21  15.324  14.067  10.138 -0.1576  0.0293  0.0903
    2loPI   GL2   22  15.101  13.945  10.158 -0.0292  0.1936  0.0277
    2loPI   C1A   23  15.333  13.980   9.678  0.3700  0.0116  0.3827
    2loPI   C2A   24  15.037  13.864   9.271  0.0848 -0.1112 -0.0255
    2loPI   C3A   25  15.032  13.968   8.789  0.0775  0.0168 -0.1313
    2loPI   C4A   26  15.117  14.057   8.376 -0.1096 -0.1006  0.0871
    2loPI   C5A   27  15.069  14.111   8.038 -0.3294 -0.1957 -0.1130
    2loPI   C6A   28  14.791  14.110   7.760 -0.2569  0.0702  0.2817
    2loPI   C1B   29  14.809  13.968   9.862  0.0851 -0.0158 -0.4144
    2loPI   C2B   30  14.756  14.229   9.481  0.0980 -0.1697  0.0443
    2loPI   C3B   31  14.648  14.147   9.038  0.2082  0.0950  0.1423
    2loPI   C4B   32  14.343  14.328   8.806  0.0819  0.0063 -0.0791
    3loPI    C1   33   4.527   3.251  10.623 -0.1012 -0.0015 -0.0942
    3loPI    C2   34   4.270   3.184  10.922 -0.0095 -0.0966 -0.0364
    3loPI    C3   35   4.372   3.559  10.827  0.0907 -0.0716  0.1627
    3loPI   PO4   36   4.822   3.131  10.751 -0.0173 -0.0611 -0.2476
    3loPI   GL1   37   4.973   2.825  10.459 -0.2535 -0.0013  0.0298
    3loPI   GL2   38   4.830   3.063  10.278  0.0441 -0.2036 -0.1053
    3loPI   C1A   39   5.311   2.882  10.135 -0.0281  0.0469 -0.1679
    3loPI   C2A   40   5.305   2.821   9.652  0.2071 -0.0818  0.0233
    3loPI   C3A   41   5.180   2.841   9.196 -0.1143  0.0566  0.2026
    3loPI   C4A   42   5.429   2.987   8.879 -0.0261  0.1979  0.1685
    3loPI   C5A   43   5.744   2.972   8.506 -0.0055  0.0466 -0.0001
    3loPI   C6A   44   5.798   2.784   8.110 -0.1380  0.0833 -0.1279
    3loPI   C1B   45   4.790   3.014   9.795  0.2290 -0.2423  0.2666
    3loPI   C2B   46   4.774   3.032   9.361  0.1858 -0.2510 -0.0076
    3loPI   C3B   47   4.751   2.912   8.956 -0.0979 -0.1714  0.0344
    3loPI   C4B   48   5.002   3.001   8.641  0.0518  0.1695 -0.1336
    4loPI    C1   49   7.225   6.169  11.315  0.0028 -0.0247 -0.0922
    4loPI    C2   50   6.845   6.289  11.290 -0.0218 -0.1398 -0.2970
    4loPI    C3   51   6.931   5.927  11.436  0.0292 -0.0113 -0.0004
    4loPI   PO4   52   7.297   6.176  11.041 -0.1475  0.0575 -0.0403
    4loPI   GL1   53   7.190   6.182  10.699  0.2286 -0.0536  0.0818
    4loPI   GL2   54   6.836   6.227  10.656 -0.1036  0.1307  0.1575
    4loPI   C1A   55   7.073   5.881  10.303 -0.3138 -0.3038  0.1822
    4loPI   C2A   56   6.835   5.895   9.866 -0.2705 -0.0260 -0.2388
    4loPI   C3A   57   6.653   5.689   9.619  0.0574  0.0145  0.2837
    4loPI   C4A   58   6.640   5.535   9.229  0.2358  0.1442 -0.1686
    4loPI   C5A   59   6.418   5.271   9.017 -0.0837 -0.0124  0.1990
    4loPI   C6A   60   6.184   5.145   8.654  0.1564 -0.2586 -0.0413
    4loPI   C1B   61   6.735   6.280  10.176 -0.1551 -0.0942 -0.4505
    4loPI   C2B   62   6.341   6.411  10.014 -0.1989 -0.1354  0.0551
    4loPI   C3B   63   6.341   6.537   9.581 -0.0335 -0.0461 -0.2164
    4loPI   C4B   64   6.423   6.560   9.178 -0.0893 -0.0197  0.0790
    5loPI    C1   65  16.513   1.143  10.598  0.1641 -0.1449  0.0775
    5loPI    C2   66  16.219   1.407  10.538  0.1488 -0.1545  0.1103
    5loPI    C3   67  16.310   1.290  10.909  0.1745 -0.1738  0.0979
    5loPI   PO4   68  16.745   1.269  10.490  0.3691  0.0200  0.0928
    5loPI   GL1   69  16.750   1.321  10.090 -0.1658  0.0272 -0.0779
    5loPI   GL2   70  16.471   1.560  10.190  0.2310 -0.1063 -0.1052
    5loPI   C1A   71  16.915   1.271   9.634 -0.1225 -0.1527 -0.1111
    5loPI   C2A   72  16.858   1.293   9.222  0.0192  0.1621 -0.1630
    5loPI   C3A   73  16.928   1.240   8.866 -0.2707 -0.1308  0.0714
    5loPI   C4A   74  16.899   1.224   8.485 -0.1541 -0.1887 -0.1597
    5loPI   C5A   75  17.370   1.333   8.208 -0.2852  0.1153 -0.0637
    5loPI   C6A   76  17.720   1.309   8.001  0.0516 -0.1555  0.2227
    5loPI   C1B   77  16.607   1.721   9.816 -0.1449 -0.0846 -0.0427
    5loPI   C2B   78  16.689   1.728   9.337 -0.1683 -0.0533  0.4057
    5loPI   C3B   79  16.695   1.717   8.811 -0.1396 -0.0174  0.1121
    5loPI   C4B   80  16.547   1.615   8.335  0.2218  0.1232 -0.1535
    6loPI    C1   81   4.838  10.431  10.675  0.0245 -0.3264 -0.4633
    6loPI    C2   82   5.091  10.223  10.904 -0.0574  0.2761  0.2099
    6loPI    C3   83   5.229  10.431  10.591  0.1390 -0.1063  0.0357
    6loPI   PO4   84   4.665  10.216  10.586 -0.0745 -0.1276  0.3125
    6loPI   GL1   85   4.504  10.040  10.181 -0.2999 -0.0055 -0.1067
    6loPI   GL2   86   4.669   9.783  10.300 -0.1081  0.2348 -0.2388
    6loPI   C1A   87   4.545   9.840   9.790 -0.0568 -0.1618 -0.0815
    6loPI   C2A   88   4.757   9.868   9.607 -0.1283  0.0170 -0.1663
    6loPI   C3A   89   4.966   9.749   9.144 -0.0195  0.1198  0.0021
    6loPI   C4A   90   5.048   9.948   8.779 -0.3287 -0.0003  0.1552
    6loPI   C5A   91   5.345   9.944   8.431 -0.1193 -0.1065 -0.0677
    6loPI   C6A   92   5.720  10.185   8.270  0.0041 -0.2899 -0.2353
    6loPI   C1B   93   4.825   9.486  10.156  0.0206  0.0703 -0.0364
    6loPI   C2B   94   4.828   9.409   9.771 -0.0903 -0.0247 -0.0562
    6loPI   C3B   95   4.916   9.338   9.394 -0.0686 -0.1514  0.0514
    6loPI   C4B   96   5.258   9.195   9.172  0.1555 -0.0908  0.1040
    7loPI    C1   97  12.810  11.513  10.715 -0.0909  0.2005 -0.1752
    7loPI    C2   98  12.653  11.160  10.817  0.1582  0.1141 -0.0827
    7loPI    C3   99  12.896  11.352  11.071 -0.2560  0.5254  0.0169
    7loPI   PO4  100  12.825  11.545  10.467 -0.1429 -0.0822  0.0841
    7loPI   GL1  101  13.083  11.499  10.116 -0.0106  0.1682  0.4468
    7loPI   GL2  102  13.233  11.301  10.094 -0.1395  0.3715  0.0068
    7loPI   C1A  103  13.234  11.574   9.681 -0.0942  0.0200 -0.1255
    7loPI   C2A  104  13.180  11.671   9.307 -0.1821 -0.1504 -0.4163
    7loPI   C3A  105  13.297  11.865   9.063  0.1846 -0.6098 -0.0371
    7loPI   C4A  106  13.467  11.776   8.575 -0.3401  0.0408  0.0440
    7loPI   C5A  107  13.701  11.404   8.415 -0.1253 -0.0452 -0.2019
    7loPI   C6A  108  13.511  11.260   8.010  0.0605 -0.2609  0.0711
    7loPI   C1B  109  13.243  11.044   9.683 -0.1263  0.3898  0.1411
    7loPI   C2B  110  13.223  11.112   9.289 -0.1487 -0.1206 -0.2545
    7loPI   C3B  111  13.236  11.155   8.907 -0.0061  0.2420 -0.2056
    7loPI   C4B  112  13.329  11.026   8.544 -0.0535  0.0633  0.2427
    8loPI    C1  113  16.713  10.113  10.641  0.1203 -0.0529  0.0908
    8loPI    C2  114  16.466  10.100  10.956 -0.1458 -0.0602 -0.1142
    8loPI    C3  115  16.703  10.417  10.901 -0.0033 -0.1158  0.1609
    8loPI   PO4  116  16.562  10.089  10.415  0.1271  0.1030  0.2723
    8loPI   GL1  117  16.299   9.850  10.167  0.1494 -0.1488 -0.2396
    8loPI   GL2  118  16.189   9.534  10.294  0.1182  0.0860 -0.1864
    8loPI   C1A  119  16.357   9.974   9.752 -0.0907 -0.0371 -0.2623
    8loPI   C2A  120  16.326  10.043   9.393  0.2663 -0.1665 -0.3291
    8loPI   C3A  121  16.255  10.099   8.976  0.2429  0.1195 -0.1538
    8loPI   C4A  122  16.186  10.229   8.605 -0.2616  0.0551  0.0995
    8loPI   C5A  123  16.214  10.380   8.162  0.3506 -0.0597 -0.5383
    8loPI   C6A  124  16.108  10.791   7.945 -0.1239  0.3323 -0.1279
    8loPI   C1B  125  15.985   9.587   9.904 -0.1418 -0.0667  0.0028
    8loPI   C2B  126  15.954   9.574   9.545  0.1071  0.1012 -0.0718
    8loPI   C3B  127  16.096   9.625   9.104 -0.0484  0.0080  0.0200
    8loPI   C4B  128  16.091   9.704   8.645 -0.2640 -0.1697  0.0594
    9loPI    C1  129  13.169  12.085  10.956 -0.1300 -0.2247  0.1340
    9loPI    C2  130  12.843  11.903  11.099 -0.2335  0.0392  0.2399
    9loPI    C3  131  13.072  12.123  11.342 -0.0983  0.0348  0.1180
    9loPI   PO4  132  13.067  12.005  10.660 -0.2960  0.2960 -0.1825
    9loPI   GL1  133  12.864  11.979  10.272  0.0446  0.0960 -0.3008
    9loPI   GL2  134  12.805  12.309  10.133 -0.0700  0.0492  0.0531
    9loPI   C1A  135  12.770  11.837   9.862 -0.2146  0.1023  0.1505
    9loPI   C2A  136  12.707  11.856   9.464 -0.1030 -0.0195  0.1344
    9loPI   C3A  137  12.739  11.970   9.019 -0.0582  0.0061  0.1688
    9loPI   C4A  138  12.969  11.605   8.653 -0.0131 -0.1938  0.1745
    9loPI   C5A  139  12.917  11.271   8.355 -0.1888 -0.3963 -0.2417
    9loPI   C6A  140  13.060  10.814   8.169 -0.0917 -0.1056  0.3009
    9loPI   C1B  141  12.480  12.248   9.810 -0.1329 -0.1331 -0.1197
    9loPI   C2B  142  12.347  12.264   9.451 -0.2985 -0.0115 -0.4006
    9loPI   C3B  143  12.291  12.140   8.968  0.0084  0.1942  0.0567
    9loPI   C4B  144  12.330  12.130   8.573  0.3063  0.0968  0.0842
   10loPI    C1  145  13.502  16.152  10.458  0.2931 -0.0150  0.0940
   10loPI    C2  146  13.302  16.346  10.745 -0.0581 -0.2356  0.0041
   10loPI    C3  147  13.578  16.074  10.843  0.0930 -0.0397  0.1293
   10loPI   PO4  148  13.599  16.366  10.348  0.1587 -0.1301  0.3662
   10loPI   GL1  149  13.745  16.342   9.917 -0.0429 -0.1746  0.1871
   10loPI   GL2  150  13.337  16.360   9.882  0.1328  0.0581 -0.0245
   10loPI   C1A  151  13.660  16.517   9.488  0.1546  0.2719  0.0976
   10loPI   C2A  152  13.364  16.439   9.016  0.0017 -0.2727  0.0791
   10loPI   C3A  153  13.196  16.291   8.657 -0.1949 -0.1092  0.1831
   10loPI   C4A  154  12.900  15.982   8.503 -0.0129  0.3317 -0.0526
   10loPI   C5A  155  12.884  15.656   8.184 -0.1561 -0.0495  0.2179
   10loPI   C6A  156  13.065  15.455   7.994 -0.4603  0.2798 -0.0694
   10loPI   C1B  157  13.093  16.422   9.447  0.0251 -0.0702  0.0618
   10loPI   C2B  158  12.873  16.539   9.193 -0.0601  0.2309 -0.2144
   10loPI   C3B  159  12.749  16.514   8.748  0.1173 -0.1590 -0.1331
   10loPI   C4B  160  12.712  16.416   8.333 -0.1255  0.2678 -0.0593
   11loPI    C1  161  17.565   1.958  10.949  0.2831  0.0294 -0.0074
   11loPI    C2  162  17.566   2.339  11.069  0.3119 -0.0491  0.2495
   11loPI    C3  163  17.271   2.094  11.184  0.2301 -0.0767 -0.0113
   11loPI   PO4  164  17.750   1.999  10.723  0.2147 -0.2336 -0.1100
   11loPI   GL1  165  18.002   2.223  10.450  0.3128 -0.3110 -0.1705
   11loPI   GL2  166  17.739   2.419  10.487  0.0197 -0.1386  0.1465
   11loPI   C1A  167  17.969   1.988  10.088  0.0400 -0.1753  0.0053
   11loPI   C2A  168  17.893   1.915   9.698  0.1356 -0.1645 -0.0671
   11loPI   C3A  169  17.979   1.971   9.410  0.2396 -0.0748 -0.1955
   11loPI   C4A  170  17.980   2.151   8.967  0.0968  0.0621  0.3628
   11loPI   C5A  171  17.936   1.990   8.473  0.0202 -0.2762  0.0299
   11loPI   C6A  172  17.948   2.193   8.050 -0.3154  0.0658  0.0776
   11loPI   C1B  173  17.471   2.668  10.144  0.0352  0.1234  0.0124
   11loPI   C2B  174  17.561   2.755   9.829  0.0144  0.0735  0.0089
   11loPI   C3B  175  17.474   2.743   9.532 -0.0245 -0.0843  0.3204
   11loPI   C4B  176  17.750   2.636   9.199 -0.0226  0.1825 -0.2303
   12loPI    C1  177  15.737  17.408  11.058  0.2991  0.1777  0.3217
   12loPI    C2  178  15.842  17.533  10.693  0.0305 -0.1800  0.1153
   12loPI    C3  179  15.641  17.778  10.938 -0.1168 -0.0631 -0.1193
   12loPI   PO4  180  15.644  17.230  11.007 -0.0053  0.0218 -0.3054
   12loPI   GL1  181  15.789  17.107  10.514  0.0923 -0.1174 -0.0611
   12loPI   GL2  182  15.531  16.920  10.401 -0.1683 -0.2172 -0.3664
   12loPI   C1A  183  15.973  17.239  10.176 -0.0623  0.2431 -0.0247
   12loPI   C2A  184  15.946  17.294   9.797  0.2242 -0.2307 -0.0192
   12loPI   C3A  185  15.929  17.298   9.362 -0.0203  0.0132  0.1726
   12loPI   C4A  186  16.027  17.162   8.910  0.0692  0.3811 -0.3213
   12loPI   C5A  187  16.006  17.043   8.466 -0.3870 -0.1626  0.3161
   12loPI   C6A  188  15.622  17.139   8.180 -0.0222  0.0878  0.1843
   12loPI   C1B  189  15.532  16.977  10.078  0.2899  0.2162 -0.0433
   12loPI   C2B  190  15.576  17.030   9.621 -0.1281  0.2364 -0.2446
   12loPI   C3B  191  15.646  16.895   9.124  0.1462 -0.1615  0.1226
   12loPI   C4B  192  15.554  17.075   8.707  0.1081  0.3538 -0.2643
   13loPI    C1  193   0.861  15.815  10.406  0.2707  0.1782 -0.0461
   13loPI    C2  194   0.887  15.815  10.805  0.3049  0.2811 -0.0482
   13loPI    C3  195   0.599  16.025  10.623  0.0673 -0.0517 -0.0647
   13loPI   PO4  196   1.104  15.707  10.354 -0.0290 -0.1662  0.1254
   13loPI   GL1  197   1.221  15.509   9.979 -0.0208 -0.0422  0.0278
   13loPI   GL2  198   1.438  15.628   9.733  0.4186  0.1613  0.1085
   13loPI   C1A  199   1.029  15.397   9.619 -0.2653 -0.2579  0.0798
   13loPI   C2A  200   1.131  15.298   9.150 -0.0450 -0.0722 -0.2986
   13loPI   C3A  201   0.924  15.254   8.728 -0.0513  0.0581 -0.2095
   13loPI   C4A  202   0.509  15.207   8.513  0.3937 -0.0540  0.3819
   13loPI   C5A  203   0.261  15.453   8.239  0.0338 -0.2943 -0.0495
   13loPI   C6A  204   0.028  15.740   8.023 -0.1082  0.3605 -0.2710
   13loPI   C1B  205   1.480  15.673   9.308  0.3735  0.2281 -0.0211
   13loPI   C2B  206   1.671  15.683   8.842  0.0112  0.2344  0.0865
   13loPI   C3B  207   1.700  15.735   8.406 -0.2004 -0.0598  0.2167
   13loPI   C4B  208   1.560  15.446   8.039  0.0221 -0.1126  0.0279
   14loPI    C1  209   8.943  17.348  10.997  0.1373  0.1340 -0.0766
   14loPI    C2  210   8.753  17.511  11.309 -0.0167  0.1002 -0.1515
   14loPI    C3  211   9.149  17.461  11.320 -0.0133  0.1570  0.0130
   14loPI   PO4  212   8.684  17.491  10.819 -0.1041 -0.1738  0.1369
   14loPI   GL1  213   8.320  17.781  10.629  0.2357 -0.1057  0.2262
   14loPI   GL2  214   8.318  17.568  10.356 -0.1118  0.1446  0.2466
   14loPI   C1A  215   8.450  18.097  10.383 -0.1707 -0.2215  0.1347
   14loPI   C2A  216   8.310  18.262  10.026 -0.0562  0.1207  0.2253
   14loPI   C3A  217   8.251  18.282   9.648 -0.0443 -0.0520  0.0712
   14loPI   C4A  218   8.209  18.333   9.199  0.2370 -0.1098 -0.0674
   14loPI   C5A  219   8.143  18.291   8.750 -0.0993  0.3329  0.4830
   14loPI   C6A  220   8.329  17.973   8.443 -0.3027  0.1292  0.1853
   14loPI   C1B  221   8.385  17.741   9.996 -0.0560  0.0829  0.1786
   14loPI   C2B  222   8.410  17.790   9.667  0.2859 -0.1265 -0.0550
   14loPI   C3B  223   8.484  17.925   9.292 -0.1495  0.0448  0.1427
   14loPI   C4B  224   8.594  18.063   8.937  0.2748 -0.0719  0.3011
   15loPI    C1  225  11.685   6.885  10.463  0.0270  0.2845 -0.0432
   15loPI    C2  226  11.295   6.949  10.523 -0.0306  0.0412 -0.1460
   15loPI    C3  227  11.452   6.589  10.596  0.2095  0.1827  0.0536
   15loPI   PO4  228  11.692   6.930  10.228 -0.1521  0.1374  0.0695
   15loPI   GL1  229  11.595   7.161   9.837 -0.5772 -0.3301 -0.0443
   15loPI   GL2  230  11.681   7.442   9.841 -0.0499 -0.0378 -0.2066
   15loPI   C1A  231  11.426   7.131   9.473  0.2378  0.1210  0.0437
   15loPI   C2A  232  11.673   7.195   8.972  0.1297 -0.0882 -0.0232
   15loPI   C3A  233  11.705   7.145   8.541  0.1938  0.1811  0.1028
   15loPI   C4A  234  11.416   6.981   8.167 -0.0268 -0.2484  0.0313
   15loPI   C5A  235  11.115   6.715   8.156  0.2127  0.1780 -0.3014
   15loPI   C6A  236  10.668   6.531   8.195 -0.0284 -0.1468  0.0128
   15loPI   C1B  237  11.695   7.688   9.471  0.0933 -0.0341  0.3019
   15loPI   C2B  238  11.689   7.733   8.987  0.0834 -0.2795  0.1617
   15loPI   C3B  239  11.823   7.615   8.582  0.0263 -0.0227 -0.1193
   15loPI   C4B  240  12.050   7.616   8.238  0.0959 -0.6393 -0.1163
   16loPI    C1  241   5.181  11.062  10.951 -0.0003 -0.0260 -0.3157
   16loPI    C2  242   5.526  11.077  11.153 -0.3230  0.1014  0.2497
   16loPI    C3  243   5.401  11.397  10.948 -0.0291 -0.0038 -0.1063
   16loPI   PO4  244   5.216  10.930  10.790 -0.3679 -0.0651  0.2258
   16loPI   GL1  245   5.054  10.842  10.324 -0.0976  0.3873 -0.0176
   16loPI   GL2  246   5.424  10.812  10.228 -0.1083  0.3155  0.1087
   16loPI   C1A  247   4.855  10.799   9.967  0.1904  0.1482 -0.1222
   16loPI   C2A  248   4.873  10.778   9.515 -0.1317 -0.2119 -0.0433
   16loPI   C3A  249   4.893  10.723   9.133  0.0739 -0.1042 -0.2016
   16loPI   C4A  250   4.965  10.481   8.872  0.3188  0.2166  0.1248
   16loPI   C5A  251   5.038  10.382   8.490 -0.3132 -0.3174  0.0079
   16loPI   C6A  252   5.252  10.389   8.147 -0.2627  0.1694 -0.0170
   16loPI   C1B  253   5.739  11.034  10.044  0.0221 -0.1432  0.1455
   16loPI   C2B  254   5.848  10.875   9.604  0.2201 -0.2322 -0.1068
   16loPI   C3B  255   5.906  11.005   9.216 -0.0642  0.1668 -0.0116
   16loPI   C4B  256   5.807  11.017   8.779 -0.0525  0.0268 -0.0771
   17loPI    C1  257  15.375   9.251  10.906  0.0280 -0.1645 -0.0309
   17loPI    C2  258  15.254   9.220  11.286  0.2495  0.0506  0.0600
   17loPI    C3  259  15.561   9.000  11.156  0.2389  0.0519  0.0326
   17loPI   PO4  260  15.154   9.212  10.785 -0.0150  0.1019  0.6674
   17loPI   GL1  261  15.048   9.037  10.496 -0.2050  0.1391 -0.1939
   17loPI   GL2  262  14.941   9.352  10.361  0.2945  0.3358 -0.0309
   17loPI   C1A  263  15.314   8.901  10.103  0.3010  0.0850  0.1786
   17loPI   C2A  264  15.217   8.816   9.661  0.3790  0.0953  0.2320
   17loPI   C3A  265  15.296   8.721   9.227  0.2265 -0.0395  0.1158
   17loPI   C4A  266  15.618   8.727   8.835 -0.0209 -0.1486  0.1724
   17loPI   C5A  267  16.089   8.787   8.534  0.1780 -0.2412  0.2990
   17loPI   C6A  268  16.504   8.595   8.481 -0.1488  0.0574  0.0158
   17loPI   C1B  269  15.121   9.551  10.078 -0.1186 -0.1465 -0.0544
   17loPI   C2B  270  15.273   9.615   9.622  0.1994  0.1181  0.0194
   17loPI   C3B  271  15.335   9.541   9.206  0.0338 -0.0759  0.1682
   17loPI   C4B  272  15.578   9.631   8.856 -0.0019  0.0601 -0.1907
   18loPI    C1  273   9.849  10.764  10.889 -0.1653  0.0250  0.0331
   18loPI    C2  274   9.837  10.946  11.245  0.0116  0.1587 -0.0280
   18loPI    C3  275  10.017  11.124  10.935 -0.1055  0.0251 -0.1745
   18loPI   PO4  276   9.644  10.721  10.822 -0.3420  0.2394 -0.0854
   18loPI   GL1  277   9.421  10.568  10.489  0.1857  0.4861 -0.2591
   18loPI   GL2  278   9.579  10.480  10.376  0.1322  0.1826  0.1268
   18loPI   C1A  279   9.218  10.553  10.074  0.3550  0.2084 -0.0222
   18loPI   C2A  280   9.302  10.470   9.631 -0.1991 -0.1127 -0.2662
   18loPI   C3A  281   9.491  10.528   9.276 -0.2113 -0.0528 -0.0191
   18loPI   C4A  282   9.600  10.400   8.898 -0.0017  0.2731 -0.1173
   18loPI   C5A  283   9.758  10.279   8.441  0.1362  0.0984 -0.2480
   18loPI   C6A  284   9.875  10.632   8.149 -0.1186  0.0542  0.0808
   18loPI   C1B  285   9.730  10.500  10.005  0.1942 -0.0358 -0.0844
   18loPI   C2B  286   9.763  10.244   9.620  0.1345  0.1936 -0.2469
   18loPI   C3B  287   9.958  10.219   9.181 -0.1102 -0.1563  0.0923
   18loPI   C4B  288  10.122  10.344   8.810 -0.1821  0.0100 -0.1669
   19loPI    C1  289   7.956  16.163  11.385 -0.2560  0.0154 -0.0842
   19loPI    C2  290   8.200  15.875  11.254  0.0082  0.1320  0.1410
   19loPI    C3  291   8.203  15.979  11.640 -0.4717  0.0683  0.1673
   19loPI   PO4  292   7.892  16.290  11.078 -0.1059  0.0984  0.0637
   19loPI   GL1  293   7.733  16.194  10.632 -0.2169  0.1905  0.1302
   19loPI   GL2  294   7.917  16.425  10.465  0.0036  0.2864 -0.0523
   19loPI   C1A  295   7.661  16.048  10.239  0.2977 -0.1871 -0.1086
   19loPI   C2A  296   7.585  15.940   9.901  0.2206 -0.0407 -0.0315
   19loPI   C3A  297   7.633  15.951   9.508  0.3038  0.0842  0.1389
   19loPI   C4A  298   7.589  16.062   9.137  0.4606 -0.1268  0.1745
   19loPI   C5A  299   7.609  16.213   8.749 -0.3653 -0.1213 -0.1432
   19loPI   C6A  300   7.763  16.029   8.580  0.1240 -0.0717  0.0016
   19loPI   C1B  301   8.001  16.341   9.965 -0.0283 -0.2688 -0.0082
   19loPI   C2B  302   8.177  16.249   9.508  0.2067  0.3252 -0.3617
   19loPI   C3B  303   8.465  16.148   9.158 -0.0057  0.0645 -0.1689
   19loPI   C4B  304   8.833  15.976   8.979 -0.0991  0.0213 -0.0660
   20loPI    C1  305   2.987   0.546  11.173  0.3289 -0.2472 -0.2311
   20loPI    C2  306   3.170   0.901  11.205 -0.2100  0.0038  0.2659
   20loPI    C3  307   3.354   0.568  11.329  0.0966  0.1797  0.2902
   20loPI   PO4  308   2.935   0.555  10.853 -0.1896 -0.0471  0.0286
   20loPI   GL1  309   2.939   0.654  10.438  0.3087 -0.2134 -0.2308
   20loPI   GL2  310   3.198   0.823  10.266 -0.0676 -0.1325 -0.4595
   20loPI   C1A  311   2.977   0.414  10.094  0.0415 -0.0211 -0.1215
   20loPI   C2A  312   2.842   0.398   9.715 -0.1256 -0.1424  0.0161
   20loPI   C3A  313   2.922   0.312   9.308  0.0221 -0.1212 -0.3822
   20loPI   C4A  314   2.900   0.422   8.870 -0.3313  0.0292  0.0633
   20loPI   C5A  315   2.623   0.679   8.621  0.1012  0.1691  0.4496
   20loPI   C6A  316   2.360   0.914   8.477  0.2849 -0.2446  0.1492
   20loPI   C1B  317   3.351   0.716   9.839  0.1163  0.0532 -0.0281
   20loPI   C2B  318   3.485   0.714   9.409  0.0734 -0.1327 -0.1396
   20loPI   C3B  319   3.381   0.712   8.985 -0.1620 -0.2870 -0.0768
   20loPI   C4B  320   3.128   0.815   8.610 -0.1353 -0.0230 -0.2010
   21loPI    C1  321  12.529  10.536  10.896 -0.0204  0.1344 -0.0253
   21loPI    C2  322  12.187  10.625  11.082  0.0307 -0.0020  0.1363
   21loPI    C3  323  12.371  10.278  11.157  0.0466 -0.0641 -0.1784
   21loPI   PO4  324  12.542  10.613  10.650  0.1709  0.0328 -0.1753
   21loPI   GL1  325  12.470  10.714  10.258 -0.1042  0.2006 -0.1889
   21loPI   GL2  326  12.159  10.614  10.317  0.0928  0.1221  0.1476
   21loPI   C1A  327  12.460  10.708   9.834 -0.0821  0.0545 -0.0381
   21loPI   C2A  328  12.414  10.749   9.414 -0.1642  0.1773 -0.0318
   21loPI   C3A  329  12.461  10.696   9.044 -0.2304 -0.5790  0.1061
   21loPI   C4A  330  12.430  10.649   8.555  0.2188 -0.1498  0.1156
   21loPI   C5A  331  12.563  10.915   8.247 -0.3776 -0.0662 -0.0241
   21loPI   C6A  332  12.630  10.817   7.857  0.0942  0.0118 -0.0427
   21loPI   C1B  333  12.181  10.298  10.007 -0.0155 -0.4294 -0.0019
   21loPI   C2B  334  12.278  10.282   9.592  0.0841  0.2795 -0.2451
   21loPI   C3B  335  12.291  10.252   9.107  0.1682 -0.3855  0.2499
   21loPI   C4B  336  12.412  10.202   8.685  0.1459 -0.1460  0.0739
   22loPI    C1  337  12.619  16.228  10.582  0.0530  0.3122  0.0754
   22loPI    C2  338  12.426  16.157  10.926  0.0531  0.0586  0.0254
   22loPI    C3  339  12.824  16.197  10.924  0.0566  0.0253  0.0499
   22loPI   PO4  340  12.540  16.468  10.470  0.0398 -0.1071 -0.3496
   22loPI   GL1  341  12.646  16.526   9.997 -0.2839  0.1576  0.1044
   22loPI   GL2  342  12.789  16.675   9.848 -0.1826  0.2025 -0.0386
   22loPI   C1A  343  12.628  16.282   9.554 -0.3627  0.0930 -0.0629
   22loPI   C2A  344  12.517  16.206   9.098  0.1005 -0.0869  0.0825
   22loPI   C3A  345  12.443  15.878   8.730 -0.2397  0.1922  0.1078
   22loPI   C4A  346  12.318  15.485   8.437  0.2943  0.0256 -0.1409
   22loPI   C5A  347  12.269  15.036   8.251  0.1447 -0.2783 -0.1244
   22loPI   C6A  348  12.163  14.701   7.967 -0.0741  0.0021 -0.2540
   22loPI   C1B  349  12.862  16.943   9.454 -0.5223 -0.2068 -0.0197
   22loPI   C2B  350  12.933  17.222   9.057  0.1339 -0.1298 -0.2909
   22loPI   C3B  351  12.866  17.321   8.651 -0.2005  0.2493  0.1786
   22loPI   C4B  352  13.011  17.468   8.204  0.0340 -0.1308  0.2417
   23loPI    C1  353   3.941   4.898  10.959  0.1599 -0.1620 -0.0932
   23loPI    C2  354   4.119   4.545  10.903  0.2590 -0.1312  0.0219
   23loPI    C3  355   4.259   4.797  11.180  0.0035 -0.1287  0.1514
   23loPI   PO4  356   3.809   4.899  10.632  0.0046  0.3351  0.1455
   23loPI   GL1  357   3.880   5.176  10.182  0.2051  0.0524 -0.0829
   23loPI   GL2  358   4.133   5.286  10.135 -0.0996 -0.0947  0.0541
   23loPI   C1A  359   3.705   5.065   9.898  0.0432  0.1643 -0.2425
   23loPI   C2A  360   3.721   5.069   9.449  0.1576 -0.0426 -0.0994
   23loPI   C3A  361   3.874   4.856   9.049  0.2515  0.0815 -0.0592
   23loPI   C4A  362   4.114   4.946   8.778 -0.0002 -0.0001  0.0699
   23loPI   C5A  363   4.348   5.283   8.564 -0.2828  0.1635  0.2121
   23loPI   C6A  364   4.663   5.587   8.308  0.1256  0.3549  0.0397
   23loPI   C1B  365   4.153   5.242   9.674 -0.1155 -0.1353  0.2657
   23loPI   C2B  366   4.116   5.298   9.219 -0.0705 -0.0300 -0.1868
   23loPI   C3B  367   4.003   5.439   8.868  0.0435 -0.1399 -0.2280
   23loPI   C4B  368   3.526   5.280   8.778 -0.3808  0.1103 -0.2250
   24loPI    C1  369   7.731  14.785  10.866  0.1508  0.2368  0.1276
   24loPI    C2  370   7.383  14.656  11.016  0.1638 -0.1088 -0.1274
   24loPI    C3  371   7.722  14.461  11.100  0.2536  0.0431 -0.1319
   24loPI   PO4  372   7.619  14.801  10.542  0.0444  0.0403  0.0641
   24loPI   GL1  373   7.647  14.999  10.212  0.2982  0.1762  0.1952
   24loPI   GL2  374   7.805  15.311  10.147 -0.2428  0.0726  0.0990
   24loPI   C1A  375   7.706  15.018   9.674  0.0166 -0.1906 -0.1919
   24loPI   C2A  376   7.736  14.806   9.389 -0.1927  0.0389 -0.0423
   24loPI   C3A  377   7.578  14.424   9.176 -0.2199 -0.4130 -0.0292
   24loPI   C4A  378   7.199  14.159   9.094  0.0073  0.0750 -0.1370
   24loPI   C5A  379   7.135  13.860   8.899 -0.2265 -0.1671  0.0373
   24loPI   C6A  380   7.130  13.609   8.472 -0.0400  0.2698  0.0433
   24loPI   C1B  381   7.970  15.577   9.812 -0.0729  0.0058 -0.0884
   24loPI   C2B  382   8.094  15.729   9.367 -0.0626  0.0939 -0.1309
   24loPI   C3B  383   8.059  15.867   8.927  0.2654  0.4283 -0.1836
   24loPI   C4B  384   8.078  16.313   8.884  0.3107  0.1376 -0.1837
   25loPI    C1  385   5.772  16.182  10.911  0.0444 -0.1107 -0.0629
   25loPI    C2  386   6.135  16.331  10.833  0.0800 -0.1983 -0.0655
   25loPI    C3  387   6.079  16.097  11.153  0.0505 -0.2762 -0.1272
   25loPI   PO4  388   5.731  16.177  10.590 -0.1224 -0.0972  0.0796
   25loPI   GL1  389   5.657  16.326  10.199 -0.1068  0.1895 -0.3388
   25loPI   GL2  390   5.385  16.169  10.124 -0.0892  0.2492  0.0266
   25loPI   C1A  391   5.655  16.460   9.713  0.3207  0.0086 -0.0049
   25loPI   C2A  392   5.830  16.461   9.325  0.0810 -0.1370  0.0988
   25loPI   C3A  393   5.900  16.571   8.868  0.1728  0.2620 -0.2605
   25loPI   C4A  394   5.815  16.580   8.406  0.1664  0.0628 -0.1074
   25loPI   C5A  395   5.699  16.891   8.029 -0.2778 -0.0436  0.0813
   25loPI   C6A  396   5.420  17.048   7.648 -0.0854  0.1229  0.1534
   25loPI   C1B  397   5.146  15.980   9.913 -0.0360  0.1066  0.0265
   25loPI   C2B  398   4.991  15.829   9.512  0.0789 -0.0006  0.1704
   25loPI   C3B  399   4.952  16.034   9.148  0.0186  0.0369 -0.0673
   25loPI   C4B  400   4.799  16.035   8.757 -0.2857 -0.0762  0.0793
   26loPI    C1  401   2.682  12.682  10.687 -0.1297 -0.3952  0.0929
   26loPI    C2  402   2.289  12.618  10.730 -0.2477  0.2428  0.0669
   26loPI    C3  403   2.487  12.837  11.000  0.0670  0.0380  0.0090
   26loPI   PO4  404   2.680  12.691  10.423 -0.0834  0.2885 -0.0851
   26loPI   GL1  405   2.600  12.887  10.053 -0.1694 -0.0116  0.0736
   26loPI   GL2  406   2.227  12.741  10.124 -0.1321  0.1637 -0.1054
   26loPI   C1A  407   2.485  12.998   9.686 -0.0159 -0.2768  0.2991
   26loPI   C2A  408   2.489  13.033   9.141  0.2214 -0.0805 -0.0884
   26loPI   C3A  409   2.634  13.075   8.753  0.0008  0.0744 -0.0937
   26loPI   C4A  410   2.732  13.011   8.386 -0.2218  0.2549 -0.2396
   26loPI   C5A  411   3.091  13.038   8.095 -0.2442 -0.2062 -0.0625
   26loPI   C6A  412   3.350  12.906   7.674 -0.1302 -0.0021 -0.1527
   26loPI   C1B  413   2.161  12.635   9.618  0.0133  0.0016  0.2718
   26loPI   C2B  414   2.045  12.738   9.168  0.0110 -0.1498  0.0246
   26loPI   C3B  415   1.901  12.754   8.732 -0.2378  0.1252  0.0050
   26loPI   C4B  416   1.823  12.801   8.221  0.0769 -0.1434 -0.0727
   27loPI    C1  417   7.661   2.266  11.051 -0.2542  0.0478 -0.0909
   27loPI    C2  418   7.399   2.288  11.353 -0.0849 -0.0049  0.0616
   27loPI    C3  419   7.760   2.127  11.413 -0.0511 -0.0195 -0.1712
   27loPI   PO4  420   7.480   2.325  10.843 -0.1098  0.1252  0.0022
   27loPI   GL1  421   7.406   2.649  10.598 -0.1919  0.1052  0.0779
   27loPI   GL2  422   7.468   2.557  10.261  0.3076 -0.2359  0.1088
   27loPI   C1A  423   6.969   2.693  10.355 -0.3137  0.2966 -0.3251
   27loPI   C2A  424   6.782   2.943   9.935 -0.1777 -0.1510 -0.1795
   27loPI   C3A  425   6.908   3.134   9.602  0.1009 -0.1700 -0.2829
   27loPI   C4A  426   6.811   3.203   9.153  0.0089  0.1206 -0.2862
   27loPI   C5A  427   6.841   3.016   8.758  0.0317  0.2125 -0.0323
   27loPI   C6A  428   6.659   2.689   8.502  0.1190  0.2227 -0.0946
   27loPI   C1B  429   7.667   2.407   9.894 -0.1273  0.2970  0.0660
   27loPI   C2B  430   7.612   2.452   9.405  0.1863 -0.0137 -0.0896
   27loPI   C3B  431   7.573   2.592   9.015  0.1361  0.2112  0.1171
   27loPI   C4B  432   7.648   2.535   8.548  0.1468 -0.0788  0.2563
   28loPI    C1  433   2.189   5.679  10.902 -0.1550 -0.1276 -0.1042
   28loPI    C2  434   2.155   6.010  11.123 -0.0002 -0.1715 -0.0134
   28loPI    C3  435   2.404   5.718  11.237  0.0283 -0.2247 -0.2090
   28loPI   PO4  436   2.209   5.736  10.652  0.0488  0.1530  0.1118
   28loPI   GL1  437   2.491   5.792  10.389 -0.1818  0.2378 -0.4114
   28loPI   GL2  438   2.479   5.524  10.140  0.3383 -0.1016 -0.3843
   28loPI   C1A  439   2.471   6.038   9.986 -0.0766 -0.0631  0.1494
   28loPI   C2A  440   2.337   6.441   9.669  0.0555 -0.3164  0.2867
   28loPI   C3A  441   2.396   6.436   9.276 -0.0966 -0.1944  0.1172
   28loPI   C4A  442   2.234   6.451   8.857  0.2494 -0.0573 -0.1645
   28loPI   C5A  443   1.876   6.406   8.466  0.2386 -0.0129 -0.1909
   28loPI   C6A  444   1.723   6.009   8.250  0.0554  0.0927  0.3802
   28loPI   C1B  445   2.345   5.578   9.762  0.0414 -0.0544  0.2046
   28loPI   C2B  446   2.114   5.550   9.350  0.1820 -0.0013  0.1990
   28loPI   C3B  447   2.130   5.841   9.022 -0.0014  0.1717 -0.1645
   28loPI   C4B  448   2.121   5.985   8.587 -0.3619 -0.1750  0.0419
   29loPI    C1  449   8.872   4.472  10.924  0.0720 -0.2556 -0.2561
   29loPI    C2  450   9.100   4.368  11.236  0.0084 -0.0654 -0.1445
   29loPI    C3  451   8.757   4.564  11.296 -0.1790 -0.3345 -0.3124
   29loPI   PO4  452   9.070   4.609  10.703 -0.2319  0.4938 -0.1361
   29loPI   GL1  453   9.034   4.782  10.283 -0.0846 -0.0286 -0.1506
   29loPI   GL2  454   9.181   5.104  10.373  0.0391  0.2391  0.2709
   29loPI   C1A  455   8.941   4.872   9.803  0.3975  0.0288  0.1832
   29loPI   C2A  456   8.882   4.932   9.416 -0.2094 -0.2383  0.0539
   29loPI   C3A  457   8.729   4.959   9.001  0.0984 -0.0123 -0.1807
   29loPI   C4A  458   8.448   5.084   8.727  0.0340  0.2112  0.2771
   29loPI   C5A  459   8.208   5.073   8.328  0.4424  0.0931 -0.0080
   29loPI   C6A  460   8.334   4.960   7.909  0.1341  0.0316  0.0927
   29loPI   C1B  461   9.060   5.284  10.073 -0.0115 -0.3230  0.0496
   29loPI   C2B  462   8.969   5.420   9.668  0.2576  0.0725  0.0459
   29loPI   C3B  463   8.934   5.392   9.190 -0.1882 -0.2224 -0.3673
   29loPI   C4B  464   8.822   5.414   8.787  0.0204  0.0878 -0.0059
   30loPI    C1  465  13.745  12.128  10.241 -0.0588 -0.0765  0.2283
   30loPI    C2  466  13.939  12.310  10.540  0.4162 -0.0367 -0.0930
   30loPI    C3  467  14.052  11.945  10.420  0.0752 -0.1530 -0.0733
   30loPI   PO4  468  13.401  12.201  10.219 -0.2778 -0.0309  0.1723
   30loPI   GL1  469  13.250  11.969   9.921  0.1365 -0.0718 -0.1213
   30loPI   GL2  470  13.619  11.893   9.759 -0.0884 -0.0019  0.0052
   30loPI   C1A  471  13.174  12.110   9.537  0.1210  0.0485  0.2575
   30loPI   C2A  472  13.106  12.286   9.151  0.0916 -0.3092  0.0796
   30loPI   C3A  473  13.094  12.148   8.666 -0.1052  0.1291  0.2598
   30loPI   C4A  474  12.789  12.083   8.344 -0.0711 -0.1910 -0.1177
   30loPI   C5A  475  12.760  12.339   8.049 -0.0819  0.2024  0.0221
   30loPI   C6A  476  12.572  12.503   7.696  0.2598 -0.0730 -0.0876
   30loPI   C1B  477  13.649  11.954   9.370 -0.2578  0.0460  0.1737
   30loPI   C2B  478  13.582  12.314   9.147 -0.0700 -0.1737 -0.0341
   30loPI   C3B  479  13.398  12.604   8.821 -0.1714  0.0756 -0.0423
   30loPI   C4B  480  13.498  12.850   8.497 -0.0290  0.2383 -0.1269
   31loPI    C1  481  15.259  12.527  10.879 -0.1465  0.3491 -0.1425
   31loPI    C2  482  15.648  12.572  10.796 -0.0491  0.1292  0.1754
   31loPI    C3  483  15.506  12.681  11.154 -0.2047 -0.1418  0.1987
   31loPI   PO4  484  15.133  12.642  10.656  0.0105 -0.2247 -0.2419
   31loPI   GL1  485  14.916  12.637  10.340  0.3367 -0.0956  0.1660
   31loPI   GL2  486  14.573  12.672  10.107 -0.1190 -0.1154 -0.1497
   31loPI   C1A  487  15.031  12.535   9.927 -0.0499  0.0854  0.1839
   31loPI   C2A  488  14.945  12.541   9.500  0.1971  0.1942  0.0637
   31loPI   C3A  489  14.846  12.691   9.023 -0.1408 -0.0953 -0.2222
   31loPI   C4A  490  14.873  13.081   8.728  0.1396  0.2547 -0.2143
   31loPI   C5A  491  14.714  13.168   8.397 -0.2632  0.1157 -0.0378
   31loPI   C6A  492  14.274  13.228   8.230 -0.0640  0.0954 -0.2062
   31loPI   C1B  493  14.553  12.777   9.651 -0.2103 -0.2899  0.3771
   31loPI   C2B  494  14.712  13.035   9.408 -0.1320  0.1256  0.0069
   31loPI   C3B  495  14.575  13.288   9.099 -0.0358  0.3302  0.2188
   31loPI   C4B  496  14.702  13.577   8.781 -0.3952 -0.0672  0.1402
   32loPI    C1  497  15.866   4.682  10.873 -0.0119  0.1056  0.1491
   32loPI    C2  498  15.588   4.802  11.134 -0.0571 -0.3685  0.3278
   32loPI    C3  499  15.870   4.542  11.247  0.1996 -0.2286  0.0265
   32loPI   PO4  500  16.046   4.942  10.750 -0.0752 -0.1872  0.2444
   32loPI   GL1  501  15.896   5.360  10.667  0.1506 -0.0144  0.1451
   32loPI   GL2  502  15.641   5.229  10.787 -0.2448  0.2259 -0.0283
   32loPI   C1A  503  15.913   5.381  10.249 -0.0307 -0.0973 -0.1647
   32loPI   C2A  504  15.941   5.244   9.798  0.0994  0.3514 -0.1982
   32loPI   C3A  505  15.998   5.187   9.402 -0.1466  0.0702  0.0439
   32loPI   C4A  506  16.047   5.031   8.945  0.1317 -0.0038  0.0398
   32loPI   C5A  507  15.967   4.849   8.583 -0.1393  0.0356 -0.0008
   32loPI   C6A  508  16.126   4.741   8.221 -0.5273  0.1101  0.2730
   32loPI   C1B  509  15.419   5.323  10.449  0.0821  0.0599 -0.0746
   32loPI   C2B  510  15.442   5.201   9.990  0.1714 -0.3750 -0.1097
   32loPI   C3B  511  15.502   5.070   9.508 -0.2009 -0.0462  0.0803
   32loPI   C4B  512  15.479   4.980   8.995 -0.0387  0.1469  0.1778
   33loPI    C1  513  15.806   5.802  11.151  0.0622 -0.1650  0.0743
   33loPI    C2  514  15.492   6.020  11.271  0.0205 -0.0622 -0.2117
   33loPI    C3  515  15.844   6.055  11.459  0.0103  0.2428 -0.2445
   33loPI   PO4  516  15.783   5.818  10.909 -0.1018  0.2494  0.2603
   33loPI   GL1  517  15.686   5.793  10.445 -0.3513 -0.0314 -0.0819
   33loPI   GL2  518  15.427   6.013  10.313 -0.0540  0.2647 -0.0404
   33loPI   C1A  519  15.673   5.696   9.986  0.0577 -0.1809 -0.1276
   33loPI   C2A  520  15.723   5.603   9.536 -0.1207 -0.0165 -0.0950
   33loPI   C3A  521  15.705   5.504   9.160  0.3278 -0.0412  0.1304
   33loPI   C4A  522  15.785   5.427   8.731 -0.4182  0.0017 -0.1926
   33loPI   C5A  523  16.048   5.655   8.423 -0.1225 -0.2154 -0.1306
   33loPI   C6A  524  15.982   6.075   8.466  0.4769  0.2415 -0.1920
   33loPI   C1B  525  15.309   6.079   9.871  0.0520  0.2762 -0.0439
   33loPI   C2B  526  15.403   6.012   9.417  0.0541  0.1653 -0.3431
   33loPI   C3B  527  15.321   6.055   8.968 -0.1307  0.2011  0.0563
   33loPI   C4B  528  15.501   5.945   8.568  0.0618 -0.2945 -0.5053
   34loPI    C1  529   5.061  16.729  11.162 -0.0537 -0.2197 -0.0567
   34loPI    C2  530   4.824  16.799  11.477  0.0773 -0.2308  0.0448
   34loPI    C3  531   4.807  16.447  11.288  0.0078 -0.2289  0.0471
   34loPI   PO4  532   5.040  16.901  10.975 -0.0587  0.2242 -0.1191
   34loPI   GL1  533   5.143  16.867  10.551  0.1039  0.1536  0.1445
   34loPI   GL2  534   5.168  16.565  10.350 -0.0157 -0.0530  0.0850
   34loPI   C1A  535   4.932  17.014  10.130 -0.2573  0.1364  0.0597
   34loPI   C2A  536   5.031  17.092   9.778  0.0108  0.1335 -0.0815
   34loPI   C3A  537   4.941  17.165   9.342 -0.0176  0.0705 -0.1459
   34loPI   C4A  538   4.655  16.980   9.016 -0.3329  0.2302 -0.1635
   34loPI   C5A  539   4.198  17.083   8.812 -0.5191  0.2094 -0.0793
   34loPI   C6A  540   3.955  17.002   8.436 -0.1802  0.0515 -0.0191
   34loPI   C1B  541   5.110  16.545   9.865 -0.1603 -0.2401 -0.1636
   34loPI   C2B  542   5.312  16.234   9.467 -0.1013 -0.0473 -0.0699
   34loPI   C3B  543   5.415  16.349   8.964 -0.0208  0.2106  0.3745
   34loPI   C4B  544   5.355  16.377   8.551 -0.1036 -0.0294  0.0645
   35loPI    C1  545  13.151   9.027  11.182  0.0823  0.0564 -0.0352
   35loPI    C2  546  13.400   8.722  11.252  0.1828  0.1076 -0.1663
   35loPI    C3  547  13.545   9.091  11.199  0.0849  0.1258 -0.3124
   35loPI   PO4  548  12.990   8.914  10.901  0.1394 -0.2315 -0.0266
   35loPI   GL1  549  12.702   8.952  10.368  0.0654  0.1392  0.2842
   35loPI   GL2  550  12.437   8.821  10.303 -0.3010 -0.2224 -0.1368
   35loPI   C1A  551  12.762   9.047   9.948  0.0777 -0.0284  0.0129
   35loPI   C2A  552  12.968   9.228   9.624  0.0434 -0.0952 -0.0420
   35loPI   C3A  553  12.963   9.020   9.264  0.0952 -0.0857  0.1204
   35loPI   C4A  554  12.930   8.965   8.926 -0.0389  0.1088  0.3042
   35loPI   C5A  555  12.948   8.772   8.474  0.2836 -0.0519  0.1594
   35loPI   C6A  556  12.586   8.573   8.302 -0.0911  0.0786  0.0798
   35loPI   C1B  557  12.391   8.750   9.968  0.0699 -0.0652 -0.3881
   35loPI   C2B  558  12.579   8.702   9.592  0.1040 -0.0586  0.2281
   35loPI   C3B  559  12.482   8.761   9.112  0.1630  0.2560 -0.0349
   35loPI   C4B  560  12.395   8.781   8.750  0.2447 -0.0012 -0.1199
   36loPI    C1  561   6.783   9.486  11.000 -0.1199 -0.2305  0.1478
   36loPI    C2  562   6.705   9.740  11.299  0.1607  0.1801 -0.1164
   36loPI    C3  563   7.064   9.565  11.273  0.0830  0.0198 -0.1262
   36loPI   PO4  564   6.709   9.633  10.810  0.3520 -0.0176  0.1626
   36loPI   GL1  565   6.417   9.703  10.447 -0.0759 -0.2226 -0.0102
   36loPI   GL2  566   6.246   9.631  10.260  0.3525  0.0694  0.1696
   36loPI   C1A  567   6.431  10.090  10.205  0.0134 -0.2146  0.1385
   36loPI   C2A  568   6.529  10.105   9.803 -0.2664  0.0129 -0.1832
   36loPI   C3A  569   6.517   9.915   9.399  0.2240  0.1023  0.1217
   36loPI   C4A  570   6.492   9.718   8.999  0.2361 -0.2422  0.0033
   36loPI   C5A  571   6.703   9.869   8.593  0.0084  0.2065  0.0641
   36loPI   C6A  572   6.636  10.035   8.139  0.4417  0.0262 -0.2737
   36loPI   C1B  573   6.151   9.747   9.786  0.1923  0.0651 -0.1003
   36loPI   C2B  574   5.977   9.737   9.319 -0.1920 -0.3192 -0.0427
   36loPI   C3B  575   5.932   9.666   8.935  0.3031 -0.0754  0.0996
   36loPI   C4B  576   5.742   9.604   8.475  0.0772  0.0207 -0.1884
   37loPI    C1  577   5.539  15.679  10.632  0.4871  0.0592 -0.0331
   37loPI    C2  578   5.732  15.665  10.982 -0.0062 -0.0254  0.2441
   37loPI    C3  579   5.392  15.874  10.949 -0.1890 -0.3598 -0.0685
   37loPI   PO4  580   5.700  15.409  10.527 -0.1516 -0.1156  0.2984
   37loPI   GL1  581   5.984  15.527  10.185 -0.0455  0.0238 -0.1106
   37loPI   GL2  582   5.809  15.837  10.230 -0.1727 -0.2171  0.1800
   37loPI   C1A  583   5.895  15.470   9.759  0.2597 -0.0030 -0.0691
   37loPI   C2A  584   5.969  15.521   9.300  0.0482  0.0026  0.0577
   37loPI   C3A  585   6.180  15.796   9.010 -0.0625  0.1448 -0.0904
   37loPI   C4A  586   6.171  15.664   8.712 -0.0911  0.0379  0.1237
   37loPI   C5A  587   6.126  15.856   8.319 -0.0221  0.0005  0.0665
   37loPI   C6A  588   5.954  16.005   7.962  0.0459 -0.0077  0.2827
   37loPI   C1B  589   5.732  15.952   9.809 -0.0829 -0.1079 -0.2506
   37loPI   C2B  590   5.739  15.982   9.402  0.1435 -0.1842 -0.2112
   37loPI   C3B  591   5.734  15.949   8.962 -0.0552 -0.2208 -0.1836
   37loPI   C4B  592   5.754  16.118   8.654 -0.0817  0.1538 -0.1074
   38loPI    C1  593   0.752  14.779  10.680 -0.0159 -0.3951 -0.0564
   38loPI    C2  594   0.499  14.739  10.987 -0.2426  0.1802 -0.1548
   38loPI    C3  595   0.846  14.539  10.985 -0.4150 -0.1373  0.2788
   38loPI   PO4  596   0.584  14.748  10.422 -0.0171 -0.3423  0.0243
   38loPI   GL1  597   0.469  14.690  10.069 -0.2630  0.1152 -0.0864
   38loPI   GL2  598   0.167  14.729  10.139  0.0925  0.0898  0.2656
   38loPI   C1A  599   0.632  14.444   9.718  0.2546  0.3487  0.5453
   38loPI   C2A  600   0.699  14.585   9.283 -0.0138  0.0038  0.1162
   38loPI   C3A  601   0.556  14.784   8.898  0.0771 -0.2181  0.1107
   38loPI   C4A  602   0.378  14.736   8.455 -0.0344  0.0935  0.2760
   38loPI   C5A  603   0.348  14.519   8.064  0.1657  0.1521 -0.0368
   38loPI   C6A  604   0.200  14.247   7.828  0.0876 -0.0662  0.0894
   38loPI   C1B  605   0.115  14.620   9.694 -0.1986 -0.3091  0.3816
   38loPI   C2B  606   0.137  14.595   9.226  0.0446  0.1646 -0.0156
   38loPI   C3B  607   0.058  14.619   8.779  0.1050 -0.0244 -0.3845
   38loPI   C4B  608  -0.055  14.489   8.437 -0.0499 -0.1693  0.0448
   39loPI    C1  609  12.323  13.299  10.958  0.1681  0.1630 -0.1200
   39loPI    C2  610  12.406  13.509  11.288  0.0286  0.2122 -0.1156
   39loPI    C3  611  12.384  13.110  11.306  0.0647  0.2118 -0.0748
   39loPI   PO4  612  12.126  13.436  10.855 -0.0794  0.3569  0.1965
   39loPI   GL1  613  12.029  13.443  10.438  0.2930  0.0193 -0.0892
   39loPI   GL2  614  11.803  13.340  10.259  0.3407  0.0591  0.0109
   39loPI   C1A  615  12.184  13.628  10.043  0.1552  0.3075 -0.1171
   39loPI   C2A  616  12.174  13.861   9.669 -0.2864  0.2888  0.2028
   39loPI   C3A  617  12.345  14.231   9.482  0.1199  0.3072  0.1607
   39loPI   C4A  618  12.378  14.337   9.011  0.0129 -0.0549 -0.1712
   39loPI   C5A  619  12.272  14.507   8.579 -0.2108 -0.1519  0.0910
   39loPI   C6A  620  11.871  14.624   8.539  0.0524 -0.1477 -0.0323
   39loPI   C1B  621  11.629  13.324   9.895 -0.0807  0.2204  0.3049
   39loPI   C2B  622  11.498  13.348   9.509 -0.0926 -0.0134 -0.0548
   39loPI   C3B  623  11.482  13.316   9.087  0.1527 -0.0650 -0.0201
   39loPI   C4B  624  11.546  13.264   8.537  0.0045  0.0512 -0.1315
   40loPI    C1  625   3.476   7.889  11.014 -0.0129  0.2605 -0.0451
   40loPI    C2  626   3.273   7.607  11.212  0.4306  0.0558  0.1302
   40loPI    C3  627   3.241   7.990  11.322 -0.1046  0.0711 -0.0517
   40loPI   PO4  628   3.340   7.869  10.648  0.1839 -0.0297 -0.3058
   40loPI   GL1  629   3.428   8.019  10.237  0.1910  0.1049  0.1141
   40loPI   GL2  630   3.665   8.163  10.234  0.2168  0.3377 -0.1129
   40loPI   C1A  631   3.335   7.755   9.908  0.2968 -0.2940  0.1221
   40loPI   C2A  632   3.403   7.929   9.476 -0.1326 -0.0238  0.4994
   40loPI   C3A  633   3.475   7.897   9.045 -0.0051 -0.2014 -0.0694
   40loPI   C4A  634   3.447   7.793   8.652 -0.3369 -0.0169 -0.3359
   40loPI   C5A  635   3.489   7.768   8.349  0.2084 -0.1787  0.0177
   40loPI   C6A  636   3.414   7.563   7.976 -0.1674 -0.1463 -0.0098
   40loPI   C1B  637   3.802   8.063   9.788  0.2002 -0.2176  0.0760
   40loPI   C2B  638   3.878   7.811   9.518  0.0976  0.0747 -0.0649
   40loPI   C3B  639   4.030   7.693   9.155 -0.1189 -0.1281 -0.3004
   40loPI   C4B  640   4.160   7.664   8.763  0.3943 -0.0256  0.0083
   41loPI    C1  641   1.381  10.444  10.553 -0.1174  0.0147 -0.0906
   41loPI    C2  642   1.310  10.616  10.907 -0.0966  0.0246 -0.0912
   41loPI    C3  643   1.593  10.335  10.875  0.0939  0.2202 -0.1570
   41loPI   PO4  644   1.280  10.594  10.418  0.0087  0.1402 -0.0940
   41loPI   GL1  645   1.272  10.632  10.064 -0.2008  0.0323  0.3915
   41loPI   GL2  646   1.338  10.854   9.839 -0.0303 -0.0451 -0.1055
   41loPI   C1A  647   1.017  10.425   9.754 -0.1624  0.2151 -0.2179
   41loPI   C2A  648   1.122  10.401   9.262  0.0066  0.1413  0.1363
   41loPI   C3A  649   1.260  10.412   8.870  0.2565 -0.0742 -0.2766
   41loPI   C4A  650   1.312  10.317   8.413 -0.1555  0.1230  0.0088
   41loPI   C5A  651   1.504  10.223   7.910  0.3086 -0.2789  0.0751
   41loPI   C6A  652   1.915  10.271   7.906  0.0410  0.0992 -0.0965
   41loPI   C1B  653   1.321  10.775   9.456  0.0961  0.3567  0.3756
   41loPI   C2B  654   1.587  10.589   9.231 -0.1014 -0.1907  0.0895
   41loPI   C3B  655   1.708  10.615   8.755  0.2390  0.1984 -0.2123
   41loPI   C4B  656   1.763  10.502   8.330  0.1029  0.2645 -0.0854
   42loPI    C1  657   7.313   6.937  11.239  0.0563  0.1581 -0.0361
   42loPI    C2  658   7.287   6.627  11.490  0.1133  0.1386 -0.0540
   42loPI    C3  659   7.437   6.975  11.618  0.1328  0.1319 -0.0585
   42loPI   PO4  660   7.416   6.906  10.994 -0.0981 -0.2260  0.0242
   42loPI   GL1  661   7.261   7.103  10.652  0.1644  0.0376  0.0481
   42loPI   GL2  662   7.014   7.291  10.630 -0.0159  0.2164 -0.0308
   42loPI   C1A  663   7.445   6.863  10.298  0.1196 -0.1550 -0.0334
   42loPI   C2A  664   7.356   6.741   9.836  0.0695  0.2580 -0.3885
   42loPI   C3A  665   7.284   6.474   9.428  0.1200 -0.2219 -0.1035
   42loPI   C4A  666   7.175   6.400   9.012  0.2152 -0.2227 -0.0528
   42loPI   C5A  667   6.960   6.267   8.640 -0.0840 -0.3656 -0.2989
   42loPI   C6A  668   6.967   5.832   8.664  0.1336 -0.1456 -0.1120
   42loPI   C1B  669   7.026   7.173  10.180 -0.0780  0.2776  0.1363
   42loPI   C2B  670   7.011   7.023   9.688  0.1794 -0.0719  0.0026
   42loPI   C3B  671   6.763   6.873   9.319 -0.0517  0.1561  0.1683
   42loPI   C4B  672   6.799   6.737   8.838 -0.1157  0.0224  0.1549
   43loPI    C1  673  12.387   3.511  10.824 -0.0839  0.1200  0.0207
   43loPI    C2  674  12.584   3.210  11.000  0.1166  0.1569 -0.1371
   43loPI    C3  675  12.228   3.144  10.830  0.1054  0.0352 -0.0667
   43loPI   PO4  676  12.625   3.627  10.662 -0.3489 -0.1505  0.1634
   43loPI   GL1  677  12.707   3.650  10.253  0.0163 -0.0660 -0.1396
   43loPI   GL2  678  13.040   3.627  10.195  0.2887  0.3081 -0.0910
   43loPI   C1A  679  12.435   3.848   9.942 -0.1119  0.0317 -0.2012
   43loPI   C2A  680  12.227   3.771   9.533  0.1775 -0.0947  0.2077
   43loPI   C3A  681  12.110   3.606   9.184 -0.0095  0.3296  0.1735
   43loPI   C4A  682  12.198   3.329   8.853  0.0302 -0.1587 -0.1206
   43loPI   C5A  683  12.068   3.141   8.485  0.0704 -0.2187 -0.2600
   43loPI   C6A  684  11.928   2.831   8.218  0.1255 -0.1834 -0.3080
   43loPI   C1B  685  12.943   3.685   9.800 -0.0406 -0.2521  0.1963
   43loPI   C2B  686  12.889   3.733   9.378  0.2089 -0.2777 -0.0713
   43loPI   C3B  687  12.964   3.826   8.916  0.0396 -0.1913 -0.2192
   43loPI   C4B  688  12.935   3.688   8.426  0.1129 -0.0976 -0.1838
   44loPI    C1  689  11.501  15.501  10.864 -0.0976 -0.0258  0.0804
   44loPI    C2  690  11.406  15.828  10.654  0.1169  0.0320  0.0716
   44loPI    C3  691  11.226  15.755  11.004 -0.2926 -0.1001 -0.1604
   44loPI   PO4  692  11.474  15.264  10.670 -0.0035 -0.0680 -0.2753
   44loPI   GL1  693  11.324  14.980  10.391 -0.1092  0.0699  0.2385
   44loPI   GL2  694  10.981  15.009  10.349  0.0411  0.0737 -0.0200
   44loPI   C1A  695  11.342  14.831   9.898 -0.0060  0.2256 -0.0931
   44loPI   C2A  696  11.530  14.701   9.451  0.2855 -0.2555  0.0872
   44loPI   C3A  697  11.536  14.582   8.980 -0.2317 -0.0054 -0.2709
   44loPI   C4A  698  11.324  14.697   8.525  0.4444 -0.1380  0.0474
   44loPI   C5A  699  11.212  14.815   8.124  0.0811 -0.1803  0.0400
   44loPI   C6A  700  11.372  14.917   7.685 -0.3348 -0.0061 -0.1448
   44loPI   C1B  701  11.159  15.272   9.977 -0.1881 -0.0591 -0.1423
   44loPI   C2B  702  11.237  15.158   9.553 -0.0776 -0.1282  0.1050
   44loPI   C3B  703  11.291  15.092   9.099  0.0376 -0.2045  0.0870
   44loPI   C4B  704  11.460  15.171   8.710 -0.1039  0.2058 -0.3188
   45loPI    C1  705  14.764   2.141  10.717  0.0405  0.1305 -0.1103
   45loPI    C2  706  14.933   2.502  10.681  0.1359  0.1043  0.0656
   45loPI    C3  707  14.712   2.416  11.003 -0.4337  0.2258 -0.2784
   45loPI   PO4  708  14.613   2.168  10.508 -0.1086 -0.2329  0.1773
   45loPI   GL1  709  14.734   1.851  10.227 -0.3125 -0.2289 -0.0787
   45loPI   GL2  710  15.012   1.774  10.030  0.1587  0.1929 -0.3225
   45loPI   C1A  711  14.697   2.077   9.779  0.1764 -0.2116 -0.2116
   45loPI   C2A  712  14.803   2.053   9.379  0.0762 -0.0809  0.1759
   45loPI   C3A  713  15.090   1.830   9.114  0.0444  0.1936  0.2061
   45loPI   C4A  714  15.211   1.593   8.796  0.1914 -0.0330 -0.2936
   45loPI   C5A  715  15.317   1.356   8.524  0.1780 -0.0357  0.1375
   45loPI   C6A  716  15.519   1.443   8.162  0.0621  0.0248 -0.1244
   45loPI   C1B  717  15.105   1.629   9.581 -0.1141  0.0262 -0.0384
   45loPI   C2B  718  15.374   1.394   9.260  0.0641 -0.2292  0.1704
   45loPI   C3B  719  15.326   1.141   9.007 -0.0697 -0.2053  0.0745
   45loPI   C4B  720  15.092   0.924   8.748  0.0807 -0.0367  0.0600
   46loPI    C1  721  13.076   7.953  10.721 -0.1944  0.2958 -0.0055
   46loPI    C2  722  13.447   7.998  10.864 -0.0677  0.0325 -0.2422
   46loPI    C3  723  13.169   7.811  11.083 -0.0822  0.2895 -0.0364
   46loPI   PO4  724  13.055   8.152  10.553  0.1028 -0.3437  0.0091
   46loPI   GL1  725  12.935   8.126  10.111  0.4475  0.4924  0.2417
   46loPI   GL2  726  12.723   8.422  10.164  0.0345  0.0962 -0.0978
   46loPI   C1A  727  13.196   8.006   9.746 -0.0785 -0.0628  0.0889
   46loPI   C2A  728  13.152   7.966   9.309 -0.2796 -0.0485  0.1207
   46loPI   C3A  729  12.816   7.912   9.039 -0.0959  0.0990 -0.2091
   46loPI   C4A  730  12.785   7.859   8.738  0.0377  0.0033 -0.0523
   46loPI   C5A  731  12.854   7.853   8.310 -0.0357  0.0600  0.1041
   46loPI   C6A  732  12.649   8.195   8.011 -0.2824 -0.3830  0.2944
   46loPI   C1B  733  12.730   8.224   9.695  0.1425  0.1119  0.2024
   46loPI   C2B  734  12.500   8.242   9.284 -0.1788  0.0493  0.0354
   46loPI   C3B  735  12.350   8.279   8.754 -0.3325 -0.3141  0.1138
   46loPI   C4B  736  12.346   8.017   8.412  0.0379  0.0257  0.1519
   47loPI    C1  737  13.900  17.420  10.590 -0.0101 -0.0643 -0.1251
   47loPI    C2  738  13.740  17.116  10.796 -0.1649  0.0859 -0.0210
   47loPI    C3  739  14.010  17.355  10.970 -0.0544  0.0178 -0.0979
   47loPI   PO4  740  13.892  17.358  10.335 -0.1613  0.2682 -0.0572
   47loPI   GL1  741  13.674  17.578   9.935  0.1396  0.1576  0.0883
   47loPI   GL2  742  13.593  17.773   9.968 -0.0925  0.3221  0.2053
   47loPI   C1A  743  13.921  17.542   9.594 -0.1519 -0.2563  0.0350
   47loPI   C2A  744  14.007  17.476   9.241  0.2436 -0.1316  0.1909
   47loPI   C3A  745  13.967  17.343   8.859  0.0929  0.2311 -0.1302
   47loPI   C4A  746  14.008  17.312   8.428 -0.3448 -0.0564 -0.0400
   47loPI   C5A  747  13.851  17.321   7.963 -0.0329 -0.2015 -0.0228
   47loPI   C6A  748  13.734  17.519   7.633  0.2848 -0.1119 -0.1061
   47loPI   C1B  749  13.598  17.899   9.525 -0.2163  0.0675  0.0097
   47loPI   C2B  750  13.585  17.791   9.127  0.2483  0.0439 -0.0582
   47loPI   C3B  751  13.695  17.809   8.745  0.4240 -0.1525 -0.1168
   47loPI   C4B  752  13.703  17.695   8.311  0.0422 -0.0862  0.0435
   48loPI    C1  753  12.520   5.950  10.547  0.1082 -0.0998  0.2473
   48loPI    C2  754  12.340   6.259  10.727  0.0556 -0.1633  0.3041
   48loPI    C3  755  12.125   5.943  10.609  0.1070 -0.1714  0.2316
   48loPI   PO4  756  12.648   5.995  10.360  0.1777  0.1286  0.0253
   48loPI   GL1  757  12.719   6.013   9.931 -0.0613 -0.0474  0.0636
   48loPI   GL2  758  12.698   5.727   9.937  0.2164 -0.0181 -0.2092
   48loPI   C1A  759  12.475   6.080   9.633  0.1217  0.1752  0.2330
   48loPI   C2A  760  12.373   5.903   9.308 -0.0399 -0.1584  0.2475
   48loPI   C3A  761  12.505   5.474   9.177 -0.3037 -0.2066 -0.0286
   48loPI   C4A  762  12.323   5.084   9.009  0.2168 -0.0120 -0.0025
   48loPI   C5A  763  12.243   4.590   8.803 -0.1408  0.0186  0.0727
   48loPI   C6A  764  12.260   4.326   8.471  0.1937  0.0775  0.1739
   48loPI   C1B  765  12.911   5.598   9.509  0.2281  0.0081 -0.1862
   48loPI   C2B  766  13.126   5.474   9.097 -0.0074  0.5981 -0.0889
   48loPI   C3B  767  13.227   5.135   8.836 -0.5037  0.0218  0.1356
   48loPI   C4B  768  13.155   4.813   8.475 -0.1545  0.2420 -0.0895
   49loPI    C1  769   0.134   4.432  10.880  0.1600 -0.1216  0.2238
   49loPI    C2  770  -0.221   4.247  10.881  0.0190  0.1435  0.2142
   49loPI    C3  771   0.076   4.112  11.113 -0.0259 -0.1935  0.0818
   49loPI   PO4  772   0.260   4.330  10.623  0.1971  0.2173  0.0786
   49loPI   GL1  773   0.228   4.535  10.203  0.1548 -0.2523 -0.0551
   49loPI   GL2  774   0.532   4.619  10.207  0.0947 -0.2368  0.1606
   49loPI   C1A  775   0.211   4.148   9.964 -0.2427  0.2193 -0.2035
   49loPI   C2A  776   0.253   3.942   9.742  0.0070 -0.2004 -0.1838
   49loPI   C3A  777   0.232   3.891   9.347  0.1505  0.2283  0.1147
   49loPI   C4A  778   0.143   3.976   8.917 -0.4642  0.2064  0.0396
   49loPI   C5A  779   0.016   4.000   8.456  0.2438  0.1738 -0.3710
   49loPI   C6A  780  -0.281   3.822   8.239  0.0406  0.0646 -0.0147
   49loPI   C1B  781   0.579   4.557   9.804  0.1890 -0.1603 -0.0327
   49loPI   C2B  782   0.278   4.372   9.522  0.2502  0.0665 -0.1343
   49loPI   C3B  783   0.457   4.326   9.104  0.1521 -0.1941  0.0942
   49loPI   C4B  784   0.398   4.356   8.607  0.0462 -0.1045  0.0474
   50loPI    C1  785   2.144  14.545  10.658  0.0971  0.0588 -0.0427
   50loPI    C2  786   1.861  14.348  10.860  0.0509  0.1502 -0.0177
   50loPI    C3  787   2.247  14.285  10.944  0.0360  0.0806 -0.0007
   50loPI   PO4  788   2.033  14.403  10.412  0.2135 -0.1937  0.0233
   50loPI   GL1  789   1.781  14.441  10.018  0.1540 -0.2075  0.0658
   50loPI   GL2  790   1.833  14.203   9.975 -0.0370  0.3228  0.0369
   50loPI   C1A  791   1.608  14.607   9.654 -0.1343 -0.2197 -0.1001
   50loPI   C2A  792   1.564  14.221   9.301 -0.0639  0.1611  0.0126
   50loPI   C3A  793   1.552  13.996   8.945  0.1210 -0.1215 -0.0066
   50loPI   C4A  794   1.297  14.019   8.579  0.0614 -0.2435  0.0235
   50loPI   C5A  795   1.344  14.075   8.192 -0.1710 -0.0846 -0.1784
   50loPI   C6A  796   1.304  14.246   7.811 -0.0783  0.0165  0.2315
   50loPI   C1B  797   1.940  14.276   9.599 -0.0161  0.1956  0.1516
   50loPI   C2B  798   2.146  14.287   9.213 -0.0623  0.3885  0.0254
   50loPI   C3B  799   1.986  14.341   8.869  0.0615  0.0953  0.2770
   50loPI   C4B  800   1.749  14.210   8.543  0.1077  0.3888  0.0450
   51loPI    C1  801   2.424   2.645  11.001 -0.0369 -0.0490 -0.1629
   51loPI    C2  802   2.744   2.451  10.861  0.0627  0.0873 -0.1260
   51loPI    C3  803   2.467   2.254  11.072  0.0240 -0.0719 -0.3226
   51loPI   PO4  804   2.353   2.810  10.767  0.1277 -0.1984 -0.1560
   51loPI   GL1  805   2.464   2.993  10.343  0.1581 -0.1347  0.1627
   51loPI   GL2  806   2.203   3.207  10.315 -0.0718 -0.1757  0.0996
   51loPI   C1A  807   2.502   3.000   9.827  0.0256  0.1301  0.1509
   51loPI   C2A  808   2.389   3.143   9.465 -0.5194  0.2250  0.0776
   51loPI   C3A  809   2.087   3.194   9.202  0.0654 -0.1258 -0.3293
   51loPI   C4A  810   1.937   3.394   8.765 -0.2497 -0.1594  0.0273
   51loPI   C5A  811   2.035   3.586   8.328 -0.2470  0.1659  0.2016
   51loPI   C6A  812   2.202   3.835   7.985 -0.1512  0.0553 -0.0171
   51loPI   C1B  813   2.137   3.397   9.971  0.3313  0.0715 -0.1624
   51loPI   C2B  814   2.005   3.599   9.601  0.0338 -0.2043  0.0286
   51loPI   C3B  815   1.905   3.721   9.132  0.1222 -0.1928 -0.0999
   51loPI   C4B  816   1.760   3.904   8.700 -0.0422  0.1515  0.1418
   52loPI    C1  817   8.130   8.340  11.124 -0.0985  0.2662 -0.0183
   52loPI    C2  818   8.103   7.991  11.317 -0.1985  0.2226 -0.1102
   52loPI    C3  819   8.106   8.333  11.524  0.3011  0.1552  0.0086
   52loPI   PO4  820   8.176   8.192  10.799 -0.1590  0.0269  0.0561
   52loPI   GL1  821   8.438   7.920  10.531  0.0627 -0.2803 -0.0220
   52loPI   GL2  822   8.591   7.842  10.298  0.1265  0.0058  0.0367
   52loPI   C1A  823   8.100   7.738  10.317 -0.1525 -0.1524 -0.1061
   52loPI   C2A  824   7.931   7.610   9.870  0.2827 -0.1932 -0.3598
   52loPI   C3A  825   7.728   7.483   9.488  0.4370  0.1211  0.0961
   52loPI   C4A  826   7.674   7.444   9.189 -0.2256  0.0396  0.0161
   52loPI   C5A  827   7.519   7.286   8.771 -0.0361 -0.0500 -0.1611
   52loPI   C6A  828   7.674   7.000   8.448 -0.0973  0.1275 -0.0616
   52loPI   C1B  829   8.436   7.743   9.917  0.1375  0.1430 -0.2855
   52loPI   C2B  830   8.436   7.614   9.579  0.1925  0.0306  0.2524
   52loPI   C3B  831   8.143   7.607   9.243  0.0407  0.2418  0.0272
   52loPI   C4B  832   8.027   7.414   8.891  0.0218  0.0210 -0.2071
   53loPI    C1  833   2.137   9.686  11.021  0.1944  0.4602  0.1264
   53loPI    C2  834   1.805   9.536  11.184  0.2253  0.2872  0.0325
   53loPI    C3  835   1.790   9.882  10.985  0.0682  0.2020 -0.1070
   53loPI   PO4  836   2.243   9.494  10.864  0.0258 -0.0955  0.3027
   53loPI   GL1  837   2.362   9.421  10.448 -0.1959  0.1695  0.1873
   53loPI   GL2  838   2.146   9.312  10.101 -0.1790  0.1316  0.1087
   53loPI   C1A  839   2.709   9.508  10.200  0.1708  0.1111  0.0928
   53loPI   C2A  840   2.951   9.391   9.872  0.1647  0.3005 -0.0643
   53loPI   C3A  841   3.326   9.390   9.641  0.0563  0.2463 -0.0666
   53loPI   C4A  842   3.520   9.338   9.283 -0.0177 -0.1064 -0.3980
   53loPI   C5A  843   3.552   9.283   8.851  0.3632  0.0316 -0.2005
   53loPI   C6A  844   3.574   9.423   8.460 -0.3714 -0.0383  0.0039
   53loPI   C1B  845   2.130   9.241   9.610  0.0029 -0.1744  0.0682
   53loPI   C2B  846   2.331   9.162   9.168  0.1800 -0.0669 -0.0177
   53loPI   C3B  847   2.426   9.325   8.737 -0.0256  0.1322 -0.2632
   53loPI   C4B  848   2.459   9.574   8.408  0.0134  0.0181 -0.0643
   54loPI    C1  849   6.199   5.558  11.245  0.1019 -0.0758  0.2819
   54loPI    C2  850   6.061   5.396  11.584  0.0214 -0.2348  0.1743
   54loPI    C3  851   5.839   5.384  11.252 -0.0382  0.2059  0.1926
   54loPI   PO4  852   6.494   5.399  11.286  0.0586 -0.0299 -0.0782
   54loPI   GL1  853   6.665   5.317  10.819 -0.1833 -0.0852  0.0002
   54loPI   GL2  854   7.053   5.330  10.787  0.2337  0.0357  0.2900
   54loPI   C1A  855   6.418   5.631  10.570 -0.1293 -0.1724  0.0371
   54loPI   C2A  856   6.499   5.834  10.217 -0.0004  0.1427 -0.0022
   54loPI   C3A  857   6.348   6.003   9.811 -0.0233 -0.0332  0.0789
   54loPI   C4A  858   6.285   6.063   9.348 -0.3331  0.5385  0.1105
   54loPI   C5A  859   6.255   6.163   8.895  0.2462 -0.0451 -0.2183
   54loPI   C6A  860   6.446   6.501   8.625  0.0849 -0.2834  0.1565
   54loPI   C1B  861   6.833   5.392  10.383 -0.3438  0.1111  0.2471
   54loPI   C2B  862   6.653   5.384  10.046 -0.3293  0.0767  0.0362
   54loPI   C3B  863   6.530   5.235   9.745 -0.1848  0.3201  0.1112
   54loPI   C4B  864   6.340   5.015   9.412 -0.0759 -0.0273 -0.1822
   55loPI    C1  865   1.570  16.647  10.687 -0.0552  0.0688  0.0694
   55loPI    C2  866   1.391  16.765  11.024 -0.1633 -0.0142  0.0417
   55loPI    C3  867   1.743  16.577  11.040 -0.0568  0.1876  0.0939
   55loPI   PO4  868   1.407  16.681  10.463  0.1206  0.0764 -0.1395
   55loPI   GL1  869   1.278  16.661  10.083 -0.0102 -0.1724  0.1518
   55loPI   GL2  870   0.985  16.569   9.909 -0.1693 -0.0366 -0.0402
   55loPI   C1A  871   1.666  16.757   9.784  0.0226 -0.4713  0.1243
   55loPI   C2A  872   1.730  16.919   9.299  0.0564  0.2011 -0.1930
   55loPI   C3A  873   1.417  17.034   8.979  0.1378 -0.2441 -0.3531
   55loPI   C4A  874   1.372  17.132   8.545  0.1610  0.2714  0.1428
   55loPI   C5A  875   1.099  17.056   8.219  0.3398  0.0319 -0.1683
   55loPI   C6A  876   0.806  16.940   8.032  0.1946  0.0042 -0.0378
   55loPI   C1B  877   0.911  16.385   9.625  0.1976  0.0537  0.2698
   55loPI   C2B  878   0.917  16.252   9.182  0.0915 -0.2046 -0.1132
   55loPI   C3B  879   0.985  16.551   8.893 -0.1092  0.0497  0.1797
   55loPI   C4B  880   1.037  16.788   8.591  0.1121  0.1804  0.0315
   56loPI    C1  881  15.425   2.336  11.151  0.1298 -0.1506 -0.0001
   56loPI    C2  882  15.066   2.226  11.289  0.1631 -0.2360  0.0192
   56loPI    C3  883  15.307   2.450  11.516  0.0457 -0.0183 -0.0680
   56loPI   PO4  884  15.298   2.205  10.839 -0.0710 -0.2375  0.0970
   56loPI   GL1  885  15.548   2.199  10.473  0.3017 -0.1597  0.1704
   56loPI   GL2  886  15.205   2.208  10.333 -0.0190 -0.1015 -0.0645
   56loPI   C1A  887  15.465   2.649  10.114 -0.0650  0.1661 -0.4073
   56loPI   C2A  888  15.523   2.505   9.723  0.1964 -0.1510  0.0992
   56loPI   C3A  889  15.582   2.632   9.320 -0.4342  0.1153  0.0882
   56loPI   C4A  890  15.479   2.631   8.872  0.1669  0.0659  0.0306
   56loPI   C5A  891  15.072   2.487   8.817  0.4610  0.2248  0.2603
   56loPI   C6A  892  14.799   2.694   8.494 -0.2029 -0.3028 -0.2335
   56loPI   C1B  893  15.244   2.209  10.020 -0.2458 -0.1511  0.1701
   56loPI   C2B  894  15.273   2.116   9.538 -0.0028 -0.0779 -0.2363
   56loPI   C3B  895  15.333   2.251   9.167 -0.0113 -0.0833  0.2347
   56loPI   C4B  896  15.479   2.023   8.767  0.3578 -0.0771  0.1861
   57loPI    C1  897   0.514  14.315  10.656  0.1599  0.0056  0.2030
   57loPI    C2  898   0.380  13.950  10.751  0.2900 -0.0857  0.0410
   57loPI    C3  899   0.418  14.229  11.035 -0.1254 -0.0937  0.1111
   57loPI   PO4  900   0.381  14.249  10.351  0.3104  0.2447  0.1878
   57loPI   GL1  901   0.227  14.116   9.909  0.0297  0.1285 -0.0215
   57loPI   GL2  902  -0.053  13.956   9.945 -0.1540 -0.1131 -0.3000
   57loPI   C1A  903   0.265  14.045   9.579 -0.1975  0.3675  0.1758
   57loPI   C2A  904   0.103  13.844   9.163  0.0381  0.4410 -0.0032
   57loPI   C3A  905   0.105  13.694   8.814  0.1641 -0.3335  0.0838
   57loPI   C4A  906   0.381  13.626   8.498  0.0494  0.2557 -0.0066
   57loPI   C5A  907   0.641  13.444   8.329  0.4334 -0.1601 -0.0261
   57loPI   C6A  908   0.930  13.197   8.026  0.1336  0.1091 -0.1262
   57loPI   C1B  909  -0.088  13.648   9.673  0.1034 -0.1229  0.0210
   57loPI   C2B  910  -0.031  13.298   9.501  0.1547  0.1274 -0.1314
   57loPI   C3B  911   0.041  13.279   9.079  0.1025  0.1814  0.1128
   57loPI   C4B  912   0.126  13.233   8.689  0.1532  0.0817  0.1689
   58loPI    C1  913  10.063   3.760  10.700 -0.0675 -0.0185 -0.1696
   58loPI    C2  914   9.854   3.984  10.957  0.0232  0.0124 -0.1221
   58loPI    C3  915  10.250   4.029  10.930 -0.0026  0.1067 -0.3668
   58loPI   PO4  916   9.978   3.811  10.510 -0.0738  0.3467 -0.0291
   58loPI   GL1  917  10.101   3.462  10.200 -0.0801  0.0917  0.2067
   58loPI   GL2  918   9.852   3.276  10.249  0.2300  0.0082  0.0357
   58loPI   C1A  919  10.219   3.451   9.748  0.0582 -0.1222  0.2992
   58loPI   C2A  920  10.218   3.430   9.343 -0.5008  0.2232 -0.2824
   58loPI   C3A  921  10.336   3.480   8.943  0.0115 -0.0223 -0.0838
   58loPI   C4A  922  10.565   3.454   8.485  0.0735  0.2559  0.1649
   58loPI   C5A  923  10.914   3.746   8.339  0.0170  0.0312 -0.1250
   58loPI   C6A  924  10.859   4.137   8.174 -0.0613  0.3437 -0.0158
   58loPI   C1B  925   9.777   3.191   9.879 -0.2097  0.1641  0.1939
   58loPI   C2B  926   9.827   3.141   9.433 -0.0682 -0.1823  0.1587
   58loPI   C3B  927   9.751   3.245   9.077  0.2880 -0.1710 -0.2125
   58loPI   C4B  928   9.969   3.230   8.774  0.1216 -0.1763 -0.1707
   59loPI    C1  929   5.443  12.946  10.990 -0.2018 -0.2529  0.0308
   59loPI    C2  930   5.058  13.026  10.917 -0.1319 -0.0972 -0.1775
   59loPI    C3  931   5.344  13.220  10.715  0.0531 -0.3802 -0.1929
   59loPI   PO4  932   5.583  12.720  10.908  0.2920 -0.2131  0.0799
   59loPI   GL1  933   5.664  12.693  10.394 -0.2078 -0.0574  0.1018
   59loPI   GL2  934   5.432  12.355  10.404  0.2867  0.1092  0.1529
   59loPI   C1A  935   5.459  12.934  10.100  0.2736 -0.0625  0.1833
   59loPI   C2A  936   5.568  13.033   9.697  0.0195 -0.0756 -0.0126
   59loPI   C3A  937   5.576  13.044   9.200 -0.1759  0.2381 -0.0581
   59loPI   C4A  938   5.466  13.027   8.879 -0.0210  0.1975  0.2211
   59loPI   C5A  939   5.200  13.241   8.514  0.0084 -0.1376 -0.0376
   59loPI   C6A  940   5.247  13.592   8.325  0.2112  0.3208  0.2687
   59loPI   C1B  941   5.432  12.404   9.989  0.1627  0.0120 -0.2779
   59loPI   C2B  942   5.566  12.412   9.585 -0.1900 -0.1503  0.3438
   59loPI   C3B  943   5.569  12.374   9.180  0.2667 -0.0287 -0.1679
   59loPI   C4B  944   5.380  12.534   8.870 -0.1578 -0.1224  0.0554
   60loPI    C1  945   1.230   7.301  10.859  0.1011  0.1096 -0.2700
   60loPI    C2  946   1.494   7.451  11.119  0.0990  0.0423 -0.2286
   60loPI    C3  947   1.133   7.334  11.246  0.1857 -0.2185 -0.2177
   60loPI   PO4  948   1.309   7.133  10.741 -0.1071 -0.2605  0.2755
   60loPI   GL1  949   1.463   7.233  10.407 -0.2198  0.4661  0.4262
   60loPI   GL2  950   1.914   7.081  10.315  0.4575  0.2866  0.1302
   60loPI   C1A  951   1.478   7.741  10.252  0.3632  0.1561  0.2008
   60loPI   C2A  952   1.506   7.686   9.749 -0.1846 -0.0452  0.1001
   60loPI   C3A  953   1.575   7.434   9.271 -0.1330 -0.1203  0.0719
   60loPI   C4A  954   1.675   7.147   8.994 -0.2676  0.1333 -0.2730
   60loPI   C5A  955   1.697   7.002   8.631 -0.1007 -0.1033  0.2378
   60loPI   C6A  956   1.765   6.888   8.234  0.2488 -0.1702  0.1553
   60loPI   C1B  957   1.852   7.443   9.993 -0.1402  0.0567  0.0251
   60loPI   C2B  958   1.955   7.622   9.563  0.0562 -0.0565  0.2542
   60loPI   C3B  959   1.921   7.752   9.036 -0.0669 -0.1063 -0.0214
   60loPI   C4B  960   1.668   7.603   8.701  0.2485 -0.0391 -0.0155
   61loPI    C1  961  17.582   9.733  10.807  0.1555 -0.1317 -0.0227
   61loPI    C2  962  17.316   9.682  11.101  0.0499 -0.2810 -0.1424
   61loPI    C3  963  17.672   9.499  11.118  0.1657 -0.0432  0.0412
   61loPI   PO4  964  17.578   9.989  10.753  0.0912 -0.0513  0.1000
   61loPI   GL1  965  17.570  10.030  10.376  0.2038  0.4026 -0.0191
   61loPI   GL2  966  17.386  10.220  10.098  0.2827  0.0323 -0.0990
   61loPI   C1A  967  17.744   9.786   9.925  0.3803  0.3295  0.2155
   61loPI   C2A  968  17.661   9.693   9.482 -0.1730 -0.0665 -0.3775
   61loPI   C3A  969  17.598   9.754   8.996  0.1202 -0.0742  0.0564
   61loPI   C4A  970  17.781   9.764   8.563 -0.1857  0.2019  0.1366
   61loPI   C5A  971  18.190   9.679   8.368  0.2884 -0.3708 -0.1303
   61loPI   C6A  972  18.520   9.420   8.280  0.1336  0.0559  0.0501
   61loPI   C1B  973  17.482  10.125   9.590  0.0963  0.3218 -0.2293
   61loPI   C2B  974  17.422  10.171   9.188 -0.0648  0.2088 -0.1625
   61loPI   C3B  975  17.448  10.198   8.840 -0.0627  0.0111  0.0469
   61loPI   C4B  976  17.709  10.281   8.492  0.0668  0.2165  0.1135
   62loPI    C1  977  13.852   3.896  10.807 -0.3995 -0.1224 -0.0663
   62loPI    C2  978  14.020   3.671  11.092 -0.3188 -0.1018 -0.0975
   62loPI    C3  979  13.843   4.016  11.189  0.1503  0.1568 -0.1312
   62loPI   PO4  980  13.955   3.885  10.626  0.1505 -0.0798  0.0930
   62loPI   GL1  981  13.732   3.726  10.279  0.1262  0.1028  0.0473
   62loPI   GL2  982  13.524   3.441  10.380  0.1720 -0.0922  0.1005
   62loPI   C1A  983  13.488   3.766   9.881  0.0293 -0.0531  0.2233
   62loPI   C2A  984  13.386   3.748   9.515 -0.1360 -0.0829  0.1434
   62loPI   C3A  985  13.436   3.891   9.098 -0.2363  0.3197  0.3282
   62loPI   C4A  986  13.377   3.728   8.736 -0.0567  0.2602  0.1334
   62loPI   C5A  987  13.387   3.485   8.298  0.1730  0.1424  0.0586
   62loPI   C6A  988  13.234   3.137   8.119  0.0829 -0.1383  0.1669
   62loPI   C1B  989  13.354   3.339   9.993  0.0714 -0.1027  0.1352
   62loPI   C2B  990  13.255   3.226   9.569 -0.0866 -0.0353 -0.0021
   62loPI   C3B  991  13.124   3.350   9.062 -0.1576  0.1843  0.1900
   62loPI   C4B  992  13.096   3.237   8.646 -0.0866 -0.3558 -0.0608
   63loPI    C1  993  12.480   8.958  10.859 -0.0490 -0.2035  0.0431
   63loPI    C2  994  12.497   9.078  11.240 -0.0020  0.2062 -0.0829
   63loPI    C3  995  12.210   8.825  11.122  0.0842 -0.0579  0.2566
   63loPI   PO4  996  12.567   9.219  10.759  0.0253  0.0488  0.1919
   63loPI   GL1  997  12.717   9.474  10.405 -0.0566 -0.0027 -0.1532
   63loPI   GL2  998  12.752   9.829  10.513 -0.0250 -0.0068  0.0034
   63loPI   C1A  999  12.889   9.627  10.028  0.0314 -0.2174 -0.0417
   63loPI   C2A 1000  12.742   9.719   9.525 -0.1670  0.3056  0.2925
   63loPI   C3A 1001  12.716   9.823   9.108 -0.1352  0.3116  0.0036
   63loPI   C4A 1002  13.051   9.954   8.667 -0.1546  0.1003  0.1193
   63loPI   C5A 1003  13.270  10.030   8.261  0.3371 -0.1222  0.1328
   63loPI   C6A 1004  13.284  10.401   8.055  0.1184 -0.0957 -0.0157
   63loPI   C1B 1005  12.666  10.103  10.215  0.0366  0.1033  0.1466
   63loPI   C2B 1006  12.687  10.204   9.865 -0.2826 -0.0726  0.0457
   63loPI   C3B 1007  12.708  10.265   9.397 -0.2399  0.2229 -0.3585
   63loPI   C4B 1008  12.874  10.343   8.953 -0.0958  0.2189 -0.0429
   64loPI    C1 1009  16.162   7.691  10.858 -0.2495 -0.5002  0.1749
   64loPI    C2 1010  15.780   7.800  10.898 -0.1167 -0.0223  0.2119
   64loPI    C3 1011  16.069   8.030  11.049  0.1996 -0.2534 -0.0278
   64loPI   PO4 1012  16.167   7.677  10.557  0.1505 -0.2835 -0.1781
   64loPI   GL1 1013  16.047   7.715  10.129  0.1767 -0.1413  0.1817
   64loPI   GL2 1014  15.836   7.450  10.052 -0.1467 -0.0344 -0.1437
   64loPI   C1A 1015  16.357   7.550   9.925  0.1097  0.0038  0.2010
   64loPI   C2A 1016  16.459   7.422   9.567  0.1460 -0.2103 -0.0298
   64loPI   C3A 1017  16.658   7.295   9.301  0.2330 -0.2577  0.0733
   64loPI   C4A 1018  16.884   7.266   8.801  0.3777 -0.0485  0.0631
   64loPI   C5A 1019  16.766   7.065   8.313 -0.1995  0.1471  0.0925
   64loPI   C6A 1020  16.878   6.686   8.049  0.2149  0.1037  0.0699
   64loPI   C1B 1021  15.513   7.283   9.726 -0.2252 -0.1598  0.2913
   64loPI   C2B 1022  15.567   7.387   9.326  0.0100 -0.0516 -0.0360
   64loPI   C3B 1023  15.524   7.092   9.018 -0.1654 -0.0405 -0.0803
   64loPI   C4B 1024  15.877   6.988   8.843 -0.3102 -0.0468 -0.1674
   65loPI    C1 1025   1.048   6.830  11.125  0.1612 -0.0207  0.0360
   65loPI    C2 1026   0.772   6.636  11.340 -0.2263  0.3001 -0.1593
   65loPI    C3 1027   1.035   6.876  11.522  0.1968 -0.3167  0.0733
   65loPI   PO4 1028   1.041   6.719  10.861  0.3459 -0.0587 -0.1168
   65loPI   GL1 1029   0.723   6.836  10.536  0.2501  0.0722 -0.0100
   65loPI   GL2 1030   0.870   7.076  10.445  0.3101  0.1819  0.0275
   65loPI   C1A 1031   0.726   6.742  10.122  0.0880 -0.1980 -0.0008
   65loPI   C2A 1032   0.797   6.912   9.704  0.1002 -0.2122  0.1104
   65loPI   C3A 1033   0.967   6.944   9.344 -0.0890  0.4109  0.2161
   65loPI   C4A 1034   1.219   7.054   8.898  0.2705 -0.1246  0.1997
   65loPI   C5A 1035   1.238   7.001   8.479  0.2214  0.1229 -0.0666
   65loPI   C6A 1036   1.446   7.302   8.260 -0.0357 -0.1937 -0.0845
   65loPI   C1B 1037   1.149   7.043  10.091  0.2741 -0.0230 -0.1814
   65loPI   C2B 1038   1.499   6.841   9.864  0.3929 -0.0264 -0.1547
   65loPI   C3B 1039   1.821   6.551   9.609  0.1351  0.0299  0.1259
   65loPI   C4B 1040   1.874   6.689   9.113  0.1062 -0.1147  0.1712
   66loPI    C1 1041   8.335  10.410  10.850  0.2737  0.0913  0.0151
   66loPI    C2 1042   8.214  10.718  11.075  0.1142  0.1431 -0.1398
   66loPI    C3 1043   8.263  10.357  11.240  0.0040  0.1821 -0.0200
   66loPI   PO4 1044   8.204  10.508  10.615  0.1120 -0.0936  0.2221
   66loPI   GL1 1045   8.280  10.797  10.221 -0.2122  0.2107  0.1671
   66loPI   GL2 1046   8.356  11.011  10.171  0.0654  0.0707 -0.2156
   66loPI   C1A 1047   8.242  10.814   9.739 -0.1351  0.1233  0.1861
   66loPI   C2A 1048   8.200  10.888   9.365 -0.1042 -0.1021 -0.0181
   66loPI   C3A 1049   8.131  10.820   8.996 -0.0236  0.0302  0.1788
   66loPI   C4A 1050   8.085  10.611   8.574 -0.1064  0.2084 -0.0587
   66loPI   C5A 1051   7.858  10.324   8.274 -0.1895 -0.0752  0.0312
   66loPI   C6A 1052   7.832   9.928   8.194  0.4635 -0.1238  0.1304
   66loPI   C1B 1053   8.625  11.109   9.802 -0.1064  0.3111  0.4529
   66loPI   C2B 1054   8.642  11.206   9.393 -0.0238  0.0004  0.3267
   66loPI   C3B 1055   8.504  11.266   9.040 -0.0740  0.1210 -0.0423
   66loPI   C4B 1056   8.428  10.992   8.620 -0.0230  0.1322  0.3717
   67loPI    C1 1057   8.879   7.723  10.967 -0.0905  0.1289  0.0740
   67loPI    C2 1058   8.487   7.781  11.017 -0.0453  0.1261  0.4665
   67loPI    C3 1059   8.706   7.630  11.315  0.1426 -0.4901  0.0367
   67loPI   PO4 1060   8.953   7.844  10.672 -0.0861  0.0165  0.0605
   67loPI   GL1 1061   9.135   8.005  10.266 -0.0409  0.0844 -0.0065
   67loPI   GL2 1062   9.445   7.853  10.323 -0.3623  0.2370 -0.1285
   67loPI   C1A 1063   8.878   8.164   9.976 -0.0469 -0.0212  0.0695
   67loPI   C2A 1064   8.747   8.033   9.611 -0.1596  0.0941 -0.0322
   67loPI   C3A 1065   8.540   7.968   9.219  0.0649 -0.2485 -0.0967
   67loPI   C4A 1066   8.395   8.020   8.776 -0.0059 -0.0550  0.0360
   67loPI   C5A 1067   8.091   8.370   8.660  0.0673 -0.0114  0.2753
   67loPI   C6A 1068   7.919   8.611   8.912 -0.0860 -0.0639 -0.0626
   67loPI   C1B 1069   9.360   7.727   9.907  0.2473 -0.0805 -0.0525
   67loPI   C2B 1070   9.603   7.372   9.829  0.1301 -0.2070 -0.0083
   67loPI   C3B 1071  10.018   7.271   9.783  0.3433  0.0305  0.1050
   67loPI   C4B 1072  10.248   7.032   9.319  0.2769  0.0242  0.0545
   68loPI    C1 1073   4.964   4.214  11.288  0.0260 -0.3109 -0.0878
   68loPI    C2 1074   5.335   4.198  11.437  0.0184 -0.2750 -0.0648
   68loPI    C3 1075   5.032   4.322  11.667  0.0512  0.0452 -0.1899
   68loPI   PO4 1076   5.065   4.356  10.994  0.1245 -0.0239  0.0300
   68loPI   GL1 1077   5.035   4.451  10.504 -0.1102 -0.0757 -0.2304
   68loPI   GL2 1078   4.822   4.211  10.337 -0.1058  0.1225  0.1124
   68loPI   C1A 1079   5.244   4.353  10.242 -0.2846  0.2212  0.1695
   68loPI   C2A 1080   5.375   4.214   9.846 -0.0659 -0.3711 -0.0784
   68loPI   C3A 1081   5.517   4.322   9.430  0.6206 -0.0123  0.1946
   68loPI   C4A 1082   5.342   4.256   8.979  0.1211  0.2524  0.2249
   68loPI   C5A 1083   5.090   4.317   8.653 -0.3045  0.0200  0.0007
   68loPI   C6A 1084   4.873   4.276   8.323  0.0265 -0.0290  0.0986
   68loPI   C1B 1085   4.879   4.002   9.919 -0.0331  0.2588 -0.2213
   68loPI   C2B 1086   5.029   3.850   9.550 -0.0026 -0.1275  0.2407
   68loPI   C3B 1087   5.457   3.806   9.402 -0.1332 -0.2396 -0.4321
   68loPI   C4B 1088   5.655   3.892   9.055  0.4052  0.4067  0.0422
   69loPI    C1 1089  12.662  12.365  10.584  0.0338  0.2569 -0.1899
   69loPI    C2 1090  12.480  12.243  10.919 -0.0596 -0.0867 -0.3616
   69loPI    C3 1091  12.833  12.430  10.940  0.0371 -0.2933 -0.0826
   69loPI   PO4 1092  12.426  12.413  10.457  0.2384 -0.2323 -0.1080
   69loPI   GL1 1093  12.308  12.758  10.256  0.0372 -0.1137 -0.1077
   69loPI   GL2 1094  12.326  13.113  10.065  0.1518 -0.1372  0.0442
   69loPI   C1A 1095  12.292  12.689   9.802  0.0791 -0.0227  0.2084
   69loPI   C2A 1096  12.222  12.816   9.353 -0.1623  0.0383 -0.1189
   69loPI   C3A 1097  12.197  12.629   9.046 -0.2163 -0.1945  0.0104
   69loPI   C4A 1098  12.072  12.599   8.566 -0.1452 -0.0366 -0.0038
   69loPI   C5A 1099  11.995  12.861   8.205  0.2373 -0.1654  0.2596
   69loPI   C6A 1100  12.301  12.873   7.930 -0.0801  0.3209  0.1474
   69loPI   C1B 1101  12.160  13.169   9.752  0.0878 -0.3703 -0.1039
   69loPI   C2B 1102  12.001  13.385   9.448 -0.1453  0.1178  0.0715
   69loPI   C3B 1103  12.002  13.372   9.048 -0.0768 -0.0065  0.3092
   69loPI   C4B 1104  11.999  13.066   8.716 -0.0266 -0.1365 -0.1170
   70loPI    C1 1105   2.663   8.761  10.866  0.0982  0.1578 -0.1044
   70loPI    C2 1106   2.370   9.019  10.778  0.0927  0.2357  0.1357
   70loPI    C3 1107   2.352   8.802  11.114  0.0682 -0.1238 -0.0913
   70loPI   PO4 1108   2.794   8.591  10.623  0.2622  0.0821  0.0129
   70loPI   GL1 1109   2.521   8.521  10.246 -0.0944 -0.1990 -0.1047
   70loPI   GL2 1110   2.521   8.920  10.276 -0.2985  0.1043 -0.0929
   70loPI   C1A 1111   2.644   8.510   9.853 -0.0691  0.3074  0.0893
   70loPI   C2A 1112   2.628   8.472   9.439 -0.0264 -0.3472 -0.0754
   70loPI   C3A 1113   2.568   8.103   9.084  0.5014 -0.5238  0.1049
   70loPI   C4A 1114   2.401   7.764   8.756 -0.3713 -0.1362 -0.1112
   70loPI   C5A 1115   2.045   7.794   8.476  0.1496  0.3322  0.0305
   70loPI   C6A 1116   1.834   7.808   8.063 -0.0254  0.0554 -0.0957
   70loPI   C1B 1117   2.550   9.072   9.892  0.1919  0.0985  0.1166
   70loPI   C2B 1118   2.628   8.974   9.525  0.1724 -0.0937 -0.0040
   70loPI   C3B 1119   2.741   8.910   9.062 -0.1299  0.3355  0.2246
   70loPI   C4B 1120   2.906   8.574   8.894  0.0413 -0.4388  0.2371
   71loPI    C1 1121  17.190   4.389  10.827  0.0803  0.0965 -0.0194
   71loPI    C2 1122  16.972   4.695  10.965 -0.0797  0.0086 -0.0738
   71loPI    C3 1123  16.871   4.319  11.058  0.1435 -0.0272  0.0314
   71loPI   PO4 1124  17.198   4.398  10.654 -0.0792 -0.0224  0.0241
   71loPI   GL1 1125  17.068   4.669  10.367 -0.3230  0.4708 -0.0578
   71loPI   GL2 1126  17.351   4.779  10.314 -0.0416  0.0723 -0.1043
   71loPI   C1A 1127  16.674   4.579  10.035 -0.1603 -0.0106  0.1744
   71loPI   C2A 1128  16.783   4.654   9.606  0.1945  0.1052 -0.3287
   71loPI   C3A 1129  16.725   4.407   9.279  0.0042 -0.1418 -0.3034
   71loPI   C4A 1130  16.734   4.514   8.823  0.3061 -0.2711 -0.0470
   71loPI   C5A 1131  16.983   4.365   8.522  0.1414  0.0536  0.2150
   71loPI   C6A 1132  17.275   4.150   8.363 -0.3185 -0.0480  0.0647
   71loPI   C1B 1133  17.213   4.744   9.888 -0.2576 -0.1566  0.0042
   71loPI   C2B 1134  17.188   4.415   9.820  0.0579  0.1311 -0.4168
   71loPI   C3B 1135  17.092   4.225  10.038  0.1178 -0.1615 -0.0572
   71loPI   C4B 1136  16.905   3.926  10.278 -0.2005  0.0569  0.0197
   72loPI    C1 1137   0.774  11.352  10.685  0.0009 -0.0224  0.0135
   72loPI    C2 1138   0.411  11.202  10.755  0.0130 -0.1079 -0.1049
   72loPI    C3 1139   0.578  11.450  11.020 -0.2069  0.0754 -0.1350
   72loPI   PO4 1140   0.785  11.372  10.362 -0.1212 -0.0590  0.2383
   72loPI   GL1 1141   0.526  11.393   9.933 -0.0619  0.1431 -0.2011
   72loPI   GL2 1142   0.292  11.559   9.765  0.3351  0.1953 -0.1221
   72loPI   C1A 1143   0.547  11.104   9.542  0.0830 -0.0190 -0.0581
   72loPI   C2A 1144   0.530  11.089   9.040  0.0457  0.0311  0.2415
   72loPI   C3A 1145   0.355  11.116   8.669 -0.1380 -0.4463  0.0340
   72loPI   C4A 1146   0.610  11.467   8.384 -0.1669  0.1268  0.0699
   72loPI   C5A 1147   0.600  11.731   8.066  0.0064  0.0351  0.1485
   72loPI   C6A 1148   0.562  12.145   8.030  0.0092 -0.1918  0.1153
   72loPI   C1B 1149   0.246  11.547   9.347  0.0752  0.1773  0.0412
   72loPI   C2B 1150   0.301  11.610   8.967  0.3601  0.2534 -0.2156
   72loPI   C3B 1151   0.204  11.684   8.585  0.0263  0.0174 -0.0433
   72loPI   C4B 1152   0.147  11.843   8.161  0.1649  0.2874 -0.0490
   73loPI    C1 1153  13.990   4.646  10.452 -0.1398  0.1478 -0.0059
   73loPI    C2 1154  13.859   4.359  10.698  0.0872  0.0481  0.0013
   73loPI    C3 1155  13.752   4.740  10.760 -0.0795 -0.0120  0.0905
   73loPI   PO4 1156  14.226   4.551  10.402  0.3035  0.0712 -0.2278
   73loPI   GL1 1157  14.168   4.329   9.983 -0.0374 -0.2983  0.2080
   73loPI   GL2 1158  14.050   4.155  10.142 -0.0238 -0.0620 -0.1982
   73loPI   C1A 1159  14.354   4.096   9.622 -0.2134 -0.0564 -0.3319
   73loPI   C2A 1160  14.516   4.048   9.241  0.0015 -0.0621  0.0014
   73loPI   C3A 1161  14.789   4.140   9.018  0.1968  0.1118  0.1337
   73loPI   C4A 1162  15.113   3.910   9.010 -0.1479 -0.0577  0.0265
   73loPI   C5A 1163  15.540   4.026   9.215  0.1771 -0.0941 -0.3991
   73loPI   C6A 1164  15.619   4.012   9.605 -0.1246 -0.0326  0.2800
   73loPI   C1B 1165  13.907   3.927   9.804  0.1951  0.2507  0.0311
   73loPI   C2B 1166  13.903   3.840   9.415  0.2881 -0.1190  0.1807
   73loPI   C3B 1167  14.023   3.942   9.096 -0.2756  0.1825  0.0502
   73loPI   C4B 1168  14.318   3.805   8.863 -0.0126  0.0005 -0.0385
   74loPI    C1 1169  11.610   1.231  10.457  0.2541 -0.1478 -0.2088
   74loPI    C2 1170  11.596   0.991  10.777  0.0803  0.2546  0.0947
   74loPI    C3 1171  11.904   1.241  10.728 -0.0410  0.4090  0.1100
   74loPI   PO4 1172  11.614   1.027  10.249 -0.1478 -0.0873  0.2773
   74loPI   GL1 1173  11.898   0.970   9.931 -0.2550 -0.0051 -0.0935
   74loPI   GL2 1174  12.033   0.696   9.825  0.3961  0.0336  0.1970
   74loPI   C1A 1175  11.793   1.340   9.646 -0.0504 -0.1140  0.0766
   74loPI   C2A 1176  11.659   1.526   9.273 -0.0120 -0.2754  0.1008
   74loPI   C3A 1177  11.458   1.661   8.836 -0.3107  0.0808  0.3358
   74loPI   C4A 1178  11.318   1.636   8.403  0.1322  0.0695 -0.1184
   74loPI   C5A 1179  11.235   2.019   8.218  0.0209 -0.1269 -0.0598
   74loPI   C6A 1180  11.048   2.312   8.385  0.1103 -0.1565 -0.1991
   74loPI   C1B 1181  11.641   0.796   9.498  0.2237  0.1099  0.1074
   74loPI   C2B 1182  11.667   1.046   9.159  0.0809  0.2864  0.1028
   74loPI   C3B 1183  11.686   1.219   8.718 -0.0883  0.2249  0.1014
   74loPI   C4B 1184  11.802   1.621   8.404 -0.3032  0.0498  0.0868
   75loPI    C1 1185   4.314   8.291  10.805 -0.1712 -0.1187 -0.0455
   75loPI    C2 1186   4.024   8.507  10.976  0.1285  0.1977  0.0755
   75loPI    C3 1187   4.407   8.610  11.029  0.2514 -0.0227 -0.3454
   75loPI   PO4 1188   4.189   8.232  10.543 -0.0190 -0.0972 -0.1647
   75loPI   GL1 1189   4.148   8.272  10.148 -0.0745  0.3721  0.1809
   75loPI   GL2 1190   3.930   8.527  10.089 -0.4268  0.1407  0.3192
   75loPI   C1A 1191   4.493   8.335   9.868  0.0890 -0.3494  0.3262
   75loPI   C2A 1192   4.641   8.407   9.490 -0.1273  0.0498 -0.3304
   75loPI   C3A 1193   4.425   8.522   9.067 -0.0847 -0.2361  0.0120
   75loPI   C4A 1194   4.078   8.541   8.686  0.0553 -0.4060  0.0355
   75loPI   C5A 1195   4.306   8.377   8.380 -0.3490 -0.2602  0.0105
   75loPI   C6A 1196   4.616   8.012   8.275 -0.1037 -0.2224  0.0130
   75loPI   C1B 1197   4.092   8.470   9.659  0.1529 -0.1487 -0.0659
   75loPI   C2B 1198   3.981   8.296   9.291 -0.1685 -0.0114  0.1022
   75loPI   C3B 1199   3.868   8.124   8.832  0.2335  0.2567 -0.0257
   75loPI   C4B 1200   3.925   8.060   8.389 -0.2381 -0.1444  0.2011
   76loPI    C1 1201   1.696  17.841  10.796 -0.0392 -0.2961  0.0295
   76loPI    C2 1202   1.350  17.645  10.839 -0.2242  0.0771  0.2964
   76loPI    C3 1203   1.385  18.021  10.971  0.1976  0.1451  0.0108
   76loPI   PO4 1204   1.847  17.604  10.692  0.0705 -0.1206  0.2410
   76loPI   GL1 1205   1.805  17.527  10.291 -0.1573  0.5007 -0.2616
   76loPI   GL2 1206   1.964  17.821  10.269  0.2351  0.0938 -0.1713
   76loPI   C1A 1207   1.571  17.508   9.973 -0.2162 -0.0418 -0.0354
   76loPI   C2A 1208   1.503  17.803   9.566  0.2674  0.1398  0.1659
   76loPI   C3A 1209   1.419  17.961   9.185 -0.1781  0.0134 -0.1924
   76loPI   C4A 1210   1.553  17.992   8.825 -0.0542  0.0539  0.1020
   76loPI   C5A 1211   1.627  18.156   8.409  0.2616  0.1778 -0.1279
   76loPI   C6A 1212   1.562  18.198   7.970 -0.0475 -0.0138  0.3207
   76loPI   C1B 1213   2.096  17.712   9.810  0.0759 -0.1134  0.0769
   76loPI   C2B 1214   2.119  17.610   9.384  0.0185  0.0185  0.2183
   76loPI   C3B 1215   1.966  17.687   9.050  0.1610 -0.0715 -0.1960
   76loPI   C4B 1216   2.013  17.810   8.651  0.0570  0.2078  0.2387
   77loPI    C1 1217   3.504  17.368  10.919 -0.0714  0.1243 -0.0331
   77loPI    C2 1218   3.419  17.622  11.216  0.0806  0.0210  0.1002
   77loPI    C3 1219   3.743  17.388  11.239 -0.0714 -0.2035 -0.0089
   77loPI   PO4 1220   3.484  17.553  10.738 -0.0195 -0.1312 -0.2062
   77loPI   GL1 1221   3.437  17.739  10.312 -0.0350 -0.1043  0.1600
   77loPI   GL2 1222   3.360  17.494  10.142 -0.0590 -0.1416  0.1111
   77loPI   C1A 1223   3.196  17.823   9.841 -0.1565  0.2475  0.0486
   77loPI   C2A 1224   3.311  18.082   9.558  0.2249  0.0981 -0.0526
   77loPI   C3A 1225   3.379  18.098   9.142  0.2302 -0.0642  0.1567
   77loPI   C4A 1226   3.635  17.880   8.862  0.0842 -0.2153  0.0289
   77loPI   C5A 1227   3.961  17.790   8.642  0.0521 -0.0180 -0.0709
   77loPI   C6A 1228   4.310  17.544   8.615  0.0411  0.2060  0.0683
   77loPI   C1B 1229   3.397  17.373   9.637  0.0051  0.2863  0.0462
   77loPI   C2B 1230   3.597  17.122   9.274 -0.3181 -0.1184  0.0966
   77loPI   C3B 1231   3.996  16.925   9.220  0.2216 -0.2391 -0.3349
   77loPI   C4B 1232   4.377  16.636   9.250 -0.1923  0.1082 -0.2983
   78loPI    C1 1233  15.433  15.529  10.669 -0.2831  0.0210 -0.1925
   78loPI    C2 1234  15.240  15.794  10.899  0.1727  0.0631  0.1561
   78loPI    C3 1235  15.317  15.427  11.038 -0.1961 -0.1630 -0.2150
   78loPI   PO4 1236  15.289  15.473  10.357  0.3467 -0.0527 -0.0497
   78loPI   GL1 1237  15.466  15.248   9.941  0.1692  0.0022  0.1179
   78loPI   GL2 1238  15.193  15.174   9.939  0.2515  0.2405  0.0472
   78loPI   C1A 1239  15.557  15.326   9.570 -0.3098  0.0423  0.1183
   78loPI   C2A 1240  15.579  15.187   9.062 -0.1997 -0.1027 -0.0278
   78loPI   C3A 1241  15.540  15.127   8.633  0.4582  0.2433 -0.0547
   78loPI   C4A 1242  15.470  14.936   8.301 -0.3896  0.0799 -0.0834
   78loPI   C5A 1243  15.109  14.578   8.137 -0.0678  0.0356 -0.1038
   78loPI   C6A 1244  14.622  14.487   8.187 -0.4447  0.0661  0.2969
   78loPI   C1B 1245  15.181  15.015   9.543  0.4528  0.2534  0.0130
   78loPI   C2B 1246  15.124  14.894   9.111 -0.2174  0.1328  0.2840
   78loPI   C3B 1247  15.003  14.939   8.665  0.0798 -0.3321 -0.1342
   78loPI   C4B 1248  14.824  14.975   8.212  0.2104  0.1329  0.1669
   79loPI    C1 1249  13.240   9.802  10.718  0.1600 -0.1024 -0.0791
   79loPI    C2 1250  13.198   9.855  11.112 -0.1325 -0.1374 -0.1030
   79loPI    C3 1251  13.341   9.509  10.971 -0.3289 -0.2464 -0.0393
   79loPI   PO4 1252  13.484  10.032  10.558 -0.1968  0.0237 -0.0479
   79loPI   GL1 1253  13.676   9.805  10.182 -0.1007 -0.2687  0.0502
   79loPI   GL2 1254  13.497   9.665  10.003 -0.1031 -0.0442  0.0899
   79loPI   C1A 1255  13.673  10.128   9.845 -0.0081 -0.1682 -0.4003
   79loPI   C2A 1256  13.656  10.200   9.493  0.0792  0.0669  0.1811
   79loPI   C3A 1257  13.903  10.211   9.135 -0.0337 -0.1376  0.0266
   79loPI   C4A 1258  14.271  10.342   9.025 -0.4505  0.0131 -0.2455
   79loPI   C5A 1259  14.600  10.412   8.719 -0.1613  0.0649  0.1012
   79loPI   C6A 1260  14.283  10.510   8.480  0.2263  0.0257 -0.1528
   79loPI   C1B 1261  13.242   9.695   9.628  0.0231 -0.2391  0.0745
   79loPI   C2B 1262  13.090   9.522   9.256  0.1744 -0.2873  0.0273
   79loPI   C3B 1263  12.960   9.502   8.832  0.0414 -0.1433  0.1058
   79loPI   C4B 1264  12.736   9.197   8.475  0.1621 -0.2442  0.0907
   80loPI    C1 1265   8.261  15.545  10.912 -0.0295  0.0043 -0.0187
   80loPI    C2 1266   8.372  15.163  10.957  0.1712  0.0570 -0.0565
   80loPI    C3 1267   8.398  15.416  11.266 -0.2678 -0.0339  0.0611
   80loPI   PO4 1268   8.335  15.594  10.733  0.2014  0.1095 -0.3549
   80loPI   GL1 1269   8.440  15.531  10.430  0.0392 -0.0083  0.2344
   80loPI   GL2 1270   8.341  15.407  10.162 -0.1441  0.0631 -0.1258
   80loPI   C1A 1271   8.789  15.590  10.126  0.2221 -0.2121  0.1070
   80loPI   C2A 1272   8.983  15.508   9.852  0.1896 -0.0802  0.0339
   80loPI   C3A 1273   9.060  15.603   9.445 -0.3000  0.0614 -0.1609
   80loPI   C4A 1274   9.102  15.522   9.091  0.2613  0.1173 -0.2279
   80loPI   C5A 1275   9.048  15.458   8.714  0.1839  0.0660 -0.2092
   80loPI   C6A 1276   9.235  15.083   8.468 -0.0472  0.0183  0.0594
   80loPI   C1B 1277   8.531  15.496   9.659 -0.1983  0.0863 -0.2306
   80loPI   C2B 1278   8.608  15.612   9.283 -0.2795  0.1771 -0.2931
   80loPI   C3B 1279   8.470  15.605   8.893 -0.1417 -0.0246  0.1302
   80loPI   C4B 1280   8.516  15.400   8.409  0.0091 -0.1984  0.0467
   81loPI    C1 1281  15.164   5.147  10.875  0.0516 -0.0496 -0.2373
   81loPI    C2 1282  14.975   4.874  10.652 -0.1520 -0.1421  0.0425
   81loPI    C3 1283  15.372   4.856  10.697 -0.1181 -0.1669 -0.2468
   81loPI   PO4 1284  14.922   5.348  10.898  0.1306  0.0105  0.4037
   81loPI   GL1 1285  14.914   5.649  10.474  0.0092  0.1764  0.2569
   81loPI   GL2 1286  14.928   5.326  10.395 -0.1769  0.0048 -0.1133
   81loPI   C1A 1287  15.184   5.670  10.110  0.3260 -0.2414  0.0321
   81loPI   C2A 1288  15.163   5.597   9.689  0.3840  0.2014  0.2776
   81loPI   C3A 1289  15.167   5.530   9.267  0.1605 -0.1573 -0.0527
   81loPI   C4A 1290  15.237   5.454   8.889  0.1388  0.0806 -0.0756
   81loPI   C5A 1291  15.256   5.172   8.585  0.0584  0.0253  0.5666
   81loPI   C6A 1292  15.295   4.714   8.623  0.2390  0.0418 -0.0143
   81loPI   C1B 1293  14.934   5.111   9.950  0.2119  0.0811 -0.1527
   81loPI   C2B 1294  14.987   5.052   9.553 -0.1283  0.4433 -0.1373
   81loPI   C3B 1295  15.010   5.001   9.139  0.2429  0.1526  0.0088
   81loPI   C4B 1296  14.841   4.976   8.696 -0.0097 -0.1111 -0.3068
   82loPI    C1 1297  17.064   8.872  11.326  0.1754 -0.2615  0.1310
   82loPI    C2 1298  16.862   8.631  11.573 -0.1094  0.0064  0.1648
   82loPI    C3 1299  17.046   8.956  11.717  0.0379 -0.0378  0.0782
   82loPI   PO4 1300  16.924   8.816  11.071 -0.2029  0.4212  0.0886
   82loPI   GL1 1301  16.980   8.885  10.627  0.0009 -0.1177  0.5805
   82loPI   GL2 1302  16.762   8.607  10.533  0.2482  0.2797  0.0870
   82loPI   C1A 1303  17.130   8.864  10.159 -0.0071 -0.2509  0.1292
   82loPI   C2A 1304  17.102   8.787   9.685  0.1251 -0.0934  0.0850
   82loPI   C3A 1305  17.205   8.872   9.236 -0.0693  0.1206 -0.1949
   82loPI   C4A 1306  17.343   8.955   8.807  0.3368 -0.0859 -0.0199
   82loPI   C5A 1307  17.280   8.911   8.446  0.0674  0.0720 -0.1846
   82loPI   C6A 1308  17.428   8.985   8.005 -0.0160 -0.0664 -0.0728
   82loPI   C1B 1309  16.824   8.474  10.141 -0.0083 -0.3105 -0.2170
   82loPI   C2B 1310  16.886   8.295   9.702 -0.0890 -0.2257  0.2245
   82loPI   C3B 1311  16.860   8.392   9.201 -0.0618  0.1050 -0.0673
   82loPI   C4B 1312  16.940   8.645   8.761  0.3557 -0.2655  0.1031
   83loPI    C1 1313   8.191   0.167  11.010  0.0151  0.2273  0.1597
   83loPI    C2 1314   8.184   0.052  11.393 -0.1096  0.0201  0.0969
   83loPI    C3 1315   8.530   0.059  11.192 -0.0575  0.0424  0.1869
   83loPI   PO4 1316   7.919   0.085  10.962  0.1873  0.1315  0.0577
   83loPI   GL1 1317   7.583   0.298  10.671 -0.2637 -0.0061 -0.3356
   83loPI   GL2 1318   7.916   0.315  10.475 -0.1475  0.0412  0.2945
   83loPI   C1A 1319   7.345   0.254  10.266 -0.0635 -0.2009 -0.1229
   83loPI   C2A 1320   7.391   0.083   9.823 -0.1370 -0.0106 -0.1779
   83loPI   C3A 1321   7.516   0.087   9.360  0.1829 -0.1195 -0.1248
   83loPI   C4A 1322   7.680   0.170   8.943  0.1145  0.0830 -0.2754
   83loPI   C5A 1323   7.791   0.087   8.508  0.1649 -0.2076  0.1110
   83loPI   C6A 1324   7.669   0.050   8.087  0.0659  0.1461  0.1194
   83loPI   C1B 1325   7.766   0.439  10.050 -0.2251 -0.0755  0.2885
   83loPI   C2B 1326   7.685   0.500   9.627 -0.1251 -0.1039  0.2455
   83loPI   C3B 1327   7.786   0.591   9.142 -0.2211 -0.2209  0.1937
   83loPI   C4B 1328   7.680   0.655   8.701 -0.0997  0.3414 -0.0531
   84loPI    C1 1329   1.009  11.887  10.499  0.1497 -0.3139 -0.0860
   84loPI    C2 1330   1.222  11.599  10.677 -0.0492 -0.2864  0.2038
   84loPI    C3 1331   0.927  11.782  10.876  0.0756  0.1224  0.0250
   84loPI   PO4 1332   0.968  11.840  10.284 -0.0550 -0.3657  0.0879
   84loPI   GL1 1333   0.788  11.813  10.018  0.0804 -0.0493  0.0937
   84loPI   GL2 1334   0.539  11.995   9.952  0.1478 -0.2235  0.1779
   84loPI   C1A 1335   0.712  11.678   9.562 -0.2873  0.0800 -0.2898
   84loPI   C2A 1336   0.725  11.518   9.203 -0.0121  0.3036 -0.0216
   84loPI   C3A 1337   0.851  11.460   8.825 -0.1096 -0.2081 -0.1627
   84loPI   C4A 1338   0.937  11.097   8.658 -0.0329 -0.0939 -0.0581
   84loPI   C5A 1339   0.845  11.040   8.279 -0.2109 -0.2458  0.3478
   84loPI   C6A 1340   0.478  10.893   8.168  0.0391  0.2925  0.0876
   84loPI   C1B 1341   0.853  12.167   9.601  0.1544  0.1017 -0.1667
   84loPI   C2B 1342   0.970  12.253   9.160  0.1538 -0.2707 -0.1486
   84loPI   C3B 1343   1.058  12.096   8.830  0.2060  0.1398 -0.0290
   84loPI   C4B 1344   1.025  11.770   8.478 -0.3040 -0.1823 -0.1266
   85loPI    C1 1345  15.713   3.881  10.944 -0.4674  0.1484 -0.0983
   85loPI    C2 1346  15.955   4.051  11.214 -0.1191  0.0066 -0.3136
   85loPI    C3 1347  15.704   3.760  11.326  0.0818 -0.1093 -0.1568
   85loPI   PO4 1348  15.741   3.732  10.753 -0.1120  0.0179 -0.3840
   85loPI   GL1 1349  15.666   3.815  10.348  0.0486 -0.2176  0.2703
   85loPI   GL2 1350  15.657   3.499  10.161  0.2865 -0.0366  0.3981
   85loPI   C1A 1351  15.899   4.006  10.044 -0.2274  0.1172 -0.0288
   85loPI   C2A 1352  16.157   3.857   9.719  0.0927 -0.1516 -0.0932
   85loPI   C3A 1353  16.408   3.813   9.323 -0.0170 -0.1397  0.0918
   85loPI   C4A 1354  16.438   4.083   8.915  0.2393  0.0973  0.0342
   85loPI   C5A 1355  16.317   4.274   8.619  0.0348  0.2151  0.0888
   85loPI   C6A 1356  15.891   4.290   8.398  0.0425 -0.0149 -0.0845
   85loPI   C1B 1357  15.747   3.515   9.730 -0.2574 -0.1815  0.3991
   85loPI   C2B 1358  15.867   3.609   9.256 -0.1467 -0.0081  0.2074
   85loPI   C3B 1359  15.610   3.622   8.907 -0.0861  0.2319 -0.0093
   85loPI   C4B 1360  15.796   3.557   8.526 -0.0533 -0.1267 -0.0388
   86loPI    C1 1361  15.845  16.323  10.840 -0.0119  0.1377 -0.0298
   86loPI    C2 1362  16.068  15.991  10.863 -0.0791  0.0950  0.0078
   86loPI    C3 1363  15.670  15.968  10.902 -0.1455  0.0988 -0.5783
   86loPI   PO4 1364  15.974  16.511  10.592  0.2647  0.2255  0.0411
   86loPI   GL1 1365  15.664  16.440  10.164 -0.2547 -0.2202 -0.0670
   86loPI   GL2 1366  15.655  16.138   9.958  0.0624 -0.0420 -0.2327
   86loPI   C1A 1367  15.526  16.526   9.691 -0.1872  0.0872  0.0081
   86loPI   C2A 1368  15.509  16.442   9.317 -0.0247  0.0674  0.3498
   86loPI   C3A 1369  15.450  16.372   9.010 -0.0615  0.0441  0.1469
   86loPI   C4A 1370  15.506  16.293   8.579  0.0041  0.2395  0.0116
   86loPI   C5A 1371  15.410  16.236   8.029 -0.3613 -0.3386 -0.0103
   86loPI   C6A 1372  15.104  16.072   7.783  0.2073 -0.2220  0.1950
   86loPI   C1B 1373  15.437  15.925   9.510  0.0220 -0.0138 -0.1218
   86loPI   C2B 1374  15.249  15.909   9.059 -0.1772 -0.2568  0.0282
   86loPI   C3B 1375  15.094  16.016   8.706  0.0297 -0.0493 -0.0862
   86loPI   C4B 1376  15.011  16.055   8.320  0.0780  0.0211 -0.0151
   87loPI    C1 1377  14.845   1.413  10.985  0.2758 -0.0043 -0.0209
   87loPI    C2 1378  14.921   1.795  11.077  0.2240  0.0236 -0.0924
   87loPI    C3 1379  14.599   1.703  10.858  0.0514 -0.0920  0.2045
   87loPI   PO4 1380  15.163   1.333  10.794 -0.2858 -0.3328 -0.1642
   87loPI   GL1 1381  15.218   1.370  10.351  0.0955 -0.0214  0.4092
   87loPI   GL2 1382  15.379   1.041  10.345  0.2435 -0.3341 -0.0772
   87loPI   C1A 1383  15.370   1.311   9.895  0.0184 -0.0765 -0.4656
   87loPI   C2A 1384  15.400   0.943   9.582 -0.1702 -0.0102 -0.1952
   87loPI   C3A 1385  15.659   0.838   9.356 -0.0421 -0.1064 -0.2775
   87loPI   C4A 1386  15.664   0.682   8.980 -0.0199  0.0910  0.0103
   87loPI   C5A 1387  15.652   0.490   8.590  0.1872 -0.0645 -0.0220
   87loPI   C6A 1388  15.545   0.512   8.117  0.0281  0.2271  0.0077
   87loPI   C1B 1389  15.244   0.849  10.085 -0.2327  0.0732 -0.0772
   87loPI   C2B 1390  15.403   0.463   9.917 -0.1780  0.1664 -0.1593
   87loPI   C3B 1391  15.456   0.237   9.590 -0.0892 -0.1411 -0.2866
   87loPI   C4B 1392  15.542   0.110   9.243  0.0598  0.3437  0.0654
   88loPI    C1 1393   8.400   2.656  11.063 -0.0759 -0.1408  0.0010
   88loPI    C2 1394   8.287   3.008  11.217 -0.0209 -0.1015 -0.0478
   88loPI    C3 1395   8.504   2.754  11.437  0.0180 -0.0654 -0.0444
   88loPI   PO4 1396   8.449   2.718  10.769 -0.0111 -0.1770  0.2979
   88loPI   GL1 1397   8.189   2.807  10.429  0.0169  0.2051  0.1654
   88loPI   GL2 1398   7.896   2.793  10.450 -0.2244 -0.1268  0.1554
   88loPI   C1A 1399   8.222   3.168  10.027 -0.2845  0.0320  0.0020
   88loPI   C2A 1400   8.267   3.161   9.662 -0.0061  0.0456  0.0829
   88loPI   C3A 1401   8.270   2.993   9.247 -0.0656  0.0782 -0.1315
   88loPI   C4A 1402   8.204   3.071   8.845 -0.0109 -0.1350 -0.0009
   88loPI   C5A 1403   8.344   3.409   8.510 -0.3825  0.0951 -0.4534
   88loPI   C6A 1404   8.459   3.585   8.153 -0.0941  0.0662  0.0339
   88loPI   C1B 1405   7.844   2.887  10.043  0.0726  0.1580  0.0291
   88loPI   C2B 1406   7.790   2.991   9.586  0.1439 -0.2543  0.1513
   88loPI   C3B 1407   7.746   3.051   9.185  0.1723  0.0086 -0.1285
   88loPI   C4B 1408   7.384   3.055   8.770 -0.0668  0.1000 -0.0162
   89loPI    C1 1409  17.484  16.296  10.330  0.0461  0.2908  0.1936
   89loPI    C2 1410  17.279  16.288  10.674 -0.1593 -0.0382  0.0688
   89loPI    C3 1411  17.322  15.953  10.458  0.1259  0.1252 -0.1361
   89loPI   PO4 1412  17.302  16.532  10.186 -0.1681  0.1309  0.3602
   89loPI   GL1 1413  17.292  16.538   9.809 -0.0238  0.1728 -0.1599
   89loPI   GL2 1414  17.567  16.322   9.803  0.0793 -0.1837 -0.0749
   89loPI   C1A 1415  17.380  16.288   9.403 -0.2018 -0.1287 -0.1382
   89loPI   C2A 1416  17.402  16.343   8.969 -0.1062  0.3309  0.1470
   89loPI   C3A 1417  17.355  16.393   8.467  0.1157 -0.0317  0.1118
   89loPI   C4A 1418  17.425  16.480   8.101 -0.0081 -0.3938  0.0310
   89loPI   C5A 1419  17.053  16.542   7.772  0.2753 -0.1653 -0.0504
   89loPI   C6A 1420  16.643  16.667   7.605 -0.0425  0.0814  0.3343
   89loPI   C1B 1421  17.874  16.372   9.541  0.0430 -0.1513  0.0335
   89loPI   C2B 1422  17.928  16.395   9.148 -0.2279 -0.0625 -0.2711
   89loPI   C3B 1423  17.819  16.478   8.691  0.0152  0.2127 -0.1566
   89loPI   C4B 1424  17.924  16.510   8.330  0.1931 -0.1605 -0.0154
   90loPI    C1 1425   5.819   2.454  11.186 -0.0212 -0.2929 -0.1376
   90loPI    C2 1426   5.432   2.553  11.209  0.0797  0.0202  0.3543
   90loPI    C3 1427   5.556   2.197  11.343 -0.0413 -0.1001  0.1517
   90loPI   PO4 1428   5.908   2.477  10.949 -0.1166 -0.3222  0.0299
   90loPI   GL1 1429   5.786   2.550  10.561 -0.0609  0.0936  0.1128
   90loPI   GL2 1430   5.480   2.512  10.481 -0.1910  0.0767  0.0212
   90loPI   C1A 1431   5.881   2.831  10.156  0.2260  0.1455  0.1470
   90loPI   C2A 1432   5.895   2.788   9.746 -0.0682  0.1252 -0.1243
   90loPI   C3A 1433   6.043   2.651   9.340 -0.3370  0.0109 -0.0760
   90loPI   C4A 1434   5.991   2.890   8.960  0.1429  0.0771  0.0778
   90loPI   C5A 1435   6.227   2.961   8.618  0.1411  0.0279  0.1635
   90loPI   C6A 1436   6.523   3.242   8.463  0.0533 -0.1169  0.0139
   90loPI   C1B 1437   5.567   2.422   9.998  0.0364 -0.2159  0.3222
   90loPI   C2B 1438   5.643   2.384   9.546  0.1028 -0.0153 -0.4790
   90loPI   C3B 1439   5.605   2.571   9.206  0.0393 -0.0707  0.1265
   90loPI   C4B 1440   5.572   2.521   8.758 -0.0786  0.2217 -0.4760
   91loPI    C1 1441  13.743  13.021  10.810  0.0297 -0.2110  0.0116
   91loPI    C2 1442  13.370  12.908  10.902 -0.0956  0.1839  0.0087
   91loPI    C3 1443  13.515  13.254  11.042  0.2917  0.0093  0.0536
   91loPI   PO4 1444  13.766  12.956  10.610 -0.0811  0.1675 -0.0050
   91loPI   GL1 1445  13.750  12.648  10.196  0.1023 -0.2978  0.2225
   91loPI   GL2 1446  13.602  12.953  10.058  0.2174  0.3124 -0.0215
   91loPI   C1A 1447  13.919  12.823   9.745 -0.1263  0.1777  0.0028
   91loPI   C2A 1448  13.907  12.826   9.299 -0.1678  0.0951  0.0909
   91loPI   C3A 1449  13.888  12.836   8.840 -0.2131  0.3264  0.0154
   91loPI   C4A 1450  13.964  12.748   8.346 -0.1037 -0.1493  0.0841
   91loPI   C5A 1451  14.413  12.709   8.173 -0.1144  0.0849  0.1067
   91loPI   C6A 1452  14.745  12.678   8.422  0.0701  0.1577 -0.3254
   91loPI   C1B 1453  13.344  13.211   9.876  0.3879  0.2423  0.0805
   91loPI   C2B 1454  13.081  13.359   9.678  0.0020  0.2872 -0.0291
   91loPI   C3B 1455  12.987  13.398   9.228 -0.0061 -0.0938  0.2935
   91loPI   C4B 1456  13.082  13.482   8.794  0.1290 -0.1454 -0.1143
   92loPI    C1 1457  11.672  16.968  10.404 -0.1929  0.0085  0.2349
   92loPI    C2 1458  12.057  16.869  10.364 -0.2089  0.0398 -0.0118
   92loPI    C3 1459  11.934  17.068  10.689 -0.0144  0.0489  0.0580
   92loPI   PO4 1460  11.574  16.714  10.362 -0.1061 -0.4545 -0.0360
   92loPI   GL1 1461  11.602  16.548   9.963 -0.0444 -0.0273 -0.0547
   92loPI   GL2 1462  11.380  16.364   9.933 -0.1148 -0.0414 -0.1693
   92loPI   C1A 1463  11.728  16.378   9.489 -0.0812  0.1652  0.1806
   92loPI   C2A 1464  11.700  16.525   9.052  0.0949 -0.0626 -0.1741
   92loPI   C3A 1465  11.767  16.485   8.640  0.4170 -0.1790 -0.1968
   92loPI   C4A 1466  11.796  16.563   8.247 -0.2024  0.0433 -0.0620
   92loPI   C5A 1467  11.805  16.802   7.819 -0.1174  0.0302 -0.1331
   92loPI   C6A 1468  11.608  16.812   7.453  0.0145 -0.1302 -0.1059
   92loPI   C1B 1469  11.221  16.160   9.517 -0.1928 -0.0033  0.3676
   92loPI   C2B 1470  11.114  16.214   9.076 -0.1631 -0.3972 -0.1070
   92loPI   C3B 1471  11.293  16.353   8.754  0.3957  0.0722 -0.1738
   92loPI   C4B 1472  11.225  16.571   8.470 -0.3812  0.1061 -0.0881
   93loPI    C1 1473  10.604   4.249  11.274 -0.0635  0.0782 -0.0856
   93loPI    C2 1474  10.939   4.435  11.391  0.0580 -0.1654 -0.0405
   93loPI    C3 1475  10.582   4.568  11.515  0.1460  0.0033  0.0348
   93loPI   PO4 1476  10.775   4.219  10.956 -0.0087 -0.1053 -0.1315
   93loPI   GL1 1477  10.538   4.180  10.599 -0.2729 -0.0021  0.1507
   93loPI   GL2 1478  10.347   4.003  10.341 -0.1616 -0.2510 -0.1782
   93loPI   C1A 1479  10.841   4.255  10.218 -0.3036  0.2213 -0.0874
   93loPI   C2A 1480  10.965   4.388   9.867  0.0073  0.1195  0.1412
   93loPI   C3A 1481  10.909   4.233   9.411 -0.2176 -0.3242 -0.1950
   93loPI   C4A 1482  10.593   4.139   9.064  0.2910  0.3089 -0.0204
   93loPI   C5A 1483  10.514   3.949   8.724  0.1414  0.1393 -0.1525
   93loPI   C6A 1484  10.435   3.883   8.248  0.0876  0.1617  0.2831
   93loPI   C1B 1485  10.268   3.944   9.931 -0.1243  0.0674 -0.1066
   93loPI   C2B 1486  10.283   3.923   9.469  0.0152 -0.0282  0.1915
   93loPI   C3B 1487  10.152   3.913   9.143 -0.2253 -0.0032 -0.2793
   93loPI   C4B 1488  10.009   3.881   8.748  0.0649  0.2779 -0.1070
   94loPI    C1 1489  12.003  11.932  10.828  0.0089  0.1010  0.3468
   94loPI    C2 1490  11.644  11.762  10.871  0.1040 -0.1201  0.2788
   94loPI    C3 1491  11.761  12.049  11.124 -0.2173  0.1262  0.1543
   94loPI   PO4 1492  12.022  11.962  10.580  0.3083 -0.0015 -0.0068
   94loPI   GL1 1493  12.016  11.750  10.259 -0.1475 -0.1515  0.0071
   94loPI   GL2 1494  12.164  12.050  10.139  0.0716 -0.1271  0.0554
   94loPI   C1A 1495  11.920  11.539  10.022 -0.2579  0.1576 -0.0485
   94loPI   C2A 1496  11.823  11.483   9.628  0.3020  0.0522 -0.3827
   94loPI   C3A 1497  12.153  11.217   9.522 -0.0675 -0.1540  0.1374
   94loPI   C4A 1498  12.179  11.127   9.137  0.2040  0.0225 -0.0306
   94loPI   C5A 1499  12.017  11.207   8.699 -0.3216  0.0115  0.1896
   94loPI   C6A 1500  12.182  11.388   8.323  0.0473  0.4414 -0.0661
   94loPI   C1B 1501  12.026  11.936   9.681 -0.1381 -0.2870  0.1891
   94loPI   C2B 1502  11.852  11.853   9.264  0.0965 -0.1515 -0.0439
   94loPI   C3B 1503  11.706  11.449   9.144 -0.0249  0.0181  0.0274
   94loPI   C4B 1504  11.553  11.102   8.876 -0.3446  0.0350  0.1760
   95loPI    C1 1505  12.167  17.622  10.856  0.0519  0.0073  0.0162
   95loPI    C2 1506  12.222  17.994  10.720 -0.0053 -0.0426 -0.1456
   95loPI    C3 1507  12.538  17.763  10.805  0.0302  0.0476 -0.0313
   95loPI   PO4 1508  11.937  17.552  10.645  0.0736 -0.2148  0.1481
   95loPI   GL1 1509  11.613  17.425  10.300 -0.0874 -0.3772 -0.1073
   95loPI   GL2 1510  11.300  17.362  10.256 -0.1108  0.0377 -0.2705
   95loPI   C1A 1511  11.545  17.423   9.842  0.0683 -0.0848  0.1545
   95loPI   C2A 1512  11.457  17.472   9.348  0.0875 -0.1216 -0.4172
   95loPI   C3A 1513  11.521  17.525   8.879  0.1420  0.1526  0.1769
   95loPI   C4A 1514  11.593  17.531   8.456  0.1204 -0.0024 -0.5288
   95loPI   C5A 1515  11.570  17.807   8.057  0.3242 -0.1683 -0.2756
   95loPI   C6A 1516  11.639  18.278   7.935 -0.0297 -0.0824 -0.1569
   95loPI   C1B 1517  11.013  17.275   9.780 -0.2682  0.0163 -0.4653
   95loPI   C2B 1518  11.062  17.176   9.356  0.1596  0.1589 -0.2431
   95loPI   C3B 1519  11.092  17.131   8.948  0.3245 -0.0039  0.1179
   95loPI   C4B 1520  11.051  17.075   8.470  0.0493  0.0998 -0.1499
   96loPI    C1 1521  12.688   6.860  10.376 -0.3926 -0.2629 -0.1838
   96loPI    C2 1522  12.600   7.078  10.052 -0.2082 -0.0985 -0.1251
   96loPI    C3 1523  12.498   7.210  10.416  0.2151  0.0659 -0.0611
   96loPI   PO4 1524  12.525   6.652  10.468 -0.0797 -0.1053 -0.1825
   96loPI   GL1 1525  12.263   6.286  10.195  0.1157 -0.4079 -0.2475
   96loPI   GL2 1526  12.452   6.512   9.983 -0.0581  0.2002  0.2041
   96loPI   C1A 1527  12.036   6.365   9.806  0.1491  0.0641  0.0339
   96loPI   C2A 1528  12.132   6.319   9.367  0.2511  0.0938 -0.0313
   96loPI   C3A 1529  12.143   6.334   8.992  0.1292  0.2548 -0.1149
   96loPI   C4A 1530  12.008   6.179   8.647 -0.0842  0.0342  0.0820
   96loPI   C5A 1531  11.969   6.225   8.198 -0.2297  0.3059 -0.0589
   96loPI   C6A 1532  12.407   6.119   8.039  0.0850  0.1058 -0.0074
   96loPI   C1B 1533  12.589   6.502   9.499  0.2552  0.0659  0.0970
   96loPI   C2B 1534  12.639   6.342   9.111 -0.1220  0.1415  0.0957
   96loPI   C3B 1535  12.566   6.327   8.699  0.0240 -0.1734 -0.0581
   96loPI   C4B 1536  12.441   5.942   8.505  0.4075 -0.1027  0.0983
   97loPI    C1 1537   2.075   0.699  10.922  0.1593  0.0717  0.1388
   97loPI    C2 1538   2.379   0.770  10.672  0.1064  0.2639  0.1269
   97loPI    C3 1539   2.445   0.582  11.019  0.1460 -0.2011 -0.1238
   97loPI   PO4 1540   1.912   0.856  10.837  0.0052  0.0610  0.0274
   97loPI   GL1 1541   1.914   0.886  10.420 -0.0136  0.1055 -0.2242
   97loPI   GL2 1542   2.234   1.045  10.173 -0.0879 -0.2198 -0.0806
   97loPI   C1A 1543   1.919   0.703  10.065 -0.2627  0.3479 -0.2275
   97loPI   C2A 1544   1.838   0.663   9.625 -0.1258  0.0588 -0.0539
   97loPI   C3A 1545   2.043   0.894   9.286  0.0385 -0.1104  0.0299
   97loPI   C4A 1546   2.044   0.858   8.890  0.1452 -0.0175  0.0072
   97loPI   C5A 1547   1.823   0.678   8.642  0.0026  0.0508  0.1040
   97loPI   C6A 1548   1.510   0.767   8.341  0.0270 -0.0743  0.3213
   97loPI   C1B 1549   2.149   1.058   9.725  0.2027 -0.3848 -0.0951
   97loPI   C2B 1550   2.431   1.049   9.518  0.0031  0.0389  0.3552
   97loPI   C3B 1551   2.441   1.163   9.085  0.3144 -0.0357 -0.3211
   97loPI   C4B 1552   2.256   1.338   8.762 -0.2635  0.4310 -0.0902
   98loPI    C1 1553   1.265   7.955  11.296  0.3993 -0.0365  0.2852
   98loPI    C2 1554   1.286   7.718  11.618 -0.0821 -0.0823  0.2905
   98loPI    C3 1555   1.030   8.025  11.612  0.2645  0.2124  0.1331
   98loPI   PO4 1556   1.138   7.786  11.027  0.0463  0.0233 -0.1520
   98loPI   GL1 1557   1.099   7.725  10.621  0.3136  0.0866 -0.1628
   98loPI   GL2 1558   1.029   7.524  10.435  0.0790 -0.1604 -0.2173
   98loPI   C1A 1559   1.183   8.105  10.377 -0.0430 -0.3243  0.0353
   98loPI   C2A 1560   1.159   8.014   9.986  0.1074  0.0207  0.0623
   98loPI   C3A 1561   1.232   8.119   9.571  0.0443  0.0305  0.2285
   98loPI   C4A 1562   1.486   7.927   9.149 -0.0954 -0.0187 -0.2311
   98loPI   C5A 1563   1.458   8.058   8.704  0.0769 -0.2867 -0.1233
   98loPI   C6A 1564   1.739   8.174   8.341 -0.0881 -0.0854 -0.0412
   98loPI   C1B 1565   1.094   7.506   9.973 -0.3599  0.2294 -0.0391
   98loPI   C2B 1566   1.193   7.273   9.633 -0.0961 -0.0351 -0.1876
   98loPI   C3B 1567   1.444   6.937   9.370 -0.3174 -0.3394  0.4832
   98loPI   C4B 1568   1.360   6.496   9.190 -0.1572  0.0710 -0.1475
   99loPI    C1 1569   0.737   7.216  10.895 -0.4151  0.1363  0.0086
   99loPI    C2 1570   0.603   7.134  11.263 -0.3915  0.1171  0.0130
   99loPI    C3 1571   0.502   6.898  10.957 -0.2728  0.0359  0.0360
   99loPI   PO4 1572   0.723   7.439  10.829 -0.0832 -0.0800 -0.0447
   99loPI   GL1 1573   0.433   7.641  10.498  0.0083  0.1569 -0.1129
   99loPI   GL2 1574   0.440   7.336  10.320 -0.2127 -0.0253  0.0081
   99loPI   C1A 1575   0.305   7.842  10.015 -0.2065  0.0255  0.0676
   99loPI   C2A 1576   0.266   7.731   9.550  0.2162 -0.3673 -0.0287
   99loPI   C3A 1577   0.399   7.569   9.169 -0.1694 -0.2713 -0.1981
   99loPI   C4A 1578   0.689   7.343   8.846  0.0015 -0.0223  0.0761
   99loPI   C5A 1579   0.775   7.199   8.424  0.0703 -0.0281  0.3913
   99loPI   C6A 1580   0.968   7.340   8.094  0.0115 -0.1220 -0.3546
   99loPI   C1B 1581   0.617   7.325   9.955 -0.0693 -0.2212 -0.0055
   99loPI   C2B 1582   0.702   7.382   9.483  0.1328 -0.1526 -0.1407
   99loPI   C3B 1583   1.084   7.433   9.185  0.1051  0.0334  0.3196
   99loPI   C4B 1584   1.129   7.490   8.692  0.0631 -0.1864 -0.1810
  100loPI    C1 1585   4.755  11.341  10.771  0.1259 -0.0063  0.0858
  100loPI    C2 1586   4.464  11.512  10.987  0.2924  0.1218  0.2118
  100loPI    C3 1587   4.611  11.155  11.095  0.1072  0.0051  0.0841
  100loPI   PO4 1588   4.699  11.396  10.551 -0.0301 -0.1591  0.0876
  100loPI   GL1 1589   4.854  11.643  10.169 -0.1860  0.0591  0.2984
  100loPI   GL2 1590   5.050  11.818  10.255 -0.2996 -0.1070  0.3995
  100loPI   C1A 1591   5.041  11.762   9.797 -0.2810  0.1255  0.2756
  100loPI   C2A 1592   5.110  11.645   9.470  0.1243  0.2962 -0.1356
  100loPI   C3A 1593   4.907  11.737   9.146 -0.2717 -0.0860 -0.0694
  100loPI   C4A 1594   5.031  11.893   8.787  0.1653  0.3161  0.1007
  100loPI   C5A 1595   4.845  11.797   8.490 -0.0195  0.1729  0.1557
  100loPI   C6A 1596   4.768  11.974   8.165  0.0425 -0.0357 -0.0607
  100loPI   C1B 1597   5.502  11.799  10.126 -0.0731 -0.0207 -0.4643
  100loPI   C2B 1598   5.516  11.926   9.780  0.0317 -0.5061  0.0120
  100loPI   C3B 1599   5.550  11.880   9.379  0.2185  0.2405 -0.0819
  100loPI   C4B 1600   5.420  11.799   9.026 -0.0777 -0.1553  0.4166
  101loPI    C1 1601   0.682   9.892  10.947  0.3984  0.1906 -0.0359
  101loPI    C2 1602   0.963   9.634  10.828  0.0105 -0.1693 -0.1994
  101loPI    C3 1603   0.699   9.526  11.108  0.1383  0.2285  0.0833
  101loPI   PO4 1604   0.616   9.990  10.711  0.0923 -0.3631 -0.0884
  101loPI   GL1 1605   0.538   9.830  10.264 -0.2432  0.1086  0.3065
  101loPI   GL2 1606   0.841   9.754  10.318  0.1704 -0.0445  0.0259
  101loPI   C1A 1607   0.333   9.717   9.909 -0.0495 -0.1350  0.1666
  101loPI   C2A 1608   0.250   9.755   9.415 -0.1706 -0.0849  0.0009
  101loPI   C3A 1609   0.197   9.694   9.001  0.2219  0.1614 -0.2306
  101loPI   C4A 1610   0.197   9.280   8.699  0.2793  0.2345  0.0284
  101loPI   C5A 1611  -0.118   8.871   8.485 -0.1447 -0.0485  0.0871
  101loPI   C6A 1612  -0.321   8.544   8.235 -0.3078 -0.0157  0.1101
  101loPI   C1B 1613   0.862   9.599   9.988 -0.0530  0.3411  0.0544
  101loPI   C2B 1614   0.694   9.584   9.563  0.1764  0.1258  0.3954
  101loPI   C3B 1615   0.677   9.586   9.157  0.4841 -0.1405  0.1432
  101loPI   C4B 1616   0.655   9.594   8.732 -0.0927 -0.0345  0.1097
  102loPI    C1 1617  16.289   0.629  10.817 -0.2276  0.3698  0.0309
  102loPI    C2 1618  16.517   0.869  11.041 -0.1042  0.1748  0.1166
  102loPI    C3 1619  16.405   0.512  11.181 -0.1331  0.1046 -0.0817
  102loPI   PO4 1620  16.425   0.628  10.574  0.1376  0.0688  0.0154
  102loPI   GL1 1621  16.665   0.825  10.248  0.2599 -0.0246  0.1419
  102loPI   GL2 1622  16.474   0.564  10.102 -0.1285 -0.0529  0.3154
  102loPI   C1A 1623  16.890   0.712   9.887 -0.1548  0.0448 -0.0042
  102loPI   C2A 1624  16.971   0.788   9.482  0.3579  0.2864 -0.0650
  102loPI   C3A 1625  17.114   0.818   9.122 -0.0907  0.1322 -0.1365
  102loPI   C4A 1626  17.040   0.761   8.724  0.4287  0.1565 -0.1997
  102loPI   C5A 1627  16.831   0.764   8.281 -0.0922  0.0135  0.0386
  102loPI   C6A 1628  16.498   0.502   8.128 -0.1336  0.1213  0.0967
  102loPI   C1B 1629  16.510   0.554   9.602 -0.0188  0.1123 -0.0952
  102loPI   C2B 1630  16.608   0.775   9.123 -0.0243  0.1322  0.0767
  102loPI   C3B 1631  16.564   0.911   8.705  0.0654 -0.0218 -0.0193
  102loPI   C4B 1632  16.440   1.039   8.181 -0.2936  0.1766 -0.3383
  103loPI    C1 1633   5.117   1.456  10.770 -0.0875  0.1477 -0.3922
  103loPI    C2 1634   5.268   1.109  10.641 -0.2607 -0.2317  0.3673
  103loPI    C3 1635   4.877   1.185  10.599 -0.2022 -0.0680  0.0936
  103loPI   PO4 1636   5.277   1.699  10.718  0.1565 -0.0655  0.1145
  103loPI   GL1 1637   5.121   1.704  10.291 -0.1426 -0.2098 -0.0534
  103loPI   GL2 1638   4.825   1.739  10.441 -0.0602  0.0340  0.2184
  103loPI   C1A 1639   5.124   1.708   9.791  0.0782  0.2253 -0.0384
  103loPI   C2A 1640   5.213   1.798   9.378 -0.1021  0.3155  0.0154
  103loPI   C3A 1641   5.289   1.729   8.909  0.0814  0.0770 -0.0658
  103loPI   C4A 1642   5.331   1.296   8.622  0.0200 -0.3051 -0.2650
  103loPI   C5A 1643   5.710   1.200   8.504  0.2850 -0.0661  0.1402
  103loPI   C6A 1644   5.939   0.968   8.730  0.2668  0.1013  0.1020
  103loPI   C1B 1645   4.768   1.940  10.042 -0.0204  0.2212 -0.0806
  103loPI   C2B 1646   4.698   2.013   9.584  0.0173  0.1069 -0.1472
  103loPI   C3B 1647   4.818   1.998   9.192  0.0865  0.1493  0.1844
  103loPI   C4B 1648   4.939   2.045   8.695 -0.1184 -0.0401  0.1882
  104loPI    C1 1649   2.115  10.351  10.918 -0.0431  0.0291 -0.1639
  104loPI    C2 1650   2.502  10.446  10.958 -0.1107  0.1701  0.1979
  104loPI    C3 1651   2.355  10.124  11.144 -0.0770 -0.1437 -0.2994
  104loPI   PO4 1652   2.051  10.516  10.665 -0.0274  0.1937  0.0565
  104loPI   GL1 1653   2.272  10.332  10.320 -0.2087 -0.0342 -0.1132
  104loPI   GL2 1654   2.512  10.166  10.290 -0.0123  0.1133  0.0389
  104loPI   C1A 1655   2.262  10.282   9.752  0.0919  0.0017 -0.1579
  104loPI   C2A 1656   1.992  10.364   9.449 -0.0171  0.0441 -0.0475
  104loPI   C3A 1657   2.176  10.381   9.060  0.1029  0.2809 -0.1522
  104loPI   C4A 1658   2.527  10.222   8.840  0.4410 -0.1205 -0.1594
  104loPI   C5A 1659   2.898  10.163   8.903 -0.0425  0.2049  0.0965
  104loPI   C6A 1660   3.360  10.339   9.012 -0.2571  0.0397 -0.1027
  104loPI   C1B 1661   2.737  10.407   9.940  0.0609  0.1933 -0.1446
  104loPI   C2B 1662   2.777  10.783  10.011 -0.0842 -0.1709 -0.0162
  104loPI   C3B 1663   2.584  11.104  10.139 -0.1051  0.3290  0.1867
  104loPI   C4B 1664   2.348  11.319  10.161  0.0285 -0.0355 -0.2107
  105loPI    C1 1665  14.058  14.351  10.874  0.0762 -0.0187  0.3097
  105loPI    C2 1666  13.659  14.365  10.906  0.0493  0.0018 -0.0000
  105loPI    C3 1667  13.883  14.658  11.061 -0.0577  0.0119  0.1374
  105loPI   PO4 1668  14.050  14.266  10.534 -0.1451 -0.0380  0.0750
  105loPI   GL1 1669  14.036  14.046  10.141  0.1592 -0.2927 -0.0613
  105loPI   GL2 1670  13.996  13.749  10.221  0.2712  0.0636 -0.1894
  105loPI   C1A 1671  13.832  14.092   9.753  0.0720  0.1317 -0.2701
  105loPI   C2A 1672  13.651  14.316   9.379 -0.2392  0.2915 -0.0037
  105loPI   C3A 1673  13.790  14.372   8.888 -0.0784 -0.2501 -0.0353
  105loPI   C4A 1674  14.005  14.608   8.562  0.3954 -0.1564  0.2806
  105loPI   C5A 1675  13.908  14.630   8.111 -0.0735  0.2887  0.1429
  105loPI   C6A 1676  14.087  14.599   7.793 -0.2218  0.0182 -0.0739
  105loPI   C1B 1677  14.323  13.684   9.946  0.0269  0.2207  0.0633
  105loPI   C2B 1678  14.542  13.568   9.580  0.2188 -0.2147 -0.0246
  105loPI   C3B 1679  14.391  13.759   9.173  0.1628  0.0485 -0.1587
  105loPI   C4B 1680  14.242  13.802   8.808 -0.1889 -0.3190  0.2328
  106loPI    C1 1681   4.955   0.631  10.988  0.1976 -0.2592  0.0360
  106loPI    C2 1682   4.867   0.250  10.901  0.0508 -0.2075 -0.0446
  106loPI    C3 1683   4.859   0.376  11.281 -0.0513 -0.2474 -0.0332
  106loPI   PO4 1684   5.031   0.694  10.678  0.1858 -0.1764 -0.2415
  106loPI   GL1 1685   5.237   0.363  10.431 -0.0385 -0.0730  0.0726
  106loPI   GL2 1686   5.482   0.603  10.400  0.0221 -0.1946  0.1993
  106loPI   C1A 1687   5.167   0.398   9.969  0.0027  0.0715  0.1265
  106loPI   C2A 1688   4.941   0.373   9.733 -0.0744  0.0459 -0.2296
  106loPI   C3A 1689   4.873   0.300   9.306 -0.0318  0.2566 -0.2432
  106loPI   C4A 1690   4.818   0.079   8.905 -0.0619  0.0657 -0.3251
  106loPI   C5A 1691   4.853  -0.204   8.514 -0.1495  0.0276 -0.0549
  106loPI   C6A 1692   4.700  -0.651   8.407 -0.1156  0.2921 -0.0707
  106loPI   C1B 1693   5.484   0.821   9.967 -0.3020  0.0507  0.1534
  106loPI   C2B 1694   5.308   0.828   9.584  0.0194 -0.0409 -0.0378
  106loPI   C3B 1695   5.145   0.754   9.280 -0.2216  0.0437  0.1602
  106loPI   C4B 1696   5.136   0.702   8.850 -0.1622 -0.0586 -0.1054
  107loPI    C1 1697   1.676   3.486  10.851 -0.0845  0.0543 -0.1334
  107loPI    C2 1698   1.496   3.427  11.203 -0.1093 -0.0419 -0.1621
  107loPI    C3 1699   1.884   3.339  11.159 -0.0718  0.0996 -0.1203
  107loPI   PO4 1700   1.561   3.376  10.689 -0.2973 -0.0955 -0.0197
  107loPI   GL1 1701   1.774   3.416  10.318  0.1189  0.2635 -0.4045
  107loPI   GL2 1702   1.650   3.106  10.203 -0.0778  0.0919 -0.1609
  107loPI   C1A 1703   1.673   3.728  10.005 -0.1373  0.3155  0.0684
  107loPI   C2A 1704   1.527   3.806   9.606 -0.0485  0.0102 -0.3881
  107loPI   C3A 1705   1.417   3.812   9.170 -0.2154  0.2067 -0.5152
  107loPI   C4A 1706   1.269   3.969   8.777  0.1688 -0.2892 -0.1372
  107loPI   C5A 1707   0.935   3.975   8.454 -0.0142 -0.0363  0.0022
  107loPI   C6A 1708   0.467   3.813   8.445  0.4395 -0.2267  0.1615
  107loPI   C1B 1709   1.681   3.289   9.772  0.0842 -0.0250 -0.0584
  107loPI   C2B 1710   1.593   3.380   9.322 -0.0785 -0.0453 -0.1324
  107loPI   C3B 1711   1.435   3.305   8.894 -0.1863 -0.2430 -0.2536
  107loPI   C4B 1712   1.321   3.539   8.494 -0.0470  0.2650 -0.1628
  108loPI    C1 1713   1.480   6.384  10.940  0.2645  0.0673 -0.1665
  108loPI    C2 1714   1.400   6.441  11.328 -0.0837 -0.0858 -0.2113
  108loPI    C3 1715   1.778   6.387  11.207  0.0113 -0.2113  0.1288
  108loPI   PO4 1716   1.381   6.269  10.726 -0.0341  0.1381 -0.2520
  108loPI   GL1 1717   1.566   6.288  10.308  0.1864  0.2167 -0.1837
  108loPI   GL2 1718   1.895   6.441  10.234 -0.1099  0.2677 -0.1023
  108loPI   C1A 1719   1.340   6.286   9.958 -0.2244 -0.0964  0.2088
  108loPI   C2A 1720   1.145   6.557   9.661  0.1679  0.0140  0.1731
  108loPI   C3A 1721   0.851   6.483   9.234 -0.0756  0.2096 -0.1828
  108loPI   C4A 1722   0.938   6.521   8.810  0.2000 -0.0110  0.0711
  108loPI   C5A 1723   0.831   6.684   8.388 -0.0306  0.0351 -0.2073
  108loPI   C6A 1724   0.841   6.844   7.981  0.1241 -0.0137 -0.1071
  108loPI   C1B 1725   1.972   6.141   9.796  0.3131 -0.1039 -0.1899
  108loPI   C2B 1726   2.387   5.960   9.478 -0.0365 -0.0444 -0.1713
  108loPI   C3B 1727   2.600   6.095   9.020 -0.0333 -0.1368 -0.1821
  108loPI   C4B 1728   2.633   6.084   8.609  0.0137  0.0973 -0.1825
  109loPI    C1 1729  10.520   0.896  11.346  0.0204  0.0364  0.1689
  109loPI    C2 1730  10.745   0.568  11.389 -0.0206 -0.0465 -0.2134
  109loPI    C3 1731  10.378   0.582  11.549 -0.0005 -0.1681 -0.1552
  109loPI   PO4 1732  10.404   1.024  11.026 -0.0595 -0.2041 -0.2516
  109loPI   GL1 1733  10.378   1.070  10.580  0.1579  0.3719  0.0589
  109loPI   GL2 1734  10.277   0.698  10.549 -0.0651 -0.2670 -0.0399
  109loPI   C1A 1735  10.363   1.076  10.207 -0.0338 -0.3249  0.1151
  109loPI   C2A 1736  10.244   0.983   9.745  0.0785  0.1185  0.1727
  109loPI   C3A 1737  10.131   1.134   9.244  0.1594  0.2370 -0.3335
  109loPI   C4A 1738  10.115   1.013   8.763 -0.1362 -0.2985  0.1643
  109loPI   C5A 1739   9.963   0.745   8.472 -0.2245  0.0205  0.1603
  109loPI   C6A 1740   9.750   0.365   8.309 -0.1146 -0.1954 -0.0975
  109loPI   C1B 1741  10.192   0.578  10.032 -0.0519  0.3521  0.2311
  109loPI   C2B 1742   9.887   0.385   9.737 -0.1588  0.1280  0.1244
  109loPI   C3B 1743   9.699   0.220   9.450  0.1338 -0.1063 -0.1736
  109loPI   C4B 1744   9.771  -0.120   9.160 -0.2755 -0.4501 -0.2432
  110loPI    C1 1745   2.463   7.519  10.611  0.0917  0.0242 -0.0269
  110loPI    C2 1746   2.353   7.230  10.358  0.2218 -0.0314 -0.0206
  110loPI    C3 1747   2.099   7.526  10.445  0.1913  0.0112 -0.2489
  110loPI   PO4 1748   2.778   7.612  10.485  0.3028  0.1816  0.1533
  110loPI   GL1 1749   2.851   7.767  10.137  0.1064 -0.0332  0.0706
  110loPI   GL2 1750   2.737   8.023  10.033  0.0236  0.1473 -0.2916
  110loPI   C1A 1751   2.907   7.690   9.668  0.1483 -0.0447  0.0259
  110loPI   C2A 1752   2.947   7.663   9.208 -0.0732 -0.0468 -0.0163
  110loPI   C3A 1753   3.190   7.461   8.957  0.1157 -0.3409  0.2759
  110loPI   C4A 1754   3.379   7.202   8.627  0.0726  0.2921 -0.1087
  110loPI   C5A 1755   3.465   7.135   8.187 -0.2190  0.1387 -0.1589
  110loPI   C6A 1756   3.490   6.808   7.879 -0.1492  0.2771  0.1046
  110loPI   C1B 1757   2.545   8.045   9.646  0.0640  0.0052 -0.3669
  110loPI   C2B 1758   2.418   7.703   9.370  0.0521  0.0556 -0.0910
  110loPI   C3B 1759   2.552   7.373   9.110 -0.1727 -0.1807  0.0662
  110loPI   C4B 1760   2.863   7.043   9.084 -0.1036 -0.1775 -0.0098
  111loPI    C1 1761   9.928  11.574  11.060  0.0476  0.3128  0.0601
  111loPI    C2 1762  10.039  11.798  11.373  0.2192  0.1193  0.1402
  111loPI    C3 1763   9.980  11.405  11.419 -0.0478  0.1395 -0.0067
  111loPI   PO4 1764   9.760  11.688  10.898  0.0660  0.1087  0.2636
  111loPI   GL1 1765   9.590  11.495  10.608  0.2898 -0.0238  0.0334
  111loPI   GL2 1766   9.571  11.119  10.550 -0.1684  0.1152  0.0267
  111loPI   C1A 1767   9.328  11.585  10.371  0.0304 -0.2210  0.2719
  111loPI   C2A 1768   9.143  11.744   9.962  0.1681 -0.3807  0.2831
  111loPI   C3A 1769   9.175  11.882   9.483 -0.1586 -0.1423 -0.1514
  111loPI   C4A 1770   9.187  11.911   9.135  0.0795 -0.0354 -0.2587
  111loPI   C5A 1771   9.245  11.750   8.737 -0.1987 -0.0978  0.1831
  111loPI   C6A 1772   9.207  11.433   8.351 -0.0482 -0.0552 -0.0125
  111loPI   C1B 1773   9.478  10.946  10.176 -0.1672  0.0485  0.0596
  111loPI   C2B 1774   9.539  10.914   9.743  0.0406 -0.0548 -0.1193
  111loPI   C3B 1775   9.582  11.055   9.233  0.1221  0.2120  0.0956
  111loPI   C4B 1776   9.594  11.254   8.725 -0.0109  0.0128 -0.2043
  112loPI    C1 1777  17.313   3.909  10.925  0.1838 -0.1148 -0.0710
  112loPI    C2 1778  17.640   3.730  11.071  0.1789  0.0204  0.1106
  112loPI    C3 1779  17.300   3.727  11.281  0.0796 -0.0641 -0.0487
  112loPI   PO4 1780  17.360   3.919  10.702  0.0044 -0.0252  0.0531
  112loPI   GL1 1781  17.363   3.681  10.335  0.0322 -0.0324  0.1536
  112loPI   GL2 1782  17.668   3.572  10.241  0.0689  0.1908 -0.1585
  112loPI   C1A 1783  17.189   3.674   9.921  0.0797  0.0758 -0.0761
  112loPI   C2A 1784  17.346   3.565   9.500  0.0249 -0.1427  0.0537
  112loPI   C3A 1785  17.268   3.666   9.182 -0.0080 -0.1962 -0.1810
  112loPI   C4A 1786  17.269   3.460   8.835  0.1170  0.0999 -0.0087
  112loPI   C5A 1787  17.147   3.599   8.345 -0.0386 -0.1645  0.1312
  112loPI   C6A 1788  17.213   3.544   7.886 -0.0692  0.2298 -0.2696
  112loPI   C1B 1789  17.665   3.808   9.966  0.0731 -0.0717  0.1455
  112loPI   C2B 1790  17.656   3.920   9.548  0.1694  0.2461 -0.3013
  112loPI   C3B 1791  17.603   4.067   9.145 -0.1430 -0.0664  0.3265
  112loPI   C4B 1792  17.464   3.938   8.752  0.0674  0.0611  0.0236
  113loPI    C1 1793  12.268  14.288  10.845  0.0746 -0.2029 -0.1192
  113loPI    C2 1794  11.883  14.216  10.925  0.0924 -0.1307  0.0350
  113loPI    C3 1795  12.157  13.930  10.983  0.1173 -0.0522  0.3243
  113loPI   PO4 1796  12.229  14.475  10.616 -0.0954 -0.2054 -0.2039
  113loPI   GL1 1797  12.227  14.428  10.247 -0.0776  0.0658  0.3369
  113loPI   GL2 1798  12.437  14.124  10.042 -0.0608 -0.1575  0.0414
  113loPI   C1A 1799  11.985  14.190   9.936  0.3205  0.0427 -0.1051
  113loPI   C2A 1800  11.736  14.264   9.629  0.1982  0.0603  0.1739
  113loPI   C3A 1801  11.888  14.220   9.310 -0.0193 -0.1514 -0.3250
  113loPI   C4A 1802  11.964  14.194   8.830  0.0817  0.2503  0.0455
  113loPI   C5A 1803  11.995  14.088   8.399 -0.1314 -0.1977 -0.2595
  113loPI   C6A 1804  12.175  13.790   8.182  0.1705  0.0095  0.0773
  113loPI   C1B 1805  12.793  14.400   9.882  0.0081 -0.0563  0.0406
  113loPI   C2B 1806  12.888  14.455   9.525 -0.0201  0.1429  0.1296
  113loPI   C3B 1807  12.858  14.455   9.065 -0.0802  0.0586  0.0291
  113loPI   C4B 1808  12.802  14.365   8.661  0.0403  0.1615  0.1294
  114loPI    C1 1809   3.206   2.202  10.847 -0.1902  0.2853 -0.0218
  114loPI    C2 1810   3.357   2.417  11.148 -0.1030  0.0951  0.0723
  114loPI    C3 1811   3.023   2.204  11.203  0.0768 -0.1777  0.1275
  114loPI   PO4 1812   3.239   2.408  10.644 -0.2960  0.3012 -0.0732
  114loPI   GL1 1813   3.174   2.368  10.187  0.2041  0.1682  0.1122
  114loPI   GL2 1814   2.996   2.075  10.198  0.1228  0.3155  0.0154
  114loPI   C1A 1815   3.557   2.206   9.966  0.1219  0.0930  0.0201
  114loPI   C2A 1816   3.755   1.970   9.601 -0.0204  0.1333  0.1176
  114loPI   C3A 1817   3.715   2.008   9.155  0.1338  0.1000  0.3095
  114loPI   C4A 1818   3.588   2.134   8.856  0.0708 -0.0978  0.0218
  114loPI   C5A 1819   3.223   2.228   8.554 -0.3112 -0.0321  0.4340
  114loPI   C6A 1820   2.832   2.122   8.358 -0.1874 -0.3794  0.1326
  114loPI   C1B 1821   2.824   1.778   9.973 -0.2640  0.3312  0.1444
  114loPI   C2B 1822   2.849   1.394   9.578  0.1567 -0.1837 -0.1021
  114loPI   C3B 1823   2.873   1.379   9.161 -0.1319 -0.0787  0.3719
  114loPI   C4B 1824   2.817   1.600   8.942  0.0309  0.0758 -0.1441
  115loPI    C1 1825   3.864  10.893  10.404 -0.0710  0.0928 -0.3799
  115loPI    C2 1826   3.708  11.258  10.356 -0.2553  0.0774  0.0563
  115loPI    C3 1827   3.478  10.935  10.311 -0.1921  0.0299  0.0727
  115loPI   PO4 1828   4.128  10.879  10.415  0.0084 -0.2545  0.0111
  115loPI   GL1 1829   4.150  10.567  10.111 -0.0986  0.0422 -0.0316
  115loPI   GL2 1830   4.458  10.530  10.119  0.0832  0.2973 -0.1875
  115loPI   C1A 1831   4.080  10.543   9.607 -0.1582 -0.4985  0.0561
  115loPI   C2A 1832   3.956  10.891   9.460  0.1301 -0.0737 -0.1652
  115loPI   C3A 1833   4.076  11.093   9.027 -0.3721  0.1370 -0.1972
  115loPI   C4A 1834   4.029  10.941   8.670 -0.1894 -0.0640  0.0373
  115loPI   C5A 1835   4.205  10.923   8.356 -0.2023  0.0522 -0.0138
  115loPI   C6A 1836   4.547  11.201   8.265  0.3255 -0.1237 -0.1850
  115loPI   C1B 1837   4.529  10.416   9.776  0.0109  0.0148  0.1590
  115loPI   C2B 1838   4.581  10.406   9.385 -0.4053 -0.2688 -0.2190
  115loPI   C3B 1839   4.606  10.125   9.054 -0.1370  0.4137 -0.2720
  115loPI   C4B 1840   4.570  10.136   8.534 -0.1734  0.0693  0.2306
  116loPI    C1 1841  16.985  14.043  10.439  0.1571  0.0771 -0.1636
  116loPI    C2 1842  16.910  13.800  10.131 -0.1576 -0.1270  0.0676
  116loPI    C3 1843  17.017  13.647  10.484 -0.1869  0.0810  0.1679
  116loPI   PO4 1844  16.755  14.217  10.347 -0.0316  0.0514 -0.4618
  116loPI   GL1 1845  16.522  14.168  10.029 -0.1668  0.1346  0.3895
  116loPI   GL2 1846  16.816  14.225   9.823 -0.0408  0.0688  0.0569
  116loPI   C1A 1847  16.378  14.214   9.589  0.0677 -0.4117 -0.2285
  116loPI   C2A 1848  16.235  14.252   9.138  0.1204 -0.0482  0.0179
  116loPI   C3A 1849  16.112  14.376   8.655 -0.2565  0.2167 -0.0224
  116loPI   C4A 1850  15.858  14.540   8.332 -0.1881  0.2765 -0.2400
  116loPI   C5A 1851  16.079  14.604   7.880 -0.0743  0.1688 -0.0369
  116loPI   C6A 1852  16.292  14.187   7.701  0.0486 -0.0201  0.2408
  116loPI   C1B 1853  16.846  14.227   9.416 -0.2129  0.3195 -0.3414
  116loPI   C2B 1854  16.802  14.304   8.969  0.2326  0.2089  0.1555
  116loPI   C3B 1855  16.681  14.177   8.570 -0.0199  0.1490  0.0108
  116loPI   C4B 1856  16.499  14.052   8.171  0.2249  0.1273  0.1148
  117loPI    C1 1857  13.346   3.209  10.870  0.0583  0.0813  0.2628
  117loPI    C2 1858  13.106   3.481  10.702  0.2105  0.0167 -0.0667
  117loPI    C3 1859  13.048   3.371  11.082 -0.1248  0.1835 -0.0658
  117loPI   PO4 1860  13.456   3.041  10.661 -0.2605 -0.0331 -0.5545
  117loPI   GL1 1861  13.451   2.877  10.255  0.1265  0.1639  0.0976
  117loPI   GL2 1862  13.140   2.898  10.292 -0.1254  0.1266  0.0094
  117loPI   C1A 1863  13.542   2.837   9.818 -0.0017  0.2630 -0.0605
  117loPI   C2A 1864  13.577   2.844   9.407 -0.1001  0.1134 -0.0456
  117loPI   C3A 1865  13.391   2.805   9.031  0.0854  0.2420  0.0112
  117loPI   C4A 1866  13.197   2.451   8.893  0.1639 -0.2298 -0.0953
  117loPI   C5A 1867  13.380   2.050   8.721 -0.1278  0.3180 -0.1469
  117loPI   C6A 1868  13.294   1.606   8.635  0.0747  0.2268 -0.1936
  117loPI   C1B 1869  13.003   2.834   9.870  0.1415 -0.3865 -0.1704
  117loPI   C2B 1870  13.034   2.814   9.372  0.1310 -0.1203 -0.1010
  117loPI   C3B 1871  12.851   2.857   8.935 -0.0114 -0.3213 -0.1409
  117loPI   C4B 1872  12.518   2.931   8.692  0.2656 -0.2824  0.0331
  118loPI    C1 1873   3.735   0.808  11.149 -0.0658  0.0062  0.0919
  118loPI    C2 1874   3.882   0.494  10.949  0.0447  0.1654 -0.0800
  118loPI    C3 1875   3.841   0.477  11.347 -0.2209 -0.1714 -0.1174
  118loPI   PO4 1876   3.631   0.997  10.909  0.1815  0.2298  0.2789
  118loPI   GL1 1877   3.710   0.964  10.525  0.3647 -0.2214 -0.1446
  118loPI   GL2 1878   3.843   0.748  10.505 -0.4000  0.0368 -0.1398
  118loPI   C1A 1879   3.660   1.074  10.060 -0.0338 -0.0614  0.2227
  118loPI   C2A 1880   3.779   1.029   9.678  0.1218 -0.1616 -0.0417
  118loPI   C3A 1881   3.834   0.976   9.220 -0.1347 -0.3388  0.4270
  118loPI   C4A 1882   3.807   0.880   8.776 -0.1519  0.0628  0.0468
  118loPI   C5A 1883   3.700   1.126   8.410  0.1591  0.0767  0.1042
  118loPI   C6A 1884   3.495   1.326   8.102  0.2440 -0.0524 -0.2672
  118loPI   C1B 1885   3.879   0.592  10.117 -0.0730 -0.0689 -0.1766
  118loPI   C2B 1886   3.952   0.408   9.774  0.0600 -0.1390  0.2542
  118loPI   C3B 1887   3.879   0.417   9.303 -0.0231  0.0783  0.1268
  118loPI   C4B 1888   3.905   0.408   8.845 -0.3948  0.1484  0.1346
  119loPI    C1 1889  14.523  15.124  10.744  0.0560  0.0444  0.0705
  119loPI    C2 1890  14.279  14.813  10.681  0.1705 -0.0320 -0.0013
  119loPI    C3 1891  14.226  15.048  11.001  0.0806 -0.1227  0.0508
  119loPI   PO4 1892  14.597  15.198  10.510  0.0298  0.0187  0.1894
  119loPI   GL1 1893  14.826  14.919  10.240  0.1572 -0.0293  0.2786
  119loPI   GL2 1894  14.529  14.774  10.273 -0.0361  0.0015  0.0931
  119loPI   C1A 1895  14.791  14.812   9.816 -0.0689 -0.0804  0.1701
  119loPI   C2A 1896  14.761  14.688   9.384 -0.2142 -0.0540  0.0515
  119loPI   C3A 1897  14.604  14.721   8.990 -0.2706 -0.3653  0.0267
  119loPI   C4A 1898  14.491  14.834   8.626 -0.1788 -0.1369  0.0361
  119loPI   C5A 1899  14.339  14.881   8.159  0.4494 -0.0785  0.0670
  119loPI   C6A 1900  14.584  14.838   7.783  0.1744  0.0152 -0.0969
  119loPI   C1B 1901  14.385  14.998   9.976  0.1525 -0.1562 -0.1050
  119loPI   C2B 1902  14.282  14.820   9.558  0.1026 -0.0120  0.1691
  119loPI   C3B 1903  14.313  14.412   9.373  0.0017 -0.1751  0.1277
  119loPI   C4B 1904  14.011  14.056   9.202  0.0106  0.0331  0.3123
  120loPI    C1 1905   1.922  12.258  10.591 -0.0538  0.1753  0.0209
  120loPI    C2 1906   1.838  11.893  10.731  0.0728  0.0721 -0.1673
  120loPI    C3 1907   2.151  12.096  10.876 -0.0569  0.1496  0.0086
  120loPI   PO4 1908   1.889  12.285  10.330  0.1511 -0.0755  0.1036
  120loPI   GL1 1909   1.752  12.464   9.996  0.2508 -0.0676  0.2544
  120loPI   GL2 1910   1.783  12.806   9.922  0.0987 -0.3366  0.1361
  120loPI   C1A 1911   1.798  12.340   9.608 -0.0790 -0.1853  0.1765
  120loPI   C2A 1912   1.991  12.276   9.270  0.1488  0.1449 -0.1858
  120loPI   C3A 1913   2.219  11.952   9.228 -0.0332 -0.1351 -0.1037
  120loPI   C4A 1914   2.303  11.586   9.259 -0.4080  0.1596 -0.1004
  120loPI   C5A 1915   2.319  11.206   9.164 -0.1316 -0.0000 -0.0300
  120loPI   C6A 1916   2.055  10.833   9.216 -0.0851  0.0251  0.2605
  120loPI   C1B 1917   1.673  12.832   9.503  0.0693 -0.1186 -0.1569
  120loPI   C2B 1918   1.545  12.962   9.062  0.1416  0.0752  0.1467
  120loPI   C3B 1919   1.465  13.034   8.642 -0.0485  0.1946 -0.0411
  120loPI   C4B 1920   1.548  13.207   8.211 -0.1209 -0.0247  0.0188
  121loPI    C1 1921  14.066   7.982  10.713  0.1218 -0.1226  0.0246
  121loPI    C2 1922  13.938   7.945  11.090 -0.0073  0.1210  0.0063
  121loPI    C3 1923  14.186   7.672  10.936  0.0301  0.0088  0.2602
  121loPI   PO4 1924  14.019   8.286  10.685 -0.0100 -0.2304  0.0701
  121loPI   GL1 1925  13.850   8.642  10.455  0.0919  0.2387 -0.0402
  121loPI   GL2 1926  13.982   8.412  10.205 -0.1429  0.2292 -0.0259
  121loPI   C1A 1927  13.673   8.746  10.036  0.2052  0.0744 -0.1940
  121loPI   C2A 1928  13.684   8.762   9.596 -0.0900 -0.0586 -0.0559
  121loPI   C3A 1929  13.353   8.729   9.220  0.2051 -0.0098 -0.2450
  121loPI   C4A 1930  13.287   8.668   8.808 -0.0223  0.1176 -0.1140
  121loPI   C5A 1931  13.451   8.517   8.487  0.1147 -0.0213 -0.1357
  121loPI   C6A 1932  13.592   8.461   8.160 -0.4576  0.0399 -0.0694
  121loPI   C1B 1933  14.089   8.485   9.796  0.1320 -0.2828  0.0899
  121loPI   C2B 1934  14.150   8.567   9.465  0.1701 -0.1407 -0.1026
  121loPI   C3B 1935  14.107   8.685   9.000 -0.0018  0.0817 -0.0028
  121loPI   C4B 1936  13.788   8.843   8.863  0.1710 -0.2108  0.2158
  122loPI    C1 1937  17.324   1.579  11.184  0.0081 -0.1090 -0.1080
  122loPI    C2 1938  17.183   1.280  11.408 -0.1942  0.0262 -0.0520
  122loPI    C3 1939  17.196   1.651  11.556  0.1109  0.0368 -0.1000
  122loPI   PO4 1940  17.489   1.439  11.053  0.1247  0.0113  0.0903
  122loPI   GL1 1941  17.578   1.527  10.637  0.0181  0.0035 -0.0799
  122loPI   GL2 1942  17.837   1.657  10.392  0.1652  0.1839  0.0268
  122loPI   C1A 1943  17.386   1.466  10.250 -0.5251  0.0397 -0.0115
  122loPI   C2A 1944  17.576   1.526   9.855 -0.3439  0.3214 -0.0711
  122loPI   C3A 1945  17.637   1.625   9.322  0.1809  0.2965 -0.0179
  122loPI   C4A 1946  17.694   1.660   8.982  0.0594  0.3490 -0.2000
  122loPI   C5A 1947  17.708   1.566   8.587 -0.1693 -0.0267 -0.3292
  122loPI   C6A 1948  18.053   1.500   8.265  0.2197 -0.3311  0.0972
  122loPI   C1B 1949  18.073   1.536  10.023  0.2735  0.0317  0.0914
  122loPI   C2B 1950  18.038   1.433   9.613 -0.1682 -0.1066  0.0595
  122loPI   C3B 1951  18.139   1.519   9.275 -0.0596 -0.1343 -0.0235
  122loPI   C4B 1952  18.197   1.678   8.895  0.0157 -0.3647 -0.2593
  123loPI    C1 1953  16.056  11.309  10.376 -0.0197 -0.0567 -0.0495
  123loPI    C2 1954  15.683  11.440  10.316  0.0016  0.0643  0.0776
  123loPI    C3 1955  15.979  11.702  10.377  0.0870 -0.0354  0.0938
  123loPI   PO4 1956  16.106  11.089  10.258 -0.0779 -0.0861  0.1162
  123loPI   GL1 1957  16.057  11.033   9.813  0.0238 -0.4518  0.1688
  123loPI   GL2 1958  16.341  10.967   9.770  0.3762 -0.0129 -0.3465
  123loPI   C1A 1959  15.872  10.992   9.472 -0.2107  0.2485 -0.1943
  123loPI   C2A 1960  15.671  10.949   9.195  0.0465 -0.2434  0.0117
  123loPI   C3A 1961  15.475  10.893   8.726  0.1109 -0.2281  0.0933
  123loPI   C4A 1962  15.290  10.729   8.383  0.1170 -0.0541  0.1222
  123loPI   C5A 1963  14.885  10.595   8.294  0.2493 -0.0480  0.1131
  123loPI   C6A 1964  14.748  10.166   8.175 -0.2395  0.0516 -0.3048
  123loPI   C1B 1965  16.331  10.900   9.390 -0.3408  0.4208  0.0407
  123loPI   C2B 1966  16.140  10.973   9.073 -0.0532  0.0123  0.2191
  123loPI   C3B 1967  15.864  11.103   8.743  0.1015 -0.2232  0.0618
  123loPI   C4B 1968  15.586  11.176   8.290 -0.2065 -0.4369  0.0294
  124loPI    C1 1969   5.896  17.444  10.943 -0.0929 -0.1882 -0.1762
  124loPI    C2 1970   5.768  17.804  10.824 -0.0032 -0.1443 -0.1408
  124loPI    C3 1971   5.562  17.600  11.100  0.0318 -0.0503 -0.0441
  124loPI   PO4 1972   5.916  17.269  10.681  0.2167 -0.0139 -0.2945
  124loPI   GL1 1973   5.934  17.187  10.234 -0.0501  0.0577 -0.0490
  124loPI   GL2 1974   5.989  16.860  10.131 -0.0947  0.1578  0.1050
  124loPI   C1A 1975   5.774  17.230   9.828  0.0723  0.1182 -0.2467
  124loPI   C2A 1976   5.891  17.409   9.415  0.2293 -0.0480 -0.0790
  124loPI   C3A 1977   6.075  17.523   9.019  0.3818  0.1709 -0.2749
  124loPI   C4A 1978   6.214  17.595   8.705 -0.1143  0.0619  0.1775
  124loPI   C5A 1979   6.370  17.319   8.284  0.2204 -0.1374  0.1982
  124loPI   C6A 1980   6.741  17.384   8.026  0.0925 -0.2819 -0.2752
  124loPI   C1B 1981   6.022  16.818   9.664 -0.1290 -0.2100 -0.1096
  124loPI   C2B 1982   5.935  16.939   9.333 -0.1072  0.0347  0.3251
  124loPI   C3B 1983   5.895  17.054   8.954  0.0786  0.0964  0.1471
  124loPI   C4B 1984   6.050  17.049   8.585  0.2806  0.1470 -0.3486
  125loPI    C1 1985  13.300   4.042  10.317  0.1041  0.0434  0.0489
  125loPI    C2 1986  13.381   3.866  10.667  0.0426  0.0568  0.0701
  125loPI    C3 1987  13.018   4.019  10.600  0.0389  0.0100 -0.0183
  125loPI   PO4 1988  13.546   4.245  10.304  0.1610 -0.1920 -0.0687
  125loPI   GL1 1989  13.649   4.471   9.930  0.1928 -0.2932  0.0160
  125loPI   GL2 1990  13.865   4.758   9.890 -0.0059 -0.2652 -0.1508
  125loPI   C1A 1991  13.983   4.460   9.559  0.2257  0.0908  0.0100
  125loPI   C2A 1992  14.201   4.428   9.196 -0.0272 -0.0370  0.0093
  125loPI   C3A 1993  14.098   4.422   8.785 -0.0222 -0.1175 -0.2411
  125loPI   C4A 1994  13.715   4.101   8.659  0.0306  0.0338 -0.3713
  125loPI   C5A 1995  13.694   3.917   8.263 -0.1166 -0.0125  0.0672
  125loPI   C6A 1996  13.861   3.651   7.966 -0.0586 -0.0446  0.0694
  125loPI   C1B 1997  13.725   4.921   9.428 -0.2958  0.1205 -0.2395
  125loPI   C2B 1998  13.933   4.840   9.051 -0.2559 -0.1489  0.0401
  125loPI   C3B 1999  13.695   4.686   8.668  0.0589 -0.1332  0.0319
  125loPI   C4B 2000  13.562   4.562   8.281  0.2968 -0.2177 -0.0945
  126loPI    C1 2001  14.637   3.167  10.453  0.3131  0.2657 -0.0274
  126loPI    C2 2002  14.810   3.006  10.776 -0.0415 -0.2552 -0.0850
  126loPI    C3 2003  14.940   2.910  10.410  0.0054 -0.0912 -0.1123
  126loPI   PO4 2004  14.346   3.204  10.551  0.1029 -0.0032  0.1041
  126loPI   GL1 2005  13.936   3.162  10.247 -0.1475  0.3266 -0.0761
  126loPI   GL2 2006  14.078   2.954  10.078 -0.0953  0.1445  0.0074
  126loPI   C1A 2007  13.868   3.422   9.923 -0.3572  0.0315 -0.1368
  126loPI   C2A 2008  13.822   3.324   9.493 -0.0607  0.0114 -0.0598
  126loPI   C3A 2009  13.659   3.412   9.119 -0.0629 -0.0431 -0.0136
  126loPI   C4A 2010  13.821   3.611   8.813 -0.1115  0.1931  0.0224
  126loPI   C5A 2011  13.995   3.517   8.449 -0.0912  0.0708  0.0230
  126loPI   C6A 2012  14.353   3.517   8.246 -0.3362  0.3128 -0.1069
  126loPI   C1B 2013  14.151   2.891   9.701  0.1203 -0.1709  0.2010
  126loPI   C2B 2014  14.075   3.016   9.209 -0.0561 -0.1809  0.0045
  126loPI   C3B 2015  13.824   2.892   8.864  0.1397  0.2049 -0.3628
  126loPI   C4B 2016  13.657   3.104   8.551 -0.2601 -0.1104  0.1165
  127loPI    C1 2017  15.784   0.616  11.044  0.1570 -0.1405 -0.1811
  127loPI    C2 2018  15.756   0.273  11.248  0.0153 -0.0548 -0.0541
  127loPI    C3 2019  15.893   0.603  11.428  0.1040 -0.0321 -0.1621
  127loPI   PO4 2020  15.678   0.549  10.827  0.1108  0.2071  0.1624
  127loPI   GL1 2021  15.714   0.645  10.391 -0.1979  0.0391  0.2047
  127loPI   GL2 2022  16.031   0.535  10.277  0.1276  0.1447  0.1484
  127loPI   C1A 2023  15.724   0.798  10.033 -0.1837  0.0524 -0.2347
  127loPI   C2A 2024  16.080   0.709   9.756  0.1528 -0.0818  0.0440
  127loPI   C3A 2025  16.122   0.747   9.319 -0.2973  0.0672 -0.0429
  127loPI   C4A 2026  16.161   0.682   8.932 -0.0607  0.0736  0.1933
  127loPI   C5A 2027  16.103   0.846   8.530 -0.1741 -0.1459 -0.0467
  127loPI   C6A 2028  15.979   0.786   8.147  0.0048  0.1710 -0.1883
  127loPI   C1B 2029  15.856   0.262   9.912  0.0954  0.1145  0.2430
  127loPI   C2B 2030  15.905   0.338   9.467  0.1389  0.0875 -0.0194
  127loPI   C3B 2031  15.970   0.268   9.066 -0.0369  0.0436  0.1444
  127loPI   C4B 2032  16.110   0.283   8.628  0.0144  0.1323 -0.1044
  128loPI    C1 2033   8.788   3.005  11.071  0.0272  0.0170 -0.0507
  128loPI    C2 2034   8.751   3.240  11.393 -0.0195  0.0286 -0.0645
  128loPI    C3 2035   8.997   2.924  11.402  0.2241  0.2142 -0.1244
  128loPI   PO4 2036   8.866   3.074  10.834 -0.0620 -0.3277  0.2266
  128loPI   GL1 2037   8.765   3.251  10.392 -0.0071  0.2228 -0.0825
  128loPI   GL2 2038   8.610   3.098  10.326  0.0113 -0.0122 -0.0164
  128loPI   C1A 2039   8.869   3.450  10.040  0.0440 -0.0667 -0.1024
  128loPI   C2A 2040   8.903   3.391   9.590 -0.1473 -0.3298  0.0430
  128loPI   C3A 2041   8.809   3.115   9.233 -0.0408 -0.1204 -0.2349
  128loPI   C4A 2042   8.787   3.146   8.696 -0.1758 -0.0636 -0.0155
  128loPI   C5A 2043   8.558   2.825   8.416 -0.0217  0.2383  0.0515
  128loPI   C6A 2044   8.645   2.726   8.033 -0.2073  0.0854  0.2366
  128loPI   C1B 2045   8.706   3.008   9.875  0.0796  0.2525 -0.0136
  128loPI   C2B 2046   8.665   2.670   9.540 -0.3923 -0.0551 -0.0247
  128loPI   C3B 2047   8.534   2.592   9.194 -0.0300  0.3523 -0.1350
  128loPI   C4B 2048   8.865   2.662   8.871  0.2004 -0.0584  0.4112
  129loPI    C1 2049   3.374  11.310  10.730 -0.1677  0.0409 -0.0089
  129loPI    C2 2050   3.162  11.004  10.876 -0.0751  0.0221  0.0874
  129loPI    C3 2051   3.557  10.967  10.824 -0.1613 -0.1104 -0.5441
  129loPI   PO4 2052   3.202  11.344  10.419  0.2307  0.0236 -0.0043
  129loPI   GL1 2053   3.192  11.231  10.074  0.2063  0.0812  0.0612
  129loPI   GL2 2054   3.509  11.295   9.902 -0.1817  0.0167 -0.1712
  129loPI   C1A 2055   3.016  11.077   9.675 -0.1726 -0.1134  0.0670
  129loPI   C2A 2056   3.151  11.053   9.281  0.1767 -0.0683  0.1006
  129loPI   C3A 2057   3.235  11.250   8.891 -0.0351 -0.4868 -0.2951
  129loPI   C4A 2058   3.552  11.147   8.645 -0.0028  0.3575 -0.0626
  129loPI   C5A 2059   3.781  11.251   8.313 -0.1668  0.1471  0.2348
  129loPI   C6A 2060   4.117  11.487   8.149  0.2082 -0.3050  0.2558
  129loPI   C1B 2061   3.536  11.203   9.555 -0.1572  0.0249 -0.1315
  129loPI   C2B 2062   3.621  11.073   9.174  0.1231 -0.2833  0.0101
  129loPI   C3B 2063   3.731  10.743   9.017 -0.1007 -0.2953 -0.1120
  129loPI   C4B 2064   4.239  10.507   9.056 -0.0835 -0.0424  0.0717
  130loPI    C1 2065   4.058  11.559  10.669 -0.0217  0.2014  0.4311
  130loPI    C2 2066   4.133  11.188  10.799  0.2189  0.1456  0.1443
  130loPI    C3 2067   3.823  11.393  10.947 -0.0676 -0.2635  0.1253
  130loPI   PO4 2068   4.230  11.500  10.413  0.1049 -0.0568 -0.1543
  130loPI   GL1 2069   4.462  11.302  10.158  0.1574  0.2450  0.1854
  130loPI   GL2 2070   4.497  11.047  10.186 -0.3563 -0.0336  0.1465
  130loPI   C1A 2071   4.694  11.319   9.770  0.2546 -0.0200 -0.0708
  130loPI   C2A 2072   4.771  11.246   9.375  0.2325  0.2857  0.1008
  130loPI   C3A 2073   5.017  11.259   9.154  0.0799  0.2033 -0.2683
  130loPI   C4A 2074   5.103  11.412   8.811  0.2029  0.1017  0.1520
  130loPI   C5A 2075   5.146  11.372   8.347 -0.0612  0.0916 -0.0509
  130loPI   C6A 2076   5.342  11.273   7.938  0.0368  0.1287 -0.0581
  130loPI   C1B 2077   4.350  10.928   9.789  0.0997  0.1049  0.3135
  130loPI   C2B 2078   4.422  10.893   9.385  0.0400  0.0173 -0.0715
  130loPI   C3B 2079   4.578  11.013   8.977  0.0026 -0.2000 -0.1746
  130loPI   C4B 2080   4.818  11.003   8.662 -0.2159  0.0478  0.0766
  131loPI    C1 2081   9.648  15.096  11.111 -0.0735  0.0849 -0.0331
  131loPI    C2 2082   9.968  15.310  11.221 -0.0183 -0.0205  0.0128
  131loPI    C3 2083   9.600  15.457  11.277  0.0220  0.1049 -0.0481
  131loPI   PO4 2084   9.812  15.011  10.790 -0.2376  0.1503 -0.0409
  131loPI   GL1 2085   9.736  14.635  10.455 -0.0364 -0.1356 -0.1306
  131loPI   GL2 2086   9.643  14.885  10.296 -0.0043 -0.3826 -0.1425
  131loPI   C1A 2087   9.540  14.377  10.114 -0.0328  0.1488 -0.0933
  131loPI   C2A 2088   9.500  14.352   9.662 -0.1193 -0.0417 -0.1108
  131loPI   C3A 2089   9.368  14.212   9.165  0.1357  0.0267  0.0192
  131loPI   C4A 2090   9.269  14.130   8.730  0.3507 -0.1237  0.0876
  131loPI   C5A 2091   9.240  13.639   8.521 -0.2768 -0.0087 -0.1373
  131loPI   C6A 2092   8.838  13.401   8.303 -0.0042 -0.4497 -0.1215
  131loPI   C1B 2093   9.770  15.150   9.990  0.2485 -0.3941  0.0573
  131loPI   C2B 2094   9.826  15.100   9.455 -0.1451 -0.3987  0.1407
  131loPI   C3B 2095   9.994  15.117   9.033 -0.0761 -0.1203  0.1364
  131loPI   C4B 2096   9.893  15.437   8.772  0.1483 -0.0821  0.0934
  132loPI    C1 2097   0.679   8.700  11.088 -0.0674 -0.0117  0.1319
  132loPI    C2 2098   0.511   9.060  11.040  0.0221 -0.0274 -0.3457
  132loPI    C3 2099   0.482   8.871  11.391  0.1558  0.5364 -0.0188
  132loPI   PO4 2100   0.576   8.555  10.915 -0.3685  0.0569  0.3819
  132loPI   GL1 2101   0.561   8.314  10.521  0.1358 -0.0284  0.1536
  132loPI   GL2 2102   0.734   8.110  10.527 -0.0402 -0.1594  0.1098
  132loPI   C1A 2103   0.415   8.323  10.097 -0.2488 -0.3357  0.0460
  132loPI   C2A 2104   0.403   8.193   9.631  0.1957 -0.1341 -0.1249
  132loPI   C3A 2105   0.319   8.107   9.224 -0.2101  0.1109  0.0178
  132loPI   C4A 2106   0.362   8.067   8.810 -0.1731 -0.1342  0.0365
  132loPI   C5A 2107   0.190   7.749   8.439  0.1290  0.1668 -0.2404
  132loPI   C6A 2108   0.458   7.437   8.100 -0.2819  0.2812 -0.0196
  132loPI   C1B 2109   0.739   7.875  10.193 -0.2533 -0.1440 -0.3168
  132loPI   C2B 2110   0.734   7.813   9.793 -0.1322  0.3640  0.2018
  132loPI   C3B 2111   0.791   7.936   9.393  0.0211 -0.0539 -0.0902
  132loPI   C4B 2112   0.780   7.816   8.979 -0.1303  0.1809 -0.1789
  133loPI    C1 2113   1.908   2.572  10.950 -0.0096  0.0919 -0.1412
  133loPI    C2 2114   2.018   2.448  11.314 -0.1147  0.1454 -0.0910
  133loPI    C3 2115   2.012   2.839  11.229 -0.0133  0.1291 -0.1753
  133loPI   PO4 2116   2.042   2.349  10.762  0.0167 -0.2513  0.1482
  133loPI   GL1 2117   2.320   2.284  10.598  0.1087 -0.1566 -0.0301
  133loPI   GL2 2118   2.573   2.075  10.523  0.0093 -0.0964 -0.0952
  133loPI   C1A 2119   2.361   2.405  10.117 -0.1975  0.0861  0.1710
  133loPI   C2A 2120   2.425   2.382   9.673 -0.1666 -0.2235  0.2762
  133loPI   C3A 2121   2.721   2.624   9.435 -0.3471  0.0667 -0.0271
  133loPI   C4A 2122   2.696   2.879   9.119 -0.0081  0.1666 -0.0063
  133loPI   C5A 2123   2.737   2.975   8.628  0.3731 -0.2786  0.0791
  133loPI   C6A 2124   2.873   3.120   8.170  0.1744  0.1457 -0.0466
  133loPI   C1B 2125   2.377   1.910  10.236  0.0452 -0.2045 -0.1094
  133loPI   C2B 2126   2.237   1.996   9.861 -0.1616  0.2228 -0.2723
  133loPI   C3B 2127   1.945   1.860   9.531  0.0812 -0.2224 -0.2042
  133loPI   C4B 2128   1.756   1.891   9.193 -0.1609 -0.0343  0.0756
  134loPI    C1 2129  15.239  11.107  10.565  0.1741 -0.0118  0.1788
  134loPI    C2 2130  15.071  11.225  10.908  0.1954  0.1708  0.1275
  134loPI    C3 2131  15.336  11.461  10.723  0.1426  0.0980 -0.0431
  134loPI   PO4 2132  15.024  10.939  10.360  0.0527 -0.0064 -0.0685
  134loPI   GL1 2133  15.237  10.667  10.152  0.0343 -0.0643 -0.2538
  134loPI   GL2 2134  15.466  10.495   9.962  0.1429  0.0593 -0.1070
  134loPI   C1A 2135  15.066  10.697   9.757 -0.3750 -0.2660 -0.0095
  134loPI   C2A 2136  14.943  10.524   9.400 -0.3442 -0.1378 -0.1639
  134loPI   C3A 2137  14.749  10.243   9.230  0.3588 -0.0901  0.1043
  134loPI   C4A 2138  14.639   9.931   8.916 -0.0779  0.1463  0.1744
  134loPI   C5A 2139  14.320   9.852   8.501 -0.1993  0.1533 -0.0917
  134loPI   C6A 2140  14.172  10.060   8.170 -0.0271 -0.1812 -0.0732
  134loPI   C1B 2141  15.568  10.665   9.687 -0.1030  0.0591 -0.4014
  134loPI   C2B 2142  15.457  10.577   9.407  0.0058 -0.1185 -0.0759
  134loPI   C3B 2143  15.450  10.509   9.050 -0.1401 -0.0820 -0.1392
  134loPI   C4B 2144  15.053  10.492   8.857  0.0413  0.0295 -0.1720
  135loPI    C1 2145   6.710   8.583  11.157  0.0199  0.0024  0.0791
  135loPI    C2 2146   6.743   8.946  10.992  0.0297 -0.0201  0.0315
  135loPI    C3 2147   6.549   8.900  11.339  0.2203  0.0643  0.1516
  135loPI   PO4 2148   6.702   8.437  10.937  0.1420 -0.2366 -0.1273
  135loPI   GL1 2149   6.614   8.284  10.554 -0.1904  0.1569 -0.1106
  135loPI   GL2 2150   6.468   7.982  10.633  0.0970  0.2462  0.2422
  135loPI   C1A 2151   6.334   8.255  10.225 -0.1873  0.2265  0.1776
  135loPI   C2A 2152   6.401   8.310   9.780 -0.0687  0.4402  0.1576
  135loPI   C3A 2153   6.447   8.421   9.343 -0.2464 -0.3090 -0.0917
  135loPI   C4A 2154   6.746   8.342   8.978 -0.2743  0.0508 -0.0857
  135loPI   C5A 2155   7.103   8.228   8.790 -0.1966  0.3431 -0.1625
  135loPI   C6A 2156   7.529   8.297   8.941  0.2127  0.0428  0.1740
  135loPI   C1B 2157   6.487   7.697  10.395 -0.0571 -0.1541  0.0446
  135loPI   C2B 2158   6.423   7.770  10.041  0.0711  0.0908 -0.2137
  135loPI   C3B 2159   6.541   7.816   9.652  0.1787  0.3216  0.3296
  135loPI   C4B 2160   6.931   7.971   9.499 -0.0391 -0.1293 -0.0037
  136loPI    C1 2161  16.481  14.697  10.575 -0.0906 -0.1491 -0.0480
  136loPI    C2 2162  16.523  14.403  10.843  0.0241 -0.1808 -0.0997
  136loPI    C3 2163  16.311  14.729  10.935 -0.0694 -0.2614 -0.0272
  136loPI   PO4 2164  16.359  14.530  10.328  0.2080 -0.0129  0.2705
  136loPI   GL1 2165  16.237  14.673   9.902 -0.1730  0.2125  0.3403
  136loPI   GL2 2166  15.882  14.757   9.985  0.2098  0.0020  0.3942
  136loPI   C1A 2167  16.060  14.852   9.524  0.0346  0.1463  0.2433
  136loPI   C2A 2168  16.105  14.841   9.079 -0.3190  0.0895 -0.0485
  136loPI   C3A 2169  15.995  14.935   8.649  0.1666  0.0764 -0.2362
  136loPI   C4A 2170  15.963  15.011   8.159  0.1717 -0.3505  0.2375
  136loPI   C5A 2171  16.227  15.077   7.677 -0.0493 -0.2663  0.0879
  136loPI   C6A 2172  16.646  15.067   7.550  0.0484  0.3116  0.2767
  136loPI   C1B 2173  15.575  14.832   9.738 -0.3057  0.3424 -0.2515
  136loPI   C2B 2174  15.578  14.787   9.365 -0.0048 -0.1630 -0.2316
  136loPI   C3B 2175  15.582  14.696   8.926 -0.0297 -0.2681 -0.0906
  136loPI   C4B 2176  15.373  14.434   8.529 -0.1652 -0.1539 -0.1733
  137loPI    C1 2177   3.753   6.918  11.025 -0.2265 -0.0106 -0.1168
  137loPI    C2 2178   3.844   7.284  11.158  0.1439 -0.1823  0.1204
  137loPI    C3 2179   3.461   7.179  11.105  0.0254  0.1624  0.2660
  137loPI   PO4 2180   3.842   6.892  10.769 -0.1719  0.1451  0.2880
  137loPI   GL1 2181   3.825   7.070  10.422 -0.0494  0.1447  0.3412
  137loPI   GL2 2182   4.148   7.226  10.313  0.0208  0.1366 -0.2527
  137loPI   C1A 2183   3.680   6.837  10.106 -0.1250  0.2035  0.1575
  137loPI   C2A 2184   3.499   6.492   9.849  0.4207  0.3790  0.1205
  137loPI   C3A 2185   3.434   6.482   9.431 -0.2022  0.1639  0.0895
  137loPI   C4A 2186   3.258   6.721   9.115 -0.2742 -0.2737  0.1768
  137loPI   C5A 2187   3.192   6.746   8.773 -0.1480 -0.1297  0.0966
  137loPI   C6A 2188   3.488   6.635   8.431 -0.2732 -0.0459  0.0184
  137loPI   C1B 2189   4.193   6.995   9.878 -0.1170 -0.0065 -0.4466
  137loPI   C2B 2190   4.312   6.903   9.369  0.1960 -0.1748  0.2304
  137loPI   C3B 2191   4.306   6.744   8.972 -0.0606 -0.1913  0.0265
  137loPI   C4B 2192   4.131   6.634   8.654  0.2270 -0.2946  0.0012
  138loPI    C1 2193   1.078   4.140  11.040  0.0190  0.1223  0.1009
  138loPI    C2 2194   1.427   3.950  11.079 -0.0453 -0.0374 -0.0853
  138loPI    C3 2195   1.229   4.072  11.404  0.0191 -0.2483  0.0352
  138loPI   PO4 2196   1.139   4.322  10.889  0.0835  0.1183  0.2415
  138loPI   GL1 2197   1.261   4.521  10.493  0.0409 -0.1929 -0.0938
  138loPI   GL2 2198   1.529   4.488  10.274 -0.1704  0.0227  0.1522
  138loPI   C1A 2199   1.071   4.537  10.056 -0.0673 -0.0411 -0.2914
  138loPI   C2A 2200   1.028   4.681   9.634  0.0894  0.1085 -0.1963
  138loPI   C3A 2201   0.769   4.626   9.330 -0.0529  0.3351 -0.0733
  138loPI   C4A 2202   0.590   4.780   8.914  0.0976 -0.4168 -0.0900
  138loPI   C5A 2203   0.509   5.085   8.527  0.0183 -0.0317  0.1922
  138loPI   C6A 2204   0.332   5.251   8.194 -0.1395 -0.1682 -0.0279
  138loPI   C1B 2205   1.612   4.593   9.920  0.0535  0.1254  0.1399
  138loPI   C2B 2206   1.490   4.761   9.481 -0.0629  0.0728 -0.1720
  138loPI   C3B 2207   1.586   4.759   9.085  0.0741  0.1890 -0.2394
  138loPI   C4B 2208   1.360   4.735   8.732  0.0679  0.2962  0.0941
  139loPI    C1 2209   9.464  13.841  11.175  0.0605  0.4199 -0.1360
  139loPI    C2 2210   9.850  13.737  11.168 -0.0214  0.0940 -0.0091
  139loPI    C3 2211   9.681  13.855  11.510  0.0171  0.4507 -0.1091
  139loPI   PO4 2212   9.469  14.050  11.003  0.1835  0.0243  0.0670
  139loPI   GL1 2213   9.691  14.184  10.595 -0.2907  0.4800  0.1139
  139loPI   GL2 2214   9.753  13.817  10.676 -0.0402 -0.0049 -0.0498
  139loPI   C1A 2215   9.925  14.040  10.193  0.1001 -0.0733 -0.2336
  139loPI   C2A 2216   9.920  14.151   9.750  0.1495  0.0282 -0.1074
  139loPI   C3A 2217   9.871  14.219   9.343  0.1555 -0.1146  0.1844
  139loPI   C4A 2218   9.904  14.272   8.899 -0.1206 -0.2513 -0.1711
  139loPI   C5A 2219  10.098  14.319   8.545 -0.2667  0.0155 -0.0872
  139loPI   C6A 2220   9.820  14.492   8.383  0.1911  0.0446 -0.0608
  139loPI   C1B 2221   9.469  13.885  10.329 -0.0856  0.0757 -0.4489
  139loPI   C2B 2222   9.444  13.895   9.891 -0.0297 -0.0585  0.1390
  139loPI   C3B 2223   9.427  13.816   9.507  0.0447  0.2135  0.2467
  139loPI   C4B 2224   9.319  13.674   9.012 -0.4776 -0.1728  0.3363
  140loPI    C1 2225   2.942   6.468  10.820  0.0113 -0.0115 -0.0635
  140loPI    C2 2226   2.586   6.649  10.834  0.0360  0.0287  0.0543
  140loPI    C3 2227   2.615   6.258  10.914 -0.0105 -0.0188 -0.1547
  140loPI   PO4 2228   3.005   6.502  10.565 -0.1867  0.2089  0.0903
  140loPI   GL1 2229   3.018   6.287  10.102 -0.3923 -0.0229  0.0267
  140loPI   GL2 2230   3.304   6.049  10.170  0.2249  0.1940  0.3652
  140loPI   C1A 2231   2.937   6.402   9.770  0.3808  0.0810 -0.4316
  140loPI   C2A 2232   2.910   6.644   9.413  0.2265  0.1383  0.0942
  140loPI   C3A 2233   2.788   6.549   8.971  0.3206  0.1224  0.1764
  140loPI   C4A 2234   2.657   6.582   8.611 -0.2497 -0.1710  0.0206
  140loPI   C5A 2235   2.391   6.352   8.337  0.1092  0.0533  0.0115
  140loPI   C6A 2236   2.125   6.512   8.015 -0.1308  0.0866  0.0851
  140loPI   C1B 2237   3.334   5.923   9.716  0.1213 -0.1688  0.1594
  140loPI   C2B 2238   3.456   5.903   9.292  0.0241  0.0568 -0.2561
  140loPI   C3B 2239   3.672   5.764   9.003 -0.1570  0.0899 -0.1481
  140loPI   C4B 2240   3.787   5.857   8.664 -0.0523  0.0391 -0.2228
  141loPI    C1 2241   2.200   5.077  11.040 -0.0429 -0.2139 -0.1062
  141loPI    C2 2242   2.559   5.244  11.092 -0.0072 -0.2637 -0.1910
  141loPI    C3 2243   2.326   5.170  11.408 -0.0068 -0.0909 -0.1489
  141loPI   PO4 2244   2.235   4.933  10.829  0.2236  0.2660  0.3784
  141loPI   GL1 2245   2.335   4.878  10.378 -0.0956 -0.2403 -0.1085
  141loPI   GL2 2246   2.094   4.552  10.449 -0.1674 -0.1763  0.0055
  141loPI   C1A 2247   2.348   5.072   9.974 -0.2724 -0.1316  0.3039
  141loPI   C2A 2248   2.372   5.053   9.494  0.0568 -0.1628  0.0387
  141loPI   C3A 2249   2.402   5.120   9.109 -0.2458  0.2790  0.1045
  141loPI   C4A 2250   2.482   5.136   8.694  0.1177  0.2392 -0.1803
  141loPI   C5A 2251   2.341   4.840   8.332  0.0404  0.0533  0.0890
  141loPI   C6A 2252   2.136   4.562   8.100 -0.1708  0.2048  0.0740
  141loPI   C1B 2253   1.964   4.236  10.200 -0.1593  0.2173 -0.0846
  141loPI   C2B 2254   1.850   4.145   9.763  0.0475  0.1957 -0.0049
  141loPI   C3B 2255   1.736   4.231   9.303  0.1385 -0.0401  0.0821
  141loPI   C4B 2256   1.588   4.305   8.839  0.1272 -0.1065  0.1312
  142loPI    C1 2257  16.888  17.136  10.787 -0.1107  0.0921  0.1829
  142loPI    C2 2258  16.569  16.920  10.893 -0.3078  0.2993  0.0206
  142loPI    C3 2259  16.795  17.093  11.174 -0.3847  0.2181  0.1332
  142loPI   PO4 2260  16.759  17.238  10.524 -0.1113  0.1645  0.0763
  142loPI   GL1 2261  16.556  17.192  10.143 -0.4475  0.0928 -0.2040
  142loPI   GL2 2262  16.486  17.439  10.138 -0.2761 -0.0737  0.3330
  142loPI   C1A 2263  16.515  17.242   9.667 -0.1259  0.1074 -0.0370
  142loPI   C2A 2264  16.471  17.279   9.230  0.0208  0.0583  0.0644
  142loPI   C3A 2265  16.495  17.288   8.821 -0.2742  0.2908 -0.1230
  142loPI   C4A 2266  16.433  17.416   8.339  0.0462 -0.1371 -0.2729
  142loPI   C5A 2267  16.027  17.650   8.244 -0.0242 -0.4275 -0.0756
  142loPI   C6A 2268  15.916  18.110   8.150 -0.2482 -0.2003  0.5545
  142loPI   C1B 2269  16.243  17.822   9.840 -0.1540 -0.0842 -0.0545
  142loPI   C2B 2270  16.448  17.980   9.406  0.1760  0.0553  0.0698
  142loPI   C3B 2271  16.463  18.174   9.035  0.0045  0.2050  0.1417
  142loPI   C4B 2272  16.597  18.320   8.604  0.0000 -0.0506  0.1583
  143loPI    C1 2273  16.659   3.360  11.104 -0.0017 -0.0574  0.0863
  143loPI    C2 2274  16.465   3.039  11.244 -0.1091 -0.0626 -0.0717
  143loPI    C3 2275  16.428   3.392  11.428 -0.3008 -0.0550 -0.1225
  143loPI   PO4 2276  16.646   3.428  10.866 -0.0121  0.0325 -0.0698
  143loPI   GL1 2277  16.422   3.601  10.595 -0.0388 -0.1462  0.0437
  143loPI   GL2 2278  16.119   3.507  10.449 -0.1504 -0.0414 -0.0820
  143loPI   C1A 2279  16.704   3.491  10.172 -0.1000  0.0535 -0.1596
  143loPI   C2A 2280  16.687   3.583   9.762  0.1813 -0.2903  0.0348
  143loPI   C3A 2281  16.784   3.570   9.305  0.2492  0.0937 -0.1563
  143loPI   C4A 2282  16.767   3.424   8.841  0.2145 -0.0453 -0.0336
  143loPI   C5A 2283  16.632   3.175   8.508  0.0678  0.1318  0.0225
  143loPI   C6A 2284  16.471   2.976   8.141 -0.0527 -0.0644  0.2717
  143loPI   C1B 2285  16.207   3.456  10.064 -0.1798 -0.0734 -0.0795
  143loPI   C2B 2286  16.191   3.364   9.603 -0.0180  0.3180  0.3311
  143loPI   C3B 2287  16.152   3.231   9.151 -0.1133 -0.2025  0.0338
  143loPI   C4B 2288  16.045   3.157   8.676 -0.5798 -0.0864 -0.1928
  144loPI    C1 2289  11.466   0.131  10.713 -0.0915 -0.0281  0.0680
  144loPI    C2 2290  11.792   0.053  10.931 -0.1764 -0.1230  0.1618
  144loPI    C3 2291  11.429  -0.031  11.077 -0.2381 -0.1134  0.0160
  144loPI   PO4 2292  11.452   0.012  10.433  0.0137 -0.0412 -0.0361
  144loPI   GL1 2293  11.356  -0.052  10.079 -0.1000  0.0886  0.1296
  144loPI   GL2 2294  11.628   0.087   9.835  0.3475 -0.2029 -0.2174
  144loPI   C1A 2295  11.201  -0.081   9.660  0.0075  0.5886  0.0022
  144loPI   C2A 2296  10.932  -0.255   9.404 -0.0018  0.4145 -0.1046
  144loPI   C3A 2297  10.656  -0.424   9.215 -0.1227  0.2096 -0.0698
  144loPI   C4A 2298  10.665  -0.601   8.709 -0.1169 -0.2108 -0.0800
  144loPI   C5A 2299  10.727  -0.464   8.255 -0.3363 -0.0597 -0.1207
  144loPI   C6A 2300  10.778  -0.152   8.047 -0.0874 -0.0712  0.0166
  144loPI   C1B 2301  11.738   0.062   9.394  0.1440 -0.0983 -0.3999
  144loPI   C2B 2302  11.830   0.028   8.935  0.0088  0.0540  0.1365
  144loPI   C3B 2303  11.549   0.144   8.509  0.1979 -0.0090  0.0077
  144loPI   C4B 2304  11.237   0.399   8.428 -0.1622 -0.1779  0.0551
  145loPI    C1 2305   8.580   6.889  10.773 -0.1383  0.1809 -0.1473
  145loPI    C2 2306   8.408   6.854  11.132 -0.0839  0.0575 -0.1328
  145loPI    C3 2307   8.361   7.190  10.919 -0.0166  0.1788  0.0417
  145loPI   PO4 2308   8.873   6.823  10.783  0.0543  0.1383  0.0661
  145loPI   GL1 2309   8.984   6.630  10.354 -0.0410 -0.3276 -0.0179
  145loPI   GL2 2310   9.254   6.549  10.304 -0.1796 -0.1804  0.3316
  145loPI   C1A 2311   8.726   6.506  10.109 -0.0950  0.0792 -0.0755
  145loPI   C2A 2312   8.724   6.441   9.662  0.4198 -0.2270  0.0457
  145loPI   C3A 2313   8.647   6.395   9.214 -0.1086  0.0565 -0.1190
  145loPI   C4A 2314   8.833   6.306   8.896 -0.1372  0.0216  0.0243
  145loPI   C5A 2315   9.062   5.862   8.817 -0.0664 -0.1139  0.1690
  145loPI   C6A 2316   8.958   5.732   8.447  0.0110  0.0072 -0.2543
  145loPI   C1B 2317   9.148   6.674   9.910  0.1752 -0.0690  0.0710
  145loPI   C2B 2318   9.004   6.713   9.410 -0.1095  0.2076  0.0471
  145loPI   C3B 2319   8.787   6.847   9.038 -0.0144 -0.0935 -0.3717
  145loPI   C4B 2320   8.946   7.183   8.786  0.0494  0.0229  0.0778
  146loPI    C1 2321  15.061  16.120  10.517  0.0057 -0.0377  0.1309
  146loPI    C2 2322  15.372  16.368  10.561  0.0357 -0.0547  0.0190
  146loPI    C3 2323  15.433  15.989  10.449 -0.0273 -0.0511 -0.0284
  146loPI   PO4 2324  14.919  16.246  10.427 -0.0631  0.0060  0.1603
  146loPI   GL1 2325  14.908  16.436  10.018  0.1452  0.1678 -0.2526
  146loPI   GL2 2326  15.203  16.370  10.045 -0.3447 -0.1140 -0.2872
  146loPI   C1A 2327  14.718  16.611   9.669 -0.1960  0.0002 -0.0447
  146loPI   C2A 2328  14.639  16.699   9.280 -0.2553 -0.2140  0.0899
  146loPI   C3A 2329  14.648  16.851   8.835  0.3079  0.3890  0.3269
  146loPI   C4A 2330  14.763  16.786   8.386  0.0870  0.1014  0.0572
  146loPI   C5A 2331  14.984  16.545   7.996 -0.1626 -0.2071  0.0102
  146loPI   C6A 2332  15.292  16.707   7.771  0.0571  0.0165  0.4160
  146loPI   C1B 2333  15.077  16.291   9.599 -0.2524 -0.0161  0.0551
  146loPI   C2B 2334  14.959  16.324   9.218 -0.1246 -0.3175  0.0431
  146loPI   C3B 2335  14.721  16.368   8.930  0.1223 -0.0431  0.3997
  146loPI   C4B 2336  14.472  16.355   8.649  0.5007 -0.1991  0.1553
  147loPI    C1 2337  17.276   6.479  10.910  0.4755  0.1092  0.1230
  147loPI    C2 2338  17.198   6.271  11.243  0.1896  0.0366  0.0140
  147loPI    C3 2339  17.128   6.665  11.232 -0.0036  0.0021 -0.0269
  147loPI   PO4 2340  17.460   6.277  10.744  0.5283 -0.0125 -0.1599
  147loPI   GL1 2341  17.428   6.021  10.335  0.1441  0.0176 -0.2140
  147loPI   GL2 2342  17.070   6.113  10.267 -0.1460  0.0369 -0.2770
  147loPI   C1A 2343  17.677   5.976  10.009 -0.2096  0.0195 -0.0360
  147loPI   C2A 2344  17.691   6.030   9.546 -0.0546  0.0844 -0.2300
  147loPI   C3A 2345  17.849   6.127   9.123  0.0560 -0.2651  0.3053
  147loPI   C4A 2346  17.975   6.039   8.586 -0.2429 -0.2889 -0.0710
  147loPI   C5A 2347  18.329   5.877   8.297 -0.2422  0.0803 -0.1610
  147loPI   C6A 2348  18.639   5.601   8.458 -0.0509  0.3298  0.0297
  147loPI   C1B 2349  17.210   6.121   9.806  0.3076  0.2819 -0.0919
  147loPI   C2B 2350  17.229   6.007   9.440  0.3101  0.2024 -0.1426
  147loPI   C3B 2351  17.262   6.031   8.925 -0.1294 -0.0787  0.3282
  147loPI   C4B 2352  17.217   6.377   8.585 -0.0498  0.0995  0.0508
  148loPI    C1 2353  12.288   8.335  10.844  0.1608  0.2380 -0.0434
  148loPI    C2 2354  11.933   8.316  11.027  0.0679 -0.1121 -0.2512
  148loPI    C3 2355  12.270   8.298  11.241 -0.0364  0.1510 -0.0593
  148loPI   PO4 2356  12.223   8.517  10.658 -0.2527 -0.0354  0.0925
  148loPI   GL1 2357  12.110   8.403  10.216  0.0042  0.3454 -0.0628
  148loPI   GL2 2358  11.766   8.272  10.148  0.1027  0.0719  0.0768
  148loPI   C1A 2359  12.050   8.407   9.757 -0.0660  0.2102 -0.1400
  148loPI   C2A 2360  12.066   8.522   9.352  0.2014 -0.0686 -0.1043
  148loPI   C3A 2361  12.009   8.148   9.045  0.0239 -0.0734  0.0817
  148loPI   C4A 2362  11.839   8.105   8.633  0.0004 -0.0347  0.1216
  148loPI   C5A 2363  11.692   8.095   8.173 -0.1469  0.1901 -0.2984
  148loPI   C6A 2364  11.669   8.081   7.800  0.0048 -0.1438  0.0833
  148loPI   C1B 2365  11.754   8.038   9.793 -0.0186 -0.5613  0.1290
  148loPI   C2B 2366  11.589   8.173   9.381 -0.1590 -0.3664  0.2155
  148loPI   C3B 2367  11.487   8.234   8.947  0.0416 -0.4625 -0.0411
  148loPI   C4B 2368  11.468   8.510   8.523  0.0809 -0.1220  0.0595
  149loPI    C1 2369   5.022   9.824  10.623  0.1799 -0.1140  0.2465
  149loPI    C2 2370   5.088   9.723  11.004  0.1016  0.0643  0.3084
  149loPI    C3 2371   4.750   9.610  10.823  0.0407  0.1641  0.3593
  149loPI   PO4 2372   5.234   9.875  10.541  0.1001 -0.1947  0.0120
  149loPI   GL1 2373   5.484   9.630  10.248  0.0611  0.0716 -0.1225
  149loPI   GL2 2374   5.176   9.785  10.000  0.1160 -0.1749  0.1013
  149loPI   C1A 2375   5.678   9.849   9.870  0.1810  0.0682 -0.0570
  149loPI   C2A 2376   5.726  10.100   9.491  0.1864 -0.1069  0.2759
  149loPI   C3A 2377   5.715  10.456   9.407 -0.2110 -0.0146 -0.0391
  149loPI   C4A 2378   5.692  10.613   9.024 -0.2410  0.0476  0.1074
  149loPI   C5A 2379   5.519  10.543   8.605  0.2438  0.0551  0.1044
  149loPI   C6A 2380   5.276  10.894   8.393  0.0225 -0.1100 -0.0034
  149loPI   C1B 2381   5.240   9.711   9.611 -0.1766 -0.1228 -0.1293
  149loPI   C2B 2382   5.468   9.708   9.372 -0.2681  0.1324  0.0922
  149loPI   C3B 2383   5.470   9.561   8.966 -0.2426  0.0692  0.1120
  149loPI   C4B 2384   5.588   9.123   8.764 -0.1192 -0.2101  0.2175
  150loPI    C1 2385   3.364   4.545  10.603 -0.2623  0.2334  0.2433
  150loPI    C2 2386   3.555   4.502  10.952  0.0749  0.1368  0.0513
  150loPI    C3 2387   3.405   4.182  10.765  0.0351  0.1682  0.0295
  150loPI   PO4 2388   3.333   4.772  10.552 -0.2122  0.2480 -0.2021
  150loPI   GL1 2389   3.167   4.855  10.116  0.0300  0.0009  0.2662
  150loPI   GL2 2390   3.496   4.609  10.130 -0.1765  0.0541 -0.1986
  150loPI   C1A 2391   3.235   4.927   9.728  0.0982  0.1722 -0.0447
  150loPI   C2A 2392   3.368   4.820   9.260  0.1573 -0.0351 -0.3584
  150loPI   C3A 2393   3.300   4.873   8.857  0.1284 -0.1842  0.3223
  150loPI   C4A 2394   2.902   4.796   8.643 -0.1288  0.0026  0.2167
  150loPI   C5A 2395   2.665   4.502   8.444  0.2388 -0.3374 -0.0087
  150loPI   C6A 2396   2.498   4.136   8.236 -0.0731 -0.2463  0.3642
  150loPI   C1B 2397   3.675   4.459   9.776  0.3923 -0.3860  0.1695
  150loPI   C2B 2398   3.750   4.488   9.361 -0.0038 -0.1313 -0.3701
  150loPI   C3B 2399   3.585   4.492   8.853  0.0020 -0.1508  0.1337
  150loPI   C4B 2400   3.298   4.441   8.564  0.0388 -0.2325 -0.1978
  151loPI    C1 2401  17.788   0.516  10.661  0.0285 -0.1532  0.1070
  151loPI    C2 2402  17.993   0.736  10.925  0.0634  0.0672 -0.1003
  151loPI    C3 2403  18.147   0.393  10.787  0.2583  0.1908 -0.1934
  151loPI   PO4 2404  17.722   0.642  10.431  0.0508 -0.0387 -0.1075
  151loPI   GL1 2405  17.970   0.762  10.127 -0.0111  0.0361  0.1848
  151loPI   GL2 2406  17.796   1.076  10.290 -0.1281 -0.3039 -0.2539
  151loPI   C1A 2407  17.799   0.473   9.849  0.0979 -0.1864 -0.1095
  151loPI   C2A 2408  17.960   0.464   9.412 -0.2296  0.1084 -0.0510
  151loPI   C3A 2409  18.071   0.664   9.047  0.2101 -0.1738 -0.0470
  151loPI   C4A 2410  18.311   0.810   8.718  0.1316  0.1319 -0.3719
  151loPI   C5A 2411  18.617   0.946   8.402  0.0041 -0.0114 -0.0116
  151loPI   C6A 2412  19.005   1.072   8.197  0.0646  0.1471  0.2218
  151loPI   C1B 2413  17.801   1.052   9.797 -0.3528  0.1703  0.0772
  151loPI   C2B 2414  17.820   1.047   9.299 -0.1386  0.1158 -0.1961
  151loPI   C3B 2415  17.898   1.170   8.923 -0.0033  0.2309  0.0295
  151loPI   C4B 2416  17.948   1.116   8.554  0.1138 -0.1810  0.1597
  152loPI    C1 2417   4.242   4.023  10.661 -0.1211 -0.0832 -0.1142
  152loPI    C2 2418   3.869   3.923  10.763  0.0152 -0.3938  0.0928
  152loPI    C3 2419   4.153   3.948  11.043  0.0839  0.1609 -0.0158
  152loPI   PO4 2420   4.327   4.270  10.519 -0.1264  0.2361 -0.0417
  152loPI   GL1 2421   4.295   4.224  10.082  0.0459 -0.3715 -0.0026
  152loPI   GL2 2422   4.048   4.260  10.015 -0.0605  0.1179 -0.1211
  152loPI   C1A 2423   4.505   4.271   9.802 -0.2715  0.3595 -0.0630
  152loPI   C2A 2424   4.663   4.245   9.430 -0.0519  0.2328  0.1719
  152loPI   C3A 2425   4.935   4.007   9.049 -0.1303  0.0099  0.4071
  152loPI   C4A 2426   4.988   3.834   8.608  0.0130 -0.0981  0.0559
  152loPI   C5A 2427   4.914   3.474   8.337  0.0743  0.0757  0.0589
  152loPI   C6A 2428   4.781   3.023   8.241  0.0420 -0.1208 -0.0345
  152loPI   C1B 2429   4.068   4.151   9.566  0.0309 -0.1898 -0.1982
  152loPI   C2B 2430   4.150   4.005   9.203  0.2078 -0.2509  0.1841
  152loPI   C3B 2431   4.485   4.128   8.933  0.2245  0.1429 -0.1284
  152loPI   C4B 2432   4.587   4.461   8.723 -0.1875  0.4375  0.0272
  153loPI    C1 2433   8.835  15.043  11.202 -0.0288  0.0014  0.0161
  153loPI    C2 2434   9.198  15.122  11.350  0.0064 -0.0656 -0.0342
  153loPI    C3 2435   8.891  15.363  11.436  0.0672  0.0036 -0.0092
  153loPI   PO4 2436   8.854  15.057  10.954  0.2750 -0.0722  0.1330
  153loPI   GL1 2437   8.852  15.054  10.470  0.2406 -0.1453  0.1317
  153loPI   GL2 2438   8.989  15.297  10.458 -0.0339 -0.0465 -0.0533
  153loPI   C1A 2439   8.664  15.039  10.077  0.0573 -0.1758  0.0621
  153loPI   C2A 2440   8.856  15.082   9.663 -0.2317  0.1498  0.0483
  153loPI   C3A 2441   8.762  15.119   9.290  0.1674 -0.0956 -0.2099
  153loPI   C4A 2442   8.636  15.152   8.847 -0.1178 -0.0499 -0.1139
  153loPI   C5A 2443   8.748  14.998   8.502 -0.0897  0.0492 -0.1502
  153loPI   C6A 2444   8.887  14.890   8.109 -0.2973  0.1275 -0.0708
  153loPI   C1B 2445   9.256  15.078  10.066 -0.2081  0.1097  0.0216
  153loPI   C2B 2446   9.504  14.825   9.782  0.2245  0.1178  0.0905
  153loPI   C3B 2447   9.554  14.742   9.253  0.0040  0.0436 -0.2359
  153loPI   C4B 2448   9.548  14.620   8.858  0.1355 -0.4806 -0.0558
  154loPI    C1 2449   0.522   6.368  10.989 -0.0635 -0.3072 -0.0335
  154loPI    C2 2450   0.282   6.553  11.251  0.1395 -0.1056  0.0128
  154loPI    C3 2451   0.483   6.225  11.361  0.0869 -0.1238  0.0549
  154loPI   PO4 2452   0.418   6.467  10.684  0.0267 -0.1034 -0.2460
  154loPI   GL1 2453   0.480   6.299  10.293  0.5351 -0.2621 -0.0558
  154loPI   GL2 2454   0.236   6.021  10.233 -0.1275  0.0284 -0.0909
  154loPI   C1A 2455   0.219   6.550  10.030  0.1543  0.0543  0.0935
  154loPI   C2A 2456  -0.025   6.616   9.663 -0.0930  0.2206 -0.0563
  154loPI   C3A 2457   0.036   6.693   9.233  0.0004  0.2224 -0.1571
  154loPI   C4A 2458  -0.008   6.832   8.799  0.1960  0.0909  0.0998
  154loPI   C5A 2459   0.174   6.973   8.416 -0.0327 -0.0360  0.0437
  154loPI   C6A 2460  -0.038   6.850   7.991  0.0535 -0.0163  0.0958
  154loPI   C1B 2461   0.265   6.106   9.830 -0.1493  0.4923 -0.1079
  154loPI   C2B 2462   0.277   5.871   9.402  0.1126  0.0536 -0.2445
  154loPI   C3B 2463   0.253   5.763   8.986  0.1986 -0.3208 -0.0425
  154loPI   C4B 2464   0.310   5.537   8.615 -0.0940 -0.2510  0.0955
  155loPI    C1 2465   1.533   2.917  11.001  0.1267 -0.1416 -0.2469
  155loPI    C2 2466   1.432   2.566  11.164  0.4034 -0.1083  0.0049
  155loPI    C3 2467   1.479   2.889  11.396  0.3553  0.0483 -0.1998
  155loPI   PO4 2468   1.494   2.850  10.785 -0.1512 -0.1655 -0.0432
  155loPI   GL1 2469   1.774   2.698  10.429  0.0730 -0.1009 -0.0390
  155loPI   GL2 2470   2.046   2.696  10.395  0.0579  0.0928 -0.1702
  155loPI   C1A 2471   1.576   2.553  10.133 -0.1480  0.2059 -0.1167
  155loPI   C2A 2472   1.580   2.734   9.698  0.0224  0.1299 -0.4301
  155loPI   C3A 2473   1.725   2.845   9.290 -0.0697  0.0074 -0.0655
  155loPI   C4A 2474   1.737   2.853   8.831 -0.2359 -0.1549  0.1106
  155loPI   C5A 2475   1.592   2.930   8.365  0.1241 -0.0070  0.0179
  155loPI   C6A 2476   1.481   3.293   8.122 -0.0106  0.0673 -0.1950
  155loPI   C1B 2477   2.029   2.840   9.958  0.0213  0.1974  0.0380
  155loPI   C2B 2478   2.151   2.769   9.527  0.0315  0.0435 -0.0689
  155loPI   C3B 2479   2.272   2.589   9.137 -0.0025  0.0437 -0.0885
  155loPI   C4B 2480   2.257   2.927   8.835 -0.4604 -0.0790  0.1554
  156loPI    C1 2481   0.377  16.856  10.525 -0.0417 -0.0265  0.0694
  156loPI    C2 2482   0.453  16.912  10.914  0.0964  0.1764  0.0151
  156loPI    C3 2483   0.466  16.543  10.758  0.1073  0.1025  0.1881
  156loPI   PO4 2484   0.553  16.943  10.406  0.4638 -0.5764  0.1668
  156loPI   GL1 2485   0.831  17.054  10.097 -0.0840  0.1112 -0.0992
  156loPI   GL2 2486   1.084  17.115  10.029  0.1127  0.1742 -0.1165
  156loPI   C1A 2487   0.773  17.044   9.640  0.1562 -0.0897 -0.0981
  156loPI   C2A 2488   0.820  16.965   9.161 -0.0252  0.1210  0.0028
  156loPI   C3A 2489   0.611  17.032   8.712 -0.0102  0.0794  0.1700
  156loPI   C4A 2490   0.415  16.902   8.363 -0.4288  0.2357 -0.0539
  156loPI   C5A 2491   0.339  17.091   8.001  0.0150 -0.0314  0.1125
  156loPI   C6A 2492   0.053  17.412   7.924  0.2900 -0.0551 -0.0546
  156loPI   C1B 2493   1.193  16.905   9.579 -0.0861  0.1208  0.2782
  156loPI   C2B 2494   1.306  16.634   9.313 -0.0255 -0.1918  0.0073
  156loPI   C3B 2495   1.564  16.549   8.930  0.1892 -0.1763 -0.1616
  156loPI   C4B 2496   1.583  16.666   8.463  0.0472  0.2390  0.1557
  157loPI    C1 2497  12.465   0.526  10.469  0.0372  0.0244 -0.0352
  157loPI    C2 2498  12.480   0.517  10.869  0.0860 -0.2753 -0.0417
  157loPI    C3 2499  12.750   0.315  10.654  0.0818 -0.0865 -0.2280
  157loPI   PO4 2500  12.293   0.442  10.306  0.0725 -0.1817 -0.3143
  157loPI   GL1 2501  12.183   0.210   9.937  0.3270 -0.3879  0.0464
  157loPI   GL2 2502  12.090  -0.101   9.904 -0.1190  0.2081  0.1093
  157loPI   C1A 2503  12.195   0.256   9.480 -0.0402 -0.0461  0.1449
  157loPI   C2A 2504  11.969   0.454   9.156  0.2873  0.0528  0.0643
  157loPI   C3A 2505  11.781   0.565   8.748 -0.1306  0.3298 -0.0384
  157loPI   C4A 2506  11.663   0.774   8.444  0.2084 -0.0933 -0.2946
  157loPI   C5A 2507  11.447   1.143   8.309  0.2146 -0.0604  0.0398
  157loPI   C6A 2508  11.467   1.373   7.909  0.4886 -0.3077 -0.2317
  157loPI   C1B 2509  12.006  -0.428   9.598  0.2619 -0.2352 -0.3720
  157loPI   C2B 2510  11.941  -0.567   9.186  0.0271 -0.2087  0.0090
  157loPI   C3B 2511  11.950  -0.815   8.783  0.0187 -0.0564 -0.2318
  157loPI   C4B 2512  11.969  -0.922   8.405 -0.0262 -0.0290  0.0017
  158loPI    C1 2513  13.814   9.475  10.742 -0.0197  0.1614 -0.0459
  158loPI    C2 2514  14.023   9.168  10.593 -0.1269  0.0858 -0.0417
  158loPI    C3 2515  13.965   9.197  10.988  0.0271  0.2035 -0.0271
  158loPI   PO4 2516  13.614   9.487  10.530  0.4353  0.2973 -0.1923
  158loPI   GL1 2517  13.641   9.209  10.221  0.0587 -0.0386  0.0369
  158loPI   GL2 2518  13.270   9.215  10.097  0.2383  0.0928 -0.2828
  158loPI   C1A 2519  13.961   9.170  10.076 -0.3827  0.0709  0.1118
  158loPI   C2A 2520  13.910   9.242   9.741 -0.2194  0.1737  0.3232
  158loPI   C3A 2521  14.057   9.129   9.331 -0.0072  0.2258  0.1499
  158loPI   C4A 2522  13.932   9.332   8.907  0.0632 -0.2778  0.0798
  158loPI   C5A 2523  13.810   9.334   8.586 -0.1378 -0.0542  0.1080
  158loPI   C6A 2524  14.140   9.463   8.252  0.0790 -0.3283  0.0452
  158loPI   C1B 2525  13.430   9.196   9.726  0.0758 -0.1780 -0.2351
  158loPI   C2B 2526  13.560   9.190   9.354 -0.0321  0.5931  0.0082
  158loPI   C3B 2527  13.390   9.240   8.914  0.4126  0.3320 -0.0442
  158loPI   C4B 2528  13.238   9.166   8.544 -0.0336 -0.0481  0.1143
  159loPI    C1 2529   2.902   4.414  10.707 -0.0608 -0.0523  0.0325
  159loPI    C2 2530   3.033   4.701  10.951 -0.1092  0.0154 -0.0206
  159loPI    C3 2531   3.034   4.320  11.072  0.0801  0.0215  0.0013
  159loPI   PO4 2532   2.569   4.525  10.669  0.0115 -0.0489 -0.0994
  159loPI   GL1 2533   2.543   4.346  10.317 -0.1493 -0.0669 -0.0817
  159loPI   GL2 2534   2.823   4.501  10.213 -0.0818 -0.3501  0.2754
  159loPI   C1A 2535   2.281   4.515   9.939  0.0950  0.0709 -0.1159
  159loPI   C2A 2536   2.017   4.527   9.545 -0.0058  0.0278 -0.0134
  159loPI   C3A 2537   2.079   4.609   9.087  0.1281  0.0765  0.0391
  159loPI   C4A 2538   2.027   4.794   8.829 -0.1642 -0.2645  0.1862
  159loPI   C5A 2539   1.769   4.763   8.473  0.0232 -0.1345 -0.0215
  159loPI   C6A 2540   1.598   4.794   8.093  0.0917 -0.1070 -0.3446
  159loPI   C1B 2541   2.760   4.698   9.848 -0.1386 -0.1262 -0.1451
  159loPI   C2B 2542   2.812   4.913   9.472 -0.0750 -0.3125 -0.0395
  159loPI   C3B 2543   2.921   5.047   9.125 -0.1867 -0.1058  0.0172
  159loPI   C4B 2544   2.975   5.255   8.799  0.0082  0.3080 -0.0623
  160loPI    C1 2545  13.091   6.749  10.674 -0.1706  0.1358 -0.0657
  160loPI    C2 2546  13.436   6.709  10.873 -0.1199 -0.1095 -0.1993
  160loPI    C3 2547  13.160   6.967  11.002  0.1179  0.0981 -0.0983
  160loPI   PO4 2548  13.184   6.756  10.426 -0.1957  0.0437 -0.0443
  160loPI   GL1 2549  13.023   6.851   9.917 -0.1666  0.2743  0.2051
  160loPI   GL2 2550  13.013   6.612   9.764 -0.2720 -0.0445 -0.2100
  160loPI   C1A 2551  12.802   7.019   9.575  0.2389 -0.2419 -0.0049
  160loPI   C2A 2552  12.416   6.931   9.258 -0.1121  0.1491  0.4297
  160loPI   C3A 2553  12.202   6.792   8.909 -0.1324  0.2565  0.0496
  160loPI   C4A 2554  11.994   6.728   8.468  0.0605 -0.2344 -0.1721
  160loPI   C5A 2555  12.175   6.653   8.071  0.0279 -0.1673  0.0093
  160loPI   C6A 2556  12.405   6.627   7.682  0.1746 -0.2010 -0.3724
  160loPI   C1B 2557  13.034   6.658   9.344 -0.1009  0.0220  0.1225
  160loPI   C2B 2558  13.184   6.367   9.062  0.0667 -0.2954 -0.2977
  160loPI   C3B 2559  13.140   6.296   8.642 -0.0666 -0.1578 -0.2821
  160loPI   C4B 2560  13.350   5.984   8.308  0.0188 -0.1135  0.1021
  161loPI    C1 2561   3.376  12.283  10.907 -0.0085 -0.2690  0.1649
  161loPI    C2 2562   3.072  12.452  11.104  0.0472 -0.0053  0.0290
  161loPI    C3 2563   3.446  12.580  11.166  0.0726  0.0301 -0.1921
  161loPI   PO4 2564   3.251  12.249  10.659 -0.1331 -0.0446  0.2431
  161loPI   GL1 2565   3.388  12.168  10.280 -0.1517 -0.2207  0.2405
  161loPI   GL2 2566   3.613  12.427  10.326  0.3186 -0.0363  0.2889
  161loPI   C1A 2567   3.199  12.340   9.824  0.0454  0.2569  0.0491
  161loPI   C2A 2568   3.060  12.288   9.362  0.0091  0.2087  0.3782
  161loPI   C3A 2569   3.022  12.287   8.996  0.0645  0.1622 -0.2246
  161loPI   C4A 2570   2.723  12.173   8.667  0.0269 -0.1602  0.0216
  161loPI   C5A 2571   2.418  12.258   8.288  0.5124  0.0010  0.2255
  161loPI   C6A 2572   1.936  12.349   8.325 -0.1464 -0.1882 -0.1308
  161loPI   C1B 2573   3.526  12.673   9.914  0.2012 -0.2361  0.0586
  161loPI   C2B 2574   3.462  12.683   9.509  0.3134 -0.0698 -0.2563
  161loPI   C3B 2575   3.454  12.746   9.167  0.2688 -0.1914 -0.3503
  161loPI   C4B 2576   3.344  12.596   8.764 -0.1802 -0.2470  0.0446
  162loPI    C1 2577   7.726  17.197  10.844 -0.1205 -0.1089 -0.3260
  162loPI    C2 2578   7.850  17.548  10.698 -0.0093 -0.0191 -0.0221
  162loPI    C3 2579   8.073  17.220  10.646  0.0089  0.0037 -0.0896
  162loPI   PO4 2580   7.469  17.272  10.850  0.1190  0.0854  0.2043
  162loPI   GL1 2581   7.410  17.435  10.437  0.2073  0.1369 -0.1299
  162loPI   GL2 2582   7.468  17.733  10.402  0.1878  0.0813 -0.0957
  162loPI   C1A 2583   7.425  17.464   9.948 -0.1359  0.0581  0.1989
  162loPI   C2A 2584   7.478  17.487   9.472 -0.2695 -0.2423 -0.0050
  162loPI   C3A 2585   7.702  17.584   9.091 -0.4075  0.1788 -0.0487
  162loPI   C4A 2586   7.753  17.572   8.728  0.0525  0.1981 -0.0679
  162loPI   C5A 2587   8.093  17.414   8.450  0.0092 -0.1203  0.0991
  162loPI   C6A 2588   8.307  17.021   8.197  0.0009 -0.4865  0.0773
  162loPI   C1B 2589   7.901  17.787  10.193 -0.2202  0.0056 -0.2102
  162loPI   C2B 2590   7.900  17.908   9.791  0.0491 -0.0052  0.1564
  162loPI   C3B 2591   8.008  17.939   9.404 -0.0904  0.0936  0.3412
  162loPI   C4B 2592   8.144  17.835   8.942  0.0751 -0.1471 -0.1246
  163loPI    C1 2593   6.012   7.884  11.413  0.0333 -0.1202 -0.0875
  163loPI    C2 2594   6.177   8.074  11.724  0.2195  0.0136 -0.2661
  163loPI    C3 2595   6.323   7.721  11.604  0.0698 -0.0969 -0.1271
  163loPI   PO4 2596   5.942   8.094  11.247  0.3707  0.0496  0.1422
  163loPI   GL1 2597   5.713   8.165  10.815  0.4113 -0.1521 -0.0788
  163loPI   GL2 2598   5.744   8.485  10.837 -0.2818 -0.0114  0.3053
  163loPI   C1A 2599   5.725   8.382  10.319 -0.2298  0.5163  0.2395
  163loPI   C2A 2600   5.951   8.347   9.927  0.1298 -0.2885  0.1349
  163loPI   C3A 2601   5.978   8.374   9.486 -0.0024  0.0032 -0.1345
  163loPI   C4A 2602   5.930   8.387   9.029 -0.0849 -0.0893 -0.0107
  163loPI   C5A 2603   6.266   8.253   8.798  0.4687  0.2791 -0.0853
  163loPI   C6A 2604   6.264   8.024   8.428  0.3431 -0.2025  0.1831
  163loPI   C1B 2605   5.877   8.734  10.600 -0.4127  0.0171  0.1115
  163loPI   C2B 2606   6.084   8.741  10.161 -0.1553 -0.4430  0.3312
  163loPI   C3B 2607   6.224   8.759   9.680  0.1604 -0.2625 -0.2989
  163loPI   C4B 2608   6.076   8.825   9.302 -0.1503  0.0312  0.1496
  164loPI    C1 2609  11.608   0.577  10.486  0.0279 -0.4578 -0.0864
  164loPI    C2 2610  11.953   0.771  10.430 -0.2441  0.1518  0.2560
  164loPI    C3 2611  11.926   0.490  10.713  0.0507 -0.1337  0.0097
  164loPI   PO4 2612  11.535   0.484  10.248 -0.1567 -0.3406  0.0752
  164loPI   GL1 2613  11.476   0.663   9.933  0.1290  0.2082  0.1058
  164loPI   GL2 2614  11.207   0.881   9.833  0.1983 -0.0320 -0.1927
  164loPI   C1A 2615  11.337   0.375   9.556 -0.1665 -0.0188 -0.2829
  164loPI   C2A 2616  11.273   0.064   9.141 -0.0872  0.2361 -0.0733
  164loPI   C3A 2617  11.031  -0.185   8.904 -0.3028  0.1532  0.0380
  164loPI   C4A 2618  10.626  -0.090   8.736 -0.0038 -0.2204 -0.3541
  164loPI   C5A 2619  10.367  -0.205   8.393 -0.1618 -0.1180 -0.2195
  164loPI   C6A 2620  10.181  -0.521   8.289  0.1756 -0.0578  0.2304
  164loPI   C1B 2621  11.020   0.770   9.468 -0.1150  0.0932 -0.2502
  164loPI   C2B 2622  11.210   0.645   9.148  0.0746 -0.1317 -0.0936
  164loPI   C3B 2623  11.288   0.704   8.821 -0.2264 -0.1363 -0.1823
  164loPI   C4B 2624  11.072   0.861   8.466 -0.0366  0.1222 -0.1391
  165loPI    C1 2625  14.420   5.567  10.574  0.0959 -0.2374 -0.0667
  165loPI    C2 2626  14.534   5.951  10.576  0.0018 -0.2087 -0.1130
  165loPI    C3 2627  14.585   5.725  10.902  0.2063 -0.2018 -0.1383
  165loPI   PO4 2628  14.178   5.590  10.530 -0.1971 -0.1884 -0.0105
  165loPI   GL1 2629  14.078   5.574  10.056 -0.1901 -0.1105 -0.2271
  165loPI   GL2 2630  14.208   5.874  10.178 -0.2445 -0.0246 -0.0537
  165loPI   C1A 2631  14.032   5.257   9.723  0.0871 -0.0919  0.0385
  165loPI   C2A 2632  14.085   5.326   9.280 -0.4236 -0.0822 -0.1452
  165loPI   C3A 2633  14.043   5.466   8.814 -0.0087 -0.0838 -0.0612
  165loPI   C4A 2634  14.244   5.373   8.417  0.0942  0.0817  0.0331
  165loPI   C5A 2635  14.544   5.213   8.200  0.1051 -0.0772  0.2530
  165loPI   C6A 2636  14.936   4.913   8.191  0.0787 -0.1535 -0.0790
  165loPI   C1B 2637  14.279   6.053   9.797  0.1532  0.3107  0.0737
  165loPI   C2B 2638  14.318   6.149   9.414  0.1236  0.0088 -0.0447
  165loPI   C3B 2639  14.348   6.082   9.071 -0.0063 -0.0928  0.1182
  165loPI   C4B 2640  14.402   5.819   8.858  0.1927 -0.0158  0.1358
  166loPI    C1 2641  13.185  14.046  10.844  0.0412 -0.0017  0.1213
  166loPI    C2 2642  13.422  13.962  11.155 -0.0436 -0.1311  0.1517
  166loPI    C3 2643  13.408  13.714  10.842 -0.0605 -0.0704  0.1043
  166loPI   PO4 2644  13.198  14.243  10.776 -0.0017  0.1679  0.2370
  166loPI   GL1 2645  13.131  14.330  10.411  0.0091  0.0276 -0.1017
  166loPI   GL2 2646  13.176  14.122  10.242  0.1699 -0.0758  0.0933
  166loPI   C1A 2647  13.196  14.642  10.083 -0.1055  0.0376  0.2511
  166loPI   C2A 2648  13.327  14.786   9.633  0.0269 -0.0307  0.0380
  166loPI   C3A 2649  13.313  14.657   9.158 -0.0571  0.2940 -0.0084
  166loPI   C4A 2650  13.243  14.695   8.749  0.0369 -0.2169 -0.3110
  166loPI   C5A 2651  13.121  14.652   8.345  0.1145 -0.0130 -0.0015
  166loPI   C6A 2652  13.391  14.617   7.984  0.0363  0.1121 -0.1892
  166loPI   C1B 2653  13.234  14.124   9.812 -0.0746  0.0101 -0.0529
  166loPI   C2B 2654  13.207  14.124   9.349  0.4361  0.0342 -0.2789
  166loPI   C3B 2655  13.338  14.178   9.001 -0.4311 -0.1764  0.2332
  166loPI   C4B 2656  13.237  14.033   8.631  0.1665  0.1322 -0.3311
  167loPI    C1 2657   5.008   6.815  11.010 -0.0319 -0.2422  0.0333
  167loPI    C2 2658   4.796   7.078  11.224  0.2234 -0.0388  0.0404
  167loPI    C3 2659   5.112   6.895  11.387  0.0793 -0.3130  0.0180
  167loPI   PO4 2660   4.808   6.752  10.807 -0.2533  0.2845 -0.1412
  167loPI   GL1 2661   4.782   6.940  10.396 -0.0422  0.0724 -0.2314
  167loPI   GL2 2662   4.612   6.931  10.114 -0.4667 -0.3134 -0.0978
  167loPI   C1A 2663   5.003   6.571  10.150 -0.1330  0.0023 -0.0709
  167loPI   C2A 2664   4.975   6.557   9.818 -0.0613 -0.2336 -0.1789
  167loPI   C3A 2665   4.966   6.625   9.395 -0.1608  0.4859  0.0749
  167loPI   C4A 2666   4.982   6.692   8.980 -0.0507 -0.1881  0.0343
  167loPI   C5A 2667   5.027   6.827   8.585  0.0310  0.1130  0.2550
  167loPI   C6A 2668   5.155   7.089   8.226  0.0138 -0.0004  0.1473
  167loPI   C1B 2669   4.672   6.971   9.659 -0.0107 -0.2926 -0.0346
  167loPI   C2B 2670   4.778   7.088   9.243  0.0177  0.4729  0.1227
  167loPI   C3B 2671   4.708   7.125   8.816  0.1046  0.0276  0.1990
  167loPI   C4B 2672   4.740   7.238   8.353  0.2713  0.2839 -0.1034
  168loPI    C1 2673   2.755   3.842  10.858 -0.0670 -0.0228 -0.1221
  168loPI    C2 2674   2.797   3.507  11.073 -0.2756 -0.0444 -0.1131
  168loPI    C3 2675   2.751   3.859  11.257 -0.1555 -0.0230 -0.1230
  168loPI   PO4 2676   2.950   3.754  10.669 -0.1193  0.0313 -0.2182
  168loPI   GL1 2677   2.974   3.570  10.249  0.2985 -0.3432 -0.1835
  168loPI   GL2 2678   3.125   3.689   9.994 -0.0265 -0.1229 -0.1592
  168loPI   C1A 2679   2.634   3.477  10.075 -0.0660 -0.2582 -0.0078
  168loPI   C2A 2680   2.506   3.608   9.640  0.1038 -0.0758  0.0307
  168loPI   C3A 2681   2.432   3.553   9.197 -0.0075  0.0357 -0.0042
  168loPI   C4A 2682   2.501   3.398   8.772 -0.0489 -0.0965 -0.2272
  168loPI   C5A 2683   2.367   3.189   8.368 -0.1474  0.2301  0.1916
  168loPI   C6A 2684   1.941   3.196   8.014  0.2285 -0.1989  0.3050
  168loPI   C1B 2685   3.026   3.638   9.648 -0.0719 -0.1721  0.1486
  168loPI   C2B 2686   2.916   3.843   9.342 -0.0843 -0.2627  0.0827
  168loPI   C3B 2687   2.881   3.689   8.951  0.1212  0.0362  0.1338
  168loPI   C4B 2688   3.073   3.488   8.550 -0.1371  0.1346  0.3786
  169loPI    C1 2689   7.256   7.463  11.247  0.0763 -0.1792  0.1269
  169loPI    C2 2690   7.299   7.824  11.413 -0.0101 -0.0577 -0.1096
  169loPI    C3 2691   7.474   7.505  11.580 -0.1568  0.0468  0.2545
  169loPI   PO4 2692   7.276   7.506  10.997  0.3720  0.0072 -0.0691
  169loPI   GL1 2693   7.462   7.639  10.670  0.1558  0.1503  0.1140
  169loPI   GL2 2694   7.671   7.857  10.486  0.3683  0.2726  0.0143
  169loPI   C1A 2695   7.428   7.441  10.260  0.1972 -0.2512  0.0018
  169loPI   C2A 2696   7.549   7.215   9.813  0.1765  0.0107 -0.0013
  169loPI   C3A 2697   7.567   6.991   9.408  0.1522 -0.2355  0.3002
  169loPI   C4A 2698   7.423   6.867   9.063 -0.3696 -0.1039  0.0290
  169loPI   C5A 2699   7.301   6.768   8.609  0.2316  0.1310 -0.0885
  169loPI   C6A 2700   6.961   6.638   8.372  0.0961  0.3142 -0.0479
  169loPI   C1B 2701   7.604   7.953  10.081  0.0226  0.0655  0.4937
  169loPI   C2B 2702   7.536   7.966   9.671 -0.2348 -0.2105  0.0785
  169loPI   C3B 2703   7.547   7.944   9.268 -0.1908  0.0126  0.2076
  169loPI   C4B 2704   7.417   7.823   8.812  0.2182 -0.3973  0.2731
  170loPI    C1 2705   5.857   1.041  10.928  0.2236 -0.0506  0.1754
  170loPI    C2 2706   5.606   1.345  10.994  0.2307 -0.0303  0.1093
  170loPI    C3 2707   5.991   1.379  11.095  0.3078  0.1175 -0.2216
  170loPI   PO4 2708   5.810   1.015  10.673 -0.0553  0.3015  0.0971
  170loPI   GL1 2709   5.993   0.841  10.236  0.0215 -0.1392 -0.4377
  170loPI   GL2 2710   6.299   1.014  10.294  0.0878  0.0304 -0.0125
  170loPI   C1A 2711   5.925   0.703   9.819  0.3262 -0.1081  0.1556
  170loPI   C2A 2712   5.905   0.447   9.497  0.0835  0.0611 -0.1001
  170loPI   C3A 2713   5.874   0.459   9.045 -0.1394  0.3995  0.1351
  170loPI   C4A 2714   5.813   0.519   8.603  0.3662  0.0954  0.1467
  170loPI   C5A 2715   5.636   0.303   8.364 -0.0407  0.0326 -0.1190
  170loPI   C6A 2716   5.276  -0.000   8.227  0.2978  0.0095  0.0299
  170loPI   C1B 2717   6.396   1.135   9.904 -0.0961 -0.2111 -0.1571
  170loPI   C2B 2718   6.236   1.085   9.543  0.1989  0.1322 -0.0474
  170loPI   C3B 2719   5.909   0.876   9.284  0.3956 -0.0516 -0.1581
  170loPI   C4B 2720   5.511   0.942   8.985  0.0648  0.0555  0.0823
  171loPI    C1 2721   0.771  12.714  10.645 -0.1990 -0.2821 -0.2190
  171loPI    C2 2722   1.038  12.416  10.667 -0.0250 -0.1023  0.2298
  171loPI    C3 2723   1.049  12.715  10.933 -0.2683  0.2510 -0.1446
  171loPI   PO4 2724   0.838  12.784  10.349  0.2367  0.2937  0.0674
  171loPI   GL1 2725   0.690  12.939   9.995 -0.1202  0.1522 -0.2631
  171loPI   GL2 2726   0.809  13.186   9.907  0.3132  0.0615  0.3595
  171loPI   C1A 2727   0.811  12.649   9.737  0.0837  0.0042 -0.2193
  171loPI   C2A 2728   0.552  12.622   9.412  0.1044  0.0851  0.0222
  171loPI   C3A 2729   0.448  12.574   9.065 -0.0226 -0.1739 -0.4022
  171loPI   C4A 2730   0.724  12.483   8.730  0.2091 -0.2204  0.0713
  171loPI   C5A 2731   1.001  12.317   8.372  0.3860 -0.1561  0.1942
  171loPI   C6A 2732   1.322  12.388   8.028 -0.3780 -0.2381  0.0821
  171loPI   C1B 2733   0.720  13.095   9.426  0.0536 -0.1844 -0.1013
  171loPI   C2B 2734   0.476  13.056   8.997  0.0070 -0.0966 -0.1866
  171loPI   C3B 2735   0.519  12.938   8.594 -0.0400 -0.1090  0.5133
  171loPI   C4B 2736   0.533  12.614   8.290  0.1893  0.0273 -0.0169
  172loPI    C1 2737   1.247  14.510  10.313  0.1831 -0.0367 -0.0454
  172loPI    C2 2738   1.066  14.312  10.610  0.0630 -0.0161 -0.1042
  172loPI    C3 2739   1.466  14.311  10.582  0.0750 -0.0114  0.0616
  172loPI   PO4 2740   1.047  14.712  10.247  0.0472  0.1545  0.3911
  172loPI   GL1 2741   1.039  14.821   9.796 -0.0560  0.4306 -0.0997
  172loPI   GL2 2742   0.802  15.069   9.985 -0.2562 -0.2406  0.3225
  172loPI   C1A 2743   1.073  14.938   9.443 -0.0984 -0.1569 -0.1678
  172loPI   C2A 2744   1.029  14.861   8.944 -0.2402 -0.1797 -0.0239
  172loPI   C3A 2745   0.900  14.811   8.506 -0.0468 -0.2400 -0.0798
  172loPI   C4A 2746   0.734  14.810   8.087  0.1078 -0.1826  0.1445
  172loPI   C5A 2747   0.422  15.076   7.831  0.0630  0.0915 -0.0058
  172loPI   C6A 2748   0.144  14.976   8.059 -0.1100 -0.2757  0.3614
  172loPI   C1B 2749   0.602  14.965   9.606 -0.1444 -0.0787 -0.1497
  172loPI   C2B 2750   0.656  15.211   9.193 -0.0469  0.1837  0.0276
  172loPI   C3B 2751   0.630  15.599   8.840 -0.0852  0.0882  0.1305
  172loPI   C4B 2752   0.802  16.064   8.709  0.1836  0.1188 -0.0030
  173loPI    C1 2753  13.871  13.556  10.780 -0.0568 -0.0487  0.1075
  173loPI    C2 2754  14.199  13.782  10.741 -0.1230 -0.0006 -0.2013
  173loPI    C3 2755  13.894  13.908  10.967  0.1301 -0.1176  0.2170
  173loPI   PO4 2756  13.841  13.500  10.566 -0.0754  0.1333 -0.1407
  173loPI   GL1 2757  14.027  13.186  10.263  0.0695  0.0926 -0.0010
  173loPI   GL2 2758  13.931  13.366   9.926 -0.3318  0.1624  0.1453
  173loPI   C1A 2759  14.324  13.123  10.011  0.1111 -0.1833  0.0273
  173loPI   C2A 2760  14.262  13.213   9.508  0.0987 -0.0372 -0.0878
  173loPI   C3A 2761  14.063  13.373   9.148  0.1585  0.0541  0.0999
  173loPI   C4A 2762  14.088  13.405   8.658 -0.1548 -0.0399 -0.0893
  173loPI   C5A 2763  14.311  13.719   8.330 -0.0035  0.2889 -0.4056
  173loPI   C6A 2764  14.594  14.020   8.418  0.1902  0.0171 -0.0420
  173loPI   C1B 2765  13.724  13.242   9.553 -0.0413  0.0718  0.1991
  173loPI   C2B 2766  13.591  13.175   9.107 -0.2526 -0.0093 -0.1955
  173loPI   C3B 2767  13.524  13.276   8.704 -0.1674 -0.1759 -0.1274
  173loPI   C4B 2768  13.706  13.219   8.317 -0.0851 -0.0481  0.4714
  174loPI    C1 2769   0.258   1.353  10.562  0.3227 -0.0834  0.1942
  174loPI    C2 2770   0.158   1.551  10.895 -0.0679  0.1825 -0.0727
  174loPI    C3 2771  -0.004   1.193  10.819  0.0835  0.0848  0.0593
  174loPI   PO4 2772   0.539   1.321  10.550  0.0045  0.0957  0.2273
  174loPI   GL1 2773   0.901   1.292  10.277 -0.0733  0.1606 -0.1382
  174loPI   GL2 2774   1.078   1.144  10.055 -0.0079  0.2248  0.0632
  174loPI   C1A 2775   0.730   1.501   9.915  0.0086  0.3612 -0.2212
  174loPI   C2A 2776   0.491   1.796   9.672  0.4690  0.0113 -0.1089
  174loPI   C3A 2777   0.548   2.170   9.359  0.1802 -0.2472 -0.0229
  174loPI   C4A 2778   0.575   2.091   8.933  0.0643 -0.1953  0.0868
  174loPI   C5A 2779   0.591   2.066   8.536 -0.3611  0.1796 -0.2535
  174loPI   C6A 2780   0.798   2.223   8.186 -0.2096 -0.0964  0.1788
  174loPI   C1B 2781   1.035   1.203   9.644  0.2093 -0.0769 -0.1261
  174loPI   C2B 2782   0.940   1.506   9.491 -0.0133 -0.0575  0.1925
  174loPI   C3B 2783   0.750   1.684   9.264  0.3616 -0.1240  0.0326
  174loPI   C4B 2784   0.876   1.681   8.796  0.0461 -0.1428 -0.0640
  175loPI    C1 2785  17.438  13.931  10.355  0.0604  0.0237  0.0263
  175loPI    C2 2786  17.659  13.651  10.535  0.0563  0.0349  0.0488
  175loPI    C3 2787  17.399  13.868  10.748  0.2974  0.2836  0.0944
  175loPI   PO4 2788  17.388  13.842  10.158 -0.0817  0.1702 -0.0857
  175loPI   GL1 2789  17.362  13.865   9.716 -0.2352  0.1988 -0.1853
  175loPI   GL2 2790  17.094  13.788   9.664 -0.0053  0.0338 -0.0557
  175loPI   C1A 2791  17.463  13.621   9.323 -0.0595  0.1270 -0.1523
  175loPI   C2A 2792  17.488  13.566   8.811 -0.1371  0.1790 -0.0693
  175loPI   C3A 2793  17.714  13.572   8.427 -0.1931  0.0793 -0.2922
  175loPI   C4A 2794  17.988  13.726   8.078 -0.1679  0.2566  0.1210
  175loPI   C5A 2795  18.411  13.969   8.084  0.0374  0.0660  0.0095
  175loPI   C6A 2796  18.840  13.826   7.997  0.0112  0.2208 -0.1253
  175loPI   C1B 2797  17.091  13.901   9.133  0.0430 -0.0424 -0.3921
  175loPI   C2B 2798  17.163  13.998   8.766  0.0632  0.2091  0.2450
  175loPI   C3B 2799  17.205  13.905   8.421  0.0936 -0.2983  0.1722
  175loPI   C4B 2800  17.490  14.016   8.148 -0.2022 -0.3373  0.1720
  176loPI    C1 2801  14.273  12.234  10.923  0.2268 -0.1869  0.1113
  176loPI    C2 2802  14.012  11.934  10.963 -0.0648  0.0534  0.0479
  176loPI    C3 2803  14.012  12.236  11.226  0.0052  0.1609 -0.0744
  176loPI   PO4 2804  14.499  12.070  10.712 -0.1057  0.3923 -0.0828
  176loPI   GL1 2805  14.443  12.254  10.326  0.2824  0.1846  0.1304
  176loPI   GL2 2806  14.726  12.171  10.152  0.1078 -0.0093 -0.1185
  176loPI   C1A 2807  14.147  12.391   9.988 -0.1109  0.3392 -0.2158
  176loPI   C2A 2808  14.036  12.374   9.554 -0.0017  0.1388  0.1218
  176loPI   C3A 2809  14.062  12.374   9.066 -0.1258 -0.0864 -0.0748
  176loPI   C4A 2810  13.941  12.359   8.620  0.1146  0.0461  0.0578
  176loPI   C5A 2811  13.566  12.368   8.373  0.0724 -0.1709 -0.0681
  176loPI   C6A 2812  13.144  12.572   8.305  0.0029  0.2081 -0.0953
  176loPI   C1B 2813  14.631  12.276   9.725 -0.1177 -0.3430 -0.0269
  176loPI   C2B 2814  14.481  12.486   9.250  0.2418 -0.1452 -0.0749
  176loPI   C3B 2815  14.379  12.833   9.022 -0.2636 -0.2074 -0.1035
  176loPI   C4B 2816  14.367  12.947   8.612  0.0659 -0.1705 -0.1509
  177loPI    C1 2817  17.293   2.837  11.128  0.0510 -0.0677  0.0833
  177loPI    C2 2818  16.940   2.942  11.286  0.0455 -0.0247  0.0427
  177loPI    C3 2819  17.250   3.195  11.302  0.1009 -0.0991  0.1603
  177loPI   PO4 2820  17.087   2.600  10.958 -0.3558  0.1807 -0.0585
  177loPI   GL1 2821  16.874   2.640  10.652  0.1906  0.1094  0.1734
  177loPI   GL2 2822  16.940   2.993  10.683 -0.0761 -0.0900 -0.0313
  177loPI   C1A 2823  16.942   2.599  10.243 -0.2131 -0.2345 -0.3760
  177loPI   C2A 2824  17.108   2.578   9.779  0.4073 -0.0296  0.0004
  177loPI   C3A 2825  17.061   2.635   9.264 -0.0370 -0.0516 -0.2222
  177loPI   C4A 2826  17.312   2.630   8.951 -0.1519  0.1317  0.2068
  177loPI   C5A 2827  17.328   2.606   8.524 -0.2743  0.1040 -0.4152
  177loPI   C6A 2828  17.510   2.309   8.290  0.1447 -0.2342 -0.3186
  177loPI   C1B 2829  16.682   3.029  10.328  0.0153 -0.0090  0.0492
  177loPI   C2B 2830  16.496   3.078   9.865  0.3025 -0.1262 -0.1524
  177loPI   C3B 2831  16.525   3.027   9.393 -0.0223  0.4671  0.0468
  177loPI   C4B 2832  16.488   2.912   8.991  0.1662 -0.3048 -0.1249
  178loPI    C1 2833   4.878   2.582  11.023  0.1303  0.0165 -0.0210
  178loPI    C2 2834   4.502   2.449  11.044  0.1107  0.1001  0.1826
  178loPI    C3 2835   4.578   2.840  11.083  0.1890  0.1262 -0.1898
  178loPI   PO4 2836   5.003   2.466  10.854  0.1715  0.1426 -0.2048
  178loPI   GL1 2837   5.078   2.153  10.514  0.1173 -0.1865 -0.0169
  178loPI   GL2 2838   4.841   2.378  10.372  0.0714  0.0234  0.2231
  178loPI   C1A 2839   5.204   2.165  10.081 -0.0258  0.0521 -0.4287
  178loPI   C2A 2840   5.209   2.206   9.684  0.1649  0.1043 -0.0901
  178loPI   C3A 2841   5.210   2.340   9.316  0.0030 -0.0355 -0.0156
  178loPI   C4A 2842   5.103   2.464   8.924  0.0015 -0.2653 -0.0051
  178loPI   C5A 2843   5.120   2.573   8.484  0.1142 -0.0641  0.0081
  178loPI   C6A 2844   5.270   2.946   8.175 -0.1171  0.2683 -0.2037
  178loPI   C1B 2845   4.830   2.427   9.943 -0.1222  0.0152  0.0595
  178loPI   C2B 2846   4.760   2.526   9.428  0.0588  0.3240  0.1712
  178loPI   C3B 2847   4.594   2.383   8.993 -0.0104 -0.0929 -0.2503
  178loPI   C4B 2848   4.482   2.135   8.735  0.1538  0.1098  0.0002
  179loPI    C1 2849   8.143   6.290  11.091  0.0574 -0.1253  0.0662
  179loPI    C2 2850   8.442   6.339  11.352 -0.0198  0.0542  0.1225
  179loPI    C3 2851   8.075   6.250  11.483 -0.0383  0.0505  0.0683
  179loPI   PO4 2852   8.186   6.454  10.964 -0.2415 -0.2226  0.1072
  179loPI   GL1 2853   8.387   6.452  10.654 -0.0063 -0.5902  0.0424
  179loPI   GL2 2854   8.611   6.335  10.540 -0.1026 -0.0174 -0.0375
  179loPI   C1A 2855   8.361   6.785  10.309  0.1245  0.0169 -0.1299
  179loPI   C2A 2856   8.281   6.583   9.902  0.0476  0.0068  0.0630
  179loPI   C3A 2857   8.252   6.547   9.479  0.1816 -0.1944  0.1185
  179loPI   C4A 2858   8.314   6.686   9.032 -0.2527  0.0482 -0.0245
  179loPI   C5A 2859   8.479   6.705   8.652 -0.4717  0.0870  0.0181
  179loPI   C6A 2860   8.898   6.658   8.599  0.2630 -0.3852 -0.0999
  179loPI   C1B 2861   8.368   6.193  10.211 -0.2572  0.1099  0.2060
  179loPI   C2B 2862   8.379   6.024   9.801  0.3378  0.0827 -0.0455
  179loPI   C3B 2863   8.250   6.023   9.395  0.2771 -0.0967 -0.4953
  179loPI   C4B 2864   8.084   6.212   8.973 -0.0038 -0.2307 -0.2422
  180loPI    C1 2865  12.197   2.448  10.668  0.0627  0.2024 -0.1748
  180loPI    C2 2866  12.380   2.300  10.345 -0.0540  0.0927 -0.1914
  180loPI    C3 2867  12.322   2.068  10.666 -0.0590  0.1614 -0.1425
  180loPI   PO4 2868  12.203   2.734  10.524 -0.1582 -0.1903 -0.0575
  180loPI   GL1 2869  12.171   3.078  10.315 -0.1448  0.1061  0.1261
  180loPI   GL2 2870  12.273   3.378  10.313 -0.1616  0.3607  0.0949
  180loPI   C1A 2871  12.255   2.905   9.894  0.2415  0.1319  0.0191
  180loPI   C2A 2872  12.465   2.680   9.650  0.4313 -0.4939 -0.1405
  180loPI   C3A 2873  12.447   2.235   9.413  0.3411 -0.0772 -0.2609
  180loPI   C4A 2874  12.513   1.865   9.253 -0.1405 -0.1808 -0.2211
  180loPI   C5A 2875  12.747   1.594   9.145 -0.2745  0.2286 -0.0320
  180loPI   C6A 2876  12.976   1.282   9.103 -0.1309  0.2310 -0.0484
  180loPI   C1B 2877  12.059   3.407   9.885 -0.0081 -0.0483  0.2008
  180loPI   C2B 2878  12.067   3.181   9.478  0.0721  0.4259  0.1757
  180loPI   C3B 2879  12.134   2.972   9.264  0.2298 -0.0496  0.0656
  180loPI   C4B 2880  12.275   2.620   9.061 -0.0280 -0.2810 -0.0853
  181loPI    C1 2881  10.944   2.599  10.987 -0.2742  0.0374  0.0926
  181loPI    C2 2882  10.977   2.905  10.732 -0.0495 -0.0686 -0.0087
  181loPI    C3 2883  10.999   2.970  11.126 -0.0774  0.0545 -0.0269
  181loPI   PO4 2884  11.073   2.367  10.741  0.0826  0.2825  0.1975
  181loPI   GL1 2885  11.273   2.379  10.390 -0.3434 -0.2463  0.2516
  181loPI   GL2 2886  11.390   2.581  10.244 -0.2052  0.0470 -0.0741
  181loPI   C1A 2887  10.996   2.421  10.065 -0.0464  0.0684 -0.0097
  181loPI   C2A 2888  11.038   2.380   9.728 -0.1259  0.0692 -0.0914
  181loPI   C3A 2889  11.065   2.321   9.328  0.0465 -0.0877 -0.1299
  181loPI   C4A 2890  11.074   2.172   8.950 -0.2242  0.1312 -0.1200
  181loPI   C5A 2891  11.475   2.118   8.634  0.0876 -0.0119 -0.1968
  181loPI   C6A 2892  11.629   2.510   8.443 -0.1300  0.1570  0.1515
  181loPI   C1B 2893  11.503   2.453   9.840 -0.1889  0.1427 -0.1300
  181loPI   C2B 2894  11.527   2.151   9.448  0.0168 -0.2535  0.0423
  181loPI   C3B 2895  11.691   2.033   9.073 -0.0770  0.2190  0.2613
  181loPI   C4B 2896  11.985   1.968   8.622 -0.1593 -0.3281  0.1172
  182loPI    C1 2897  17.568  12.120  10.288 -0.0976  0.2050 -0.0613
  182loPI    C2 2898  17.500  12.433  10.049  0.0060  0.3449  0.0900
  182loPI    C3 2899  17.856  12.390  10.225  0.0194  0.0971  0.0068
  182loPI   PO4 2900  17.492  11.825  10.135 -0.2720  0.0692 -0.1406
  182loPI   GL1 2901  17.323  11.455   9.846  0.0270  0.1562 -0.3687
  182loPI   GL2 2902  17.678  11.588   9.745 -0.0731 -0.1001  0.1158
  182loPI   C1A 2903  17.046  11.273   9.510 -0.1958 -0.1627 -0.1004
  182loPI   C2A 2904  17.030  11.418   9.142 -0.1886  0.0645  0.0766
  182loPI   C3A 2905  17.139  11.475   8.708 -0.0310 -0.2213 -0.2359
  182loPI   C4A 2906  17.064  11.504   8.237 -0.5217 -0.0558  0.0615
  182loPI   C5A 2907  17.358  11.293   7.880 -0.2488  0.3106 -0.5577
  182loPI   C6A 2908  17.272  10.996   7.571 -0.0372  0.1185  0.2278
  182loPI   C1B 2909  17.595  11.466   9.312  0.0694  0.1043 -0.2736
  182loPI   C2B 2910  17.596  11.711   8.919 -0.1363 -0.1199 -0.2917
  182loPI   C3B 2911  17.638  11.984   8.557  0.0681  0.1128 -0.2500
  182loPI   C4B 2912  17.539  12.054   8.098 -0.0864  0.2028 -0.1828
  183loPI    C1 2913   0.295   9.596  10.745 -0.0129  0.0918  0.1288
  183loPI    C2 2914   0.032   9.575  10.445  0.0855 -0.0863  0.0535
  183loPI    C3 2915   0.171   9.931  10.563 -0.2060  0.0119  0.1107
  183loPI   PO4 2916   0.509   9.467  10.628  0.2646  0.1062  0.0205
  183loPI   GL1 2917   0.593   9.284  10.263  0.0216  0.3773  0.1634
  183loPI   GL2 2918   0.883   9.289  10.390 -0.1796 -0.0646 -0.1588
  183loPI   C1A 2919   0.622   9.149   9.811 -0.2227 -0.3383  0.2395
  183loPI   C2A 2920   0.624   9.008   9.431 -0.0383  0.0585 -0.1751
  183loPI   C3A 2921   0.682   9.029   9.072  0.3619 -0.2837  0.0905
  183loPI   C4A 2922   0.635   9.088   8.665 -0.1141  0.0171  0.0462
  183loPI   C5A 2923   0.431   8.974   8.247  0.0509  0.3676 -0.1448
  183loPI   C6A 2924   0.268   8.808   7.848  0.1316 -0.0123 -0.0192
  183loPI   C1B 2925   1.058   9.107  10.062 -0.3577 -0.0863  0.0244
  183loPI   C2B 2926   1.061   8.998   9.626  0.2755  0.0630 -0.0460
  183loPI   C3B 2927   1.223   8.915   9.205  0.0866  0.0101 -0.2310
  183loPI   C4B 2928   1.441   9.032   8.883 -0.2496  0.1554 -0.1221
  184loPI    C1 2929   0.440   5.925  10.726  0.0842 -0.1133 -0.0220
  184loPI    C2 2930   0.704   5.894  11.025  0.0624 -0.0052  0.0088
  184loPI    C3 2931   0.326   5.772  11.078  0.1265 -0.2387 -0.0624
  184loPI   PO4 2932   0.602   5.851  10.550  0.3673 -0.1480  0.0682
  184loPI   GL1 2933   0.978   5.998  10.255 -0.0172 -0.0185 -0.1137
  184loPI   GL2 2934   0.745   5.847   9.992 -0.0091 -0.0808  0.0095
  184loPI   C1A 2935   0.866   6.329   9.941 -0.1431 -0.0963  0.0578
  184loPI   C2A 2936   0.612   6.451   9.708 -0.1007 -0.2742 -0.0273
  184loPI   C3A 2937   0.371   6.339   9.340 -0.2892 -0.1643  0.0882
  184loPI   C4A 2938   0.372   6.350   8.969 -0.2821  0.0831  0.1371
  184loPI   C5A 2939   0.327   6.486   8.444  0.0257 -0.0102  0.2948
  184loPI   C6A 2940   0.138   6.273   8.130 -0.1510 -0.0014 -0.0788
  184loPI   C1B 2941   0.744   5.990   9.556  0.0741  0.1239  0.0339
  184loPI   C2B 2942   0.700   5.966   9.199  0.1023 -0.0729 -0.0510
  184loPI   C3B 2943   0.741   6.055   8.776 -0.1738  0.3405  0.0463
  184loPI   C4B 2944   0.862   6.148   8.331  0.0153 -0.0598  0.0696
  185loPI    C1 2945   2.511  16.212  10.598 -0.1602 -0.0873 -0.0076
  185loPI    C2 2946   2.797  15.956  10.711 -0.1509 -0.0379  0.0820
  185loPI    C3 2947   2.412  15.854  10.746 -0.1465 -0.0562  0.0776
  185loPI   PO4 2948   2.528  16.249  10.358 -0.1652 -0.0316  0.1139
  185loPI   GL1 2949   2.342  16.188  10.002  0.2033  0.0529 -0.0433
  185loPI   GL2 2950   2.037  16.184  10.022 -0.0523  0.2983 -0.0010
  185loPI   C1A 2951   2.456  16.033   9.665  0.0238  0.1678  0.0111
  185loPI   C2A 2952   2.335  16.022   9.181 -0.1218  0.0372 -0.1894
  185loPI   C3A 2953   2.475  16.206   8.811  0.0193 -0.2042 -0.0815
  185loPI   C4A 2954   2.655  16.217   8.436 -0.0016  0.1608 -0.0631
  185loPI   C5A 2955   2.634  16.292   7.952 -0.0334  0.1070 -0.0477
  185loPI   C6A 2956   2.454  16.444   7.627 -0.1557 -0.3480  0.0121
  185loPI   C1B 2957   2.039  16.336   9.603 -0.2901 -0.2452 -0.1977
  185loPI   C2B 2958   2.028  16.545   9.249 -0.0183 -0.2961  0.0114
  185loPI   C3B 2959   2.083  16.669   8.793 -0.1665  0.0593  0.1107
  185loPI   C4B 2960   2.409  16.658   8.482  0.2082 -0.1198 -0.0856
  186loPI    C1 2961  11.758   8.672  10.812 -0.0263 -0.0371  0.2134
  186loPI    C2 2962  11.484   8.695  11.103  0.1254 -0.1223  0.3651
  186loPI    C3 2963  11.752   8.989  11.056 -0.2167  0.1406 -0.0174
  186loPI   PO4 2964  11.695   8.585  10.549 -0.1691  0.1077 -0.0468
  186loPI   GL1 2965  11.615   8.801  10.210 -0.1097  0.0512  0.1032
  186loPI   GL2 2966  11.914   8.883  10.128 -0.0065  0.3106  0.2274
  186loPI   C1A 2967  11.618   8.701   9.756  0.1138  0.2723 -0.1822
  186loPI   C2A 2968  11.543   8.646   9.290  0.2256 -0.1244  0.0849
  186loPI   C3A 2969  11.890   8.654   8.909 -0.1781 -0.0427  0.3687
  186loPI   C4A 2970  11.972   8.598   8.430 -0.2731  0.1599  0.1831
  186loPI   C5A 2971  12.031   8.427   8.004 -0.3883  0.0290  0.1009
  186loPI   C6A 2972  12.145   8.067   7.850  0.0157 -0.1300 -0.2080
  186loPI   C1B 2973  12.038   8.898   9.653  0.1153 -0.2633  0.0683
  186loPI   C2B 2974  12.039   9.015   9.199 -0.3265 -0.1602  0.0347
  186loPI   C3B 2975  12.026   9.309   8.854  0.4419 -0.0222 -0.2657
  186loPI   C4B 2976  12.166   9.140   8.442 -0.2244 -0.2195  0.1473
  187loPI    C1 2977  10.714  12.250  10.961 -0.0987  0.1871  0.0113
  187loPI    C2 2978  10.480  12.056  11.220 -0.0506  0.0701 -0.0322
  187loPI    C3 2979  10.762  11.857  11.017  0.0021  0.1865 -0.0738
  187loPI   PO4 2980  10.599  12.378  10.746 -0.0024  0.2473 -0.3159
  187loPI   GL1 2981  10.689  12.428  10.429 -0.2684 -0.0021  0.1135
  187loPI   GL2 2982  10.529  12.056  10.419 -0.3274  0.2374  0.1201
  187loPI   C1A 2983  10.853  12.558   9.997 -0.3389  0.2203  0.1894
  187loPI   C2A 2984  10.814  12.553   9.551 -0.0694  0.0376 -0.0973
  187loPI   C3A 2985  10.753  12.653   9.054 -0.1274  0.1515  0.0217
  187loPI   C4A 2986  10.714  12.711   8.607  0.0164  0.0980 -0.1084
  187loPI   C5A 2987  10.396  12.983   8.428  0.0883 -0.0735 -0.1591
  187loPI   C6A 2988  10.173  13.314   8.230 -0.0491 -0.1588 -0.0426
  187loPI   C1B 2989  10.652  12.045  10.003  0.2212  0.0071  0.2644
  187loPI   C2B 2990  10.767  12.010   9.642 -0.2013 -0.0652 -0.0278
  187loPI   C3B 2991  10.912  11.994   9.268 -0.1906  0.2140  0.2404
  187loPI   C4B 2992  11.037  11.588   9.158 -0.3430 -0.1097  0.0898
  188loPI    C1 2993  15.843   8.368  10.646  0.0894 -0.0919  0.1619
  188loPI    C2 2994  15.465   8.266  10.727  0.0048  0.1195  0.0428
  188loPI    C3 2995  15.672   8.489  10.987  0.0184  0.0784  0.0674
  188loPI   PO4 2996  15.923   8.128  10.520  0.2373  0.4743 -0.1674
  188loPI   GL1 2997  15.664   8.115  10.213 -0.0843 -0.2660 -0.1155
  188loPI   GL2 2998  15.236   8.005  10.334 -0.0229  0.0536  0.1524
  188loPI   C1A 2999  15.899   8.169   9.864  0.0301 -0.1707 -0.0707
  188loPI   C2A 3000  16.090   8.115   9.490 -0.0756  0.0179 -0.2690
  188loPI   C3A 3001  16.365   8.282   9.344 -0.1849  0.0525  0.1276
  188loPI   C4A 3002  16.523   8.169   9.003  0.1389  0.3242  0.1437
  188loPI   C5A 3003  16.515   8.100   8.550 -0.0371 -0.0509  0.1535
  188loPI   C6A 3004  16.736   7.956   8.191  0.1341  0.1944 -0.2036
  188loPI   C1B 3005  15.318   8.331   9.901 -0.2640  0.4607  0.2694
  188loPI   C2B 3006  15.092   8.340   9.426 -0.0523  0.0306  0.1841
  188loPI   C3B 3007  14.999   8.362   8.968 -0.0907  0.2164 -0.1306
  188loPI   C4B 3008  15.019   8.527   8.565 -0.4669  0.1308  0.0505
  189loPI    C1 3009   8.190   3.907  10.900 -0.0365  0.1674 -0.1730
  189loPI    C2 3010   7.859   4.065  10.740 -0.1691  0.1650  0.0932
  189loPI    C3 3011   7.938   4.118  11.129  0.0752  0.0510  0.0608
  189loPI   PO4 3012   8.234   3.723  10.795  0.1333  0.0834 -0.0791
  189loPI   GL1 3013   8.460   3.677  10.455  0.3211 -0.1455 -0.1900
  189loPI   GL2 3014   8.311   3.557  10.260  0.1153 -0.3153  0.3236
  189loPI   C1A 3015   8.746   3.890  10.257  0.1263  0.0058 -0.0299
  189loPI   C2A 3016   8.756   4.046   9.851 -0.0027  0.0674 -0.0402
  189loPI   C3A 3017   8.724   4.074   9.403 -0.1152  0.1251 -0.1929
  189loPI   C4A 3018   8.750   4.088   8.982  0.1649 -0.0573  0.0158
  189loPI   C5A 3019   8.514   4.200   8.554 -0.0141 -0.0770 -0.2291
  189loPI   C6A 3020   8.145   4.058   8.264 -0.2176  0.1199 -0.2140
  189loPI   C1B 3021   8.449   3.604   9.857 -0.3206 -0.1469  0.1783
  189loPI   C2B 3022   8.386   3.573   9.383  0.0085 -0.0410 -0.1849
  189loPI   C3B 3023   8.217   3.759   9.070 -0.1438 -0.0466  0.1846
  189loPI   C4B 3024   8.107   3.950   8.754 -0.0825 -0.1853 -0.1401
  190loPI    C1 3025   3.237   9.761  10.558 -0.0130 -0.1644  0.0460
  190loPI    C2 3026   3.600   9.612  10.477 -0.0245  0.0850 -0.5062
  190loPI    C3 3027   3.272   9.408  10.373 -0.0518 -0.1449  0.0015
  190loPI   PO4 3028   3.317  10.040  10.437 -0.0911  0.0418  0.1057
  190loPI   GL1 3029   3.421  10.015  10.038 -0.1352  0.2629 -0.2153
  190loPI   GL2 3030   3.365   9.751   9.977  0.0005 -0.0888 -0.3492
  190loPI   C1A 3031   3.661  10.299   9.777  0.2912  0.0251  0.0068
  190loPI   C2A 3032   3.662  10.287   9.463 -0.0089  0.2071  0.1449
  190loPI   C3A 3033   3.792  10.259   9.169  0.1737 -0.0526 -0.3212
  190loPI   C4A 3034   3.803  10.305   8.772 -0.1592  0.1173  0.0992
  190loPI   C5A 3035   4.093  10.420   8.521 -0.1548  0.0810  0.1572
  190loPI   C6A 3036   4.540  10.615   8.651  0.1334  0.2302 -0.0676
  190loPI   C1B 3037   3.649   9.806   9.643 -0.0324 -0.1099  0.0505
  190loPI   C2B 3038   3.641   9.790   9.212  0.3373 -0.0432  0.1645
  190loPI   C3B 3039   3.707   9.798   8.855  0.2500 -0.0607 -0.1838
  190loPI   C4B 3040   3.615   9.955   8.463 -0.1768 -0.1461 -0.2728
  191loPI    C1 3041  15.715  15.234  10.369  0.1001  0.0579 -0.2874
  191loPI    C2 3042  15.467  14.921  10.389 -0.1299  0.2470 -0.1305
  191loPI    C3 3043  15.596  15.096  10.725  0.0585  0.2749 -0.2161
  191loPI   PO4 3044  15.901  15.239  10.171 -0.1111 -0.0349 -0.0264
  191loPI   GL1 3045  16.024  15.242   9.774 -0.2573 -0.2122  0.0418
  191loPI   GL2 3046  16.356  15.214   9.788  0.1663  0.0933  0.2580
  191loPI   C1A 3047  16.016  15.292   9.279 -0.0823  0.2091  0.0398
  191loPI   C2A 3048  16.025  15.458   8.902 -0.2415 -0.2283 -0.0873
  191loPI   C3A 3049  15.858  15.483   8.497 -0.0075  0.0137 -0.1778
  191loPI   C4A 3050  15.723  15.404   8.007 -0.1324  0.2410 -0.3500
  191loPI   C5A 3051  15.640  14.983   7.795  0.0466 -0.2373  0.0986
  191loPI   C6A 3052  15.759  14.783   7.493 -0.1463  0.0523  0.0677
  191loPI   C1B 3053  16.457  15.078   9.366  0.0234  0.0335 -0.0153
  191loPI   C2B 3054  16.496  15.194   8.914 -0.0829 -0.1691 -0.1159
  191loPI   C3B 3055  16.448  15.065   8.455  0.1811  0.2428  0.2563
  191loPI   C4B 3056  16.581  14.991   8.060 -0.0422 -0.1253 -0.4029
  192loPI    C1 3057  16.809   7.827  10.873  0.1689 -0.2127 -0.0159
  192loPI    C2 3058  16.642   7.545  10.644 -0.2823 -0.0014  0.0417
  192loPI    C3 3059  16.709   7.474  11.032  0.0583 -0.1968 -0.0489
  192loPI   PO4 3060  16.915   7.935  10.754 -0.1510  0.0867 -0.0422
  192loPI   GL1 3061  17.068   7.584  10.356  0.0377  0.1946 -0.1534
  192loPI   GL2 3062  17.354   7.556  10.323  0.0272  0.0065  0.0334
  192loPI   C1A 3063  16.945   7.865   9.959  0.0037 -0.0139 -0.1765
  192loPI   C2A 3064  17.261   7.883   9.667  0.2763 -0.2063 -0.2121
  192loPI   C3A 3065  17.300   7.963   9.298  0.0779 -0.2204 -0.1750
  192loPI   C4A 3066  17.085   8.063   8.947  0.2322  0.1398 -0.0172
  192loPI   C5A 3067  17.136   7.900   8.504 -0.2322 -0.1015  0.1019
  192loPI   C6A 3068  17.417   7.570   8.362 -0.3335 -0.1377 -0.1719
  192loPI   C1B 3069  17.451   7.470   9.875 -0.0993 -0.0974  0.2367
  192loPI   C2B 3070  17.652   7.625   9.455  0.4142 -0.2421 -0.3169
  192loPI   C3B 3071  17.847   7.791   9.132 -0.3467 -0.0575 -0.1924
  192loPI   C4B 3072  17.653   7.956   8.724 -0.0072 -0.5063 -0.2361
  193loPI    C1 3073   4.392  12.327  10.800  0.0860  0.0378 -0.0556
  193loPI    C2 3074   4.202  11.977  10.845  0.0224  0.0814  0.0166
  193loPI    C3 3075   4.290  12.200  11.165  0.0757  0.1251 -0.0281
  193loPI   PO4 3076   4.236  12.516  10.500 -0.1628 -0.4006  0.1269
  193loPI   GL1 3077   4.399  12.673  10.178 -0.1487  0.0320  0.1404
  193loPI   GL2 3078   4.462  12.885  10.171  0.2193 -0.0348  0.0456
  193loPI   C1A 3079   4.569  12.553   9.723 -0.1989 -0.2548  0.2036
  193loPI   C2A 3080   4.590  12.628   9.298 -0.2523  0.1727  0.2883
  193loPI   C3A 3081   4.491  12.916   8.939  0.2547 -0.2295  0.1351
  193loPI   C4A 3082   4.305  12.804   8.564 -0.0625  0.0243  0.1916
  193loPI   C5A 3083   3.977  12.716   8.376  0.0345 -0.3634 -0.2112
  193loPI   C6A 3084   3.776  12.706   7.981  0.0954 -0.1146 -0.0557
  193loPI   C1B 3085   4.603  13.052   9.761  0.2276  0.2735  0.1316
  193loPI   C2B 3086   4.609  13.106   9.404  0.2542 -0.3806  0.3694
  193loPI   C3B 3087   4.881  13.297   8.985 -0.3353  0.2488  0.2537
  193loPI   C4B 3088   4.679  13.258   8.620 -0.0638  0.2665  0.0400
  194loPI    C1 3089   9.118  14.631  11.161  0.2805 -0.0066  0.1607
  194loPI    C2 3090   8.943  14.642  11.521  0.0637 -0.1765  0.0628
  194loPI    C3 3091   9.342  14.654  11.491  0.0790 -0.0495  0.3022
  194loPI   PO4 3092   9.034  14.430  11.060  0.0401  0.1139 -0.0878
  194loPI   GL1 3093   9.183  14.276  10.709 -0.1018 -0.0767  0.0647
  194loPI   GL2 3094   9.046  14.088  10.555 -0.1356  0.0826 -0.1139
  194loPI   C1A 3095   9.079  14.599  10.334  0.2114  0.1014 -0.1522
  194loPI   C2A 3096   9.040  14.620   9.936 -0.0481  0.2273  0.2177
  194loPI   C3A 3097   9.070  14.581   9.438 -0.2399 -0.2135 -0.2280
  194loPI   C4A 3098   9.029  14.535   8.933 -0.0812  0.2647 -0.3589
  194loPI   C5A 3099   9.085  14.604   8.504  0.0230  0.1791 -0.0201
  194loPI   C6A 3100   9.391  14.670   8.124 -0.0155  0.3426  0.0301
  194loPI   C1B 3101   9.105  14.170  10.090  0.0760 -0.0488 -0.2855
  194loPI   C2B 3102   9.005  14.139   9.677  0.0112 -0.0107  0.1459
  194loPI   C3B 3103   8.874  14.179   9.281  0.3304 -0.4326  0.1116
  194loPI   C4B 3104   8.652  14.208   8.809  0.2526  0.0115  0.1318
  195loPI    C1 3105  13.369   6.260  10.691 -0.2265  0.0134  0.1212
  195loPI    C2 3106  13.574   5.945  10.830 -0.2925 -0.0848 -0.0022
  195loPI    C3 3107  13.534   6.273  11.055  0.0116 -0.0587  0.0179
  195loPI   PO4 3108  13.449   6.258  10.461  0.3242 -0.1747 -0.2175
  195loPI   GL1 3109  13.428   6.371  10.039 -0.0661  0.3279  0.1472
  195loPI   GL2 3110  13.610   6.120  10.039  0.3286 -0.0335  0.0744
  195loPI   C1A 3111  13.396   6.329   9.594  0.4087  0.0813  0.1781
  195loPI   C2A 3112  12.990   6.148   9.502 -0.0473  0.3676  0.2408
  195loPI   C3A 3113  12.900   5.934   9.049  0.2608 -0.1959 -0.1310
  195loPI   C4A 3114  12.927   5.878   8.556 -0.1646 -0.0838 -0.0681
  195loPI   C5A 3115  12.909   5.842   8.051 -0.0820 -0.0389  0.1542
  195loPI   C6A 3116  12.760   5.902   7.637 -0.0577  0.1273  0.2199
  195loPI   C1B 3117  13.858   6.260   9.669 -0.0404  0.1474 -0.0309
  195loPI   C2B 3118  13.795   6.317   9.228  0.2541 -0.0969  0.1519
  195loPI   C3B 3119  13.987   6.472   8.929 -0.2811 -0.0704 -0.0271
  195loPI   C4B 3120  14.069   6.641   8.491 -0.3327  0.0033 -0.0074
  196loPI    C1 3121   4.163  15.041  10.696 -0.1282 -0.0695  0.0277
  196loPI    C2 3122   4.317  14.785  10.429  0.0258  0.1376 -0.0847
  196loPI    C3 3123   4.413  14.752  10.816  0.0363  0.0191 -0.0971
  196loPI   PO4 3124   4.079  15.293  10.576 -0.2228  0.0651 -0.1766
  196loPI   GL1 3125   3.843  15.412  10.186 -0.3113  0.1744 -0.1656
  196loPI   GL2 3126   3.834  15.045  10.208  0.1575  0.1543  0.2183
  196loPI   C1A 3127   3.934  15.360   9.771 -0.0844 -0.1860 -0.1248
  196loPI   C2A 3128   3.919  15.343   9.289 -0.3373 -0.0526  0.0254
  196loPI   C3A 3129   3.782  15.552   9.043 -0.1282 -0.0017  0.1150
  196loPI   C4A 3130   3.545  15.658   8.655  0.0924  0.2338  0.0381
  196loPI   C5A 3131   3.216  15.671   8.313  0.1537 -0.0251  0.0389
  196loPI   C6A 3132   2.909  15.855   8.029  0.0455 -0.2935 -0.0173
  196loPI   C1B 3133   4.118  14.865   9.926 -0.0233  0.2833 -0.1923
  196loPI   C2B 3134   4.187  14.555   9.683  0.0658 -0.2135 -0.2765
  196loPI   C3B 3135   4.252  14.440   9.159  0.0312  0.0510  0.2227
  196loPI   C4B 3136   4.452  14.673   8.826 -0.1380 -0.1954 -0.5260
  197loPI    C1 3137   8.576   8.643  10.898 -0.1222 -0.0931 -0.1043
  197loPI    C2 3138   8.645   8.250  10.928 -0.3264 -0.1144  0.1124
  197loPI    C3 3139   8.847   8.507  11.158 -0.1124 -0.0816 -0.1084
  197loPI   PO4 3140   8.600   8.699  10.624  0.0141  0.0635  0.0299
  197loPI   GL1 3141   8.468   8.966  10.284  0.2309 -0.1204  0.2938
  197loPI   GL2 3142   8.257   8.899  10.250  0.0903 -0.2262 -0.0630
  197loPI   C1A 3143   8.652   8.695  10.011 -0.2395  0.0777  0.1196
  197loPI   C2A 3144   8.583   8.571   9.689 -0.1085  0.2979  0.0143
  197loPI   C3A 3145   8.547   8.469   9.377 -0.0856  0.4003  0.5518
  197loPI   C4A 3146   8.724   8.423   8.960 -0.1421  0.2631 -0.2915
  197loPI   C5A 3147   8.661   8.452   8.585 -0.0065 -0.0356 -0.0128
  197loPI   C6A 3148   8.400   8.888   8.333 -0.0613  0.2295 -0.3138
  197loPI   C1B 3149   8.030   8.668   9.967  0.1601 -0.0403 -0.4143
  197loPI   C2B 3150   7.607   8.525   9.888  0.0564  0.4565  0.0222
  197loPI   C3B 3151   7.240   8.234   9.896 -0.2833 -0.2086 -0.1192
  197loPI   C4B 3152   6.817   8.113  10.095  0.3919  0.1235  0.0530
  198loPI    C1 3153  11.118   8.997  10.941 -0.0129  0.0793  0.1113
  198loPI    C2 3154  10.987   8.627  11.016 -0.0135  0.0545 -0.0108
  198loPI    C3 3155  11.018   8.892  11.314 -0.1298 -0.0063  0.0564
  198loPI   PO4 3156  10.940   9.098  10.795  0.0599  0.0900 -0.1614
  198loPI   GL1 3157  10.832   9.205  10.463 -0.0734  0.3276  0.0443
  198loPI   GL2 3158  10.795   9.487  10.353 -0.1209  0.0781 -0.1856
  198loPI   C1A 3159  11.116   9.222  10.090 -0.0030  0.0144 -0.0525
  198loPI   C2A 3160  11.192   9.072   9.748  0.1189 -0.0055  0.0890
  198loPI   C3A 3161  11.184   9.153   9.346  0.1871  0.0587  0.0144
  198loPI   C4A 3162  11.522   9.320   8.976 -0.1095  0.2562 -0.1534
  198loPI   C5A 3163  11.293   9.365   8.602  0.2993  0.0770 -0.0842
  198loPI   C6A 3164  11.010   9.293   8.254  0.0217 -0.0247  0.4797
  198loPI   C1B 3165  10.751   9.538   9.935 -0.0441  0.3315 -0.2034
  198loPI   C2B 3166  10.970   9.517   9.635  0.2718 -0.2873 -0.0300
  198loPI   C3B 3167  10.857   9.431   9.146  0.3255 -0.1147  0.1636
  198loPI   C4B 3168  10.913   9.147   8.887 -0.0430 -0.3843  0.2241
  199loPI    C1 3169  14.055   6.054  10.664 -0.2113  0.1866  0.0421
  199loPI    C2 3170  14.145   6.161  11.039  0.2217  0.0631 -0.0211
  199loPI    C3 3171  14.047   5.782  10.957  0.3316  0.0438 -0.0650
  199loPI   PO4 3172  13.942   6.261  10.566  0.0843 -0.0638 -0.2396
  199loPI   GL1 3173  14.034   6.430  10.131 -0.0907  0.1350 -0.1347
  199loPI   GL2 3174  14.311   6.326  10.300 -0.1333 -0.1627 -0.0474
  199loPI   C1A 3175  14.217   6.658   9.753  0.0582  0.3343  0.1147
  199loPI   C2A 3176  14.213   6.733   9.256 -0.2446  0.0821  0.2439
  199loPI   C3A 3177  14.448   6.787   8.797  0.4025  0.5686 -0.1655
  199loPI   C4A 3178  14.592   6.894   8.417  0.2258  0.1315 -0.4782
  199loPI   C5A 3179  14.306   6.851   8.116  0.2822  0.2622  0.2590
  199loPI   C6A 3180  14.026   6.669   7.878  0.0759  0.0789 -0.3021
  199loPI   C1B 3181  14.607   6.429   9.937 -0.4083 -0.2136  0.0812
  199loPI   C2B 3182  14.705   6.612   9.444  0.2363 -0.1876  0.3526
  199loPI   C3B 3183  14.760   6.469   8.990  0.3016  0.3138  0.1697
  199loPI   C4B 3184  14.525   6.272   8.604 -0.1577 -0.1016  0.0177
  200loPI    C1 3185  11.798   1.728  10.763 -0.0194  0.0321  0.1327
  200loPI    C2 3186  11.857   2.118  10.830  0.1785  0.0353 -0.0488
  200loPI    C3 3187  12.038   1.846  11.061  0.0370  0.0498  0.0807
  200loPI   PO4 3188  11.753   1.749  10.542  0.3302  0.2878 -0.2171
  200loPI   GL1 3189  11.660   1.653  10.095 -0.3114 -0.0605 -0.1388
  200loPI   GL2 3190  11.465   1.446   9.959  0.1789  0.2768 -0.2761
  200loPI   C1A 3191  11.822   1.947   9.822  0.0371 -0.0364 -0.1405
  200loPI   C2A 3192  12.005   2.064   9.519 -0.0241  0.0099 -0.2118
  200loPI   C3A 3193  12.138   2.138   9.060  0.2041  0.1252 -0.1795
  200loPI   C4A 3194  12.386   2.072   8.803 -0.0825  0.3551  0.0389
  200loPI   C5A 3195  12.557   1.664   8.647 -0.2643  0.1002 -0.0610
  200loPI   C6A 3196  12.849   1.417   8.495  0.2257 -0.1806 -0.1019
  200loPI   C1B 3197  11.318   1.278   9.568 -0.1721  0.0609 -0.0959
  200loPI   C2B 3198  11.179   1.178   9.148 -0.0631 -0.0806 -0.0093
  200loPI   C3B 3199  11.047   1.300   8.785  0.2111  0.1577  0.0797
  200loPI   C4B 3200  10.643   1.221   8.655 -0.1870  0.0403 -0.1908
  201loPI    C1 3201  15.845   1.494  11.252 -0.1197  0.2099 -0.1080
  201loPI    C2 3202  16.143   1.338  11.468  0.0095 -0.0109 -0.4379
  201loPI    C3 3203  15.798   1.436  11.645  0.1742 -0.0204 -0.1037
  201loPI   PO4 3204  15.835   1.383  10.998  0.1916 -0.0357 -0.0044
  201loPI   GL1 3205  15.667   1.409  10.566 -0.3371 -0.3386  0.0012
  201loPI   GL2 3206  15.545   1.738  10.408  0.1451  0.1231 -0.1130
  201loPI   C1A 3207  15.774   1.300  10.142  0.0617  0.0562 -0.2177
  201loPI   C2A 3208  15.789   1.230   9.713 -0.0059  0.1460 -0.0079
  201loPI   C3A 3209  15.868   1.372   9.267 -0.0990  0.0164 -0.3479
  201loPI   C4A 3210  15.869   1.164   8.931  0.3202 -0.2489 -0.1536
  201loPI   C5A 3211  15.739   1.159   8.529 -0.1442 -0.1138  0.0444
  201loPI   C6A 3212  15.419   0.939   8.289  0.0062 -0.0339 -0.0363
  201loPI   C1B 3213  15.533   1.706  10.036  0.1327 -0.0535 -0.0528
  201loPI   C2B 3214  15.580   1.707   9.664 -0.2789 -0.1538  0.0589
  201loPI   C3B 3215  15.645   1.819   9.218 -0.0064 -0.4864  0.1253
  201loPI   C4B 3216  15.716   1.642   8.811  0.3299  0.3217  0.0960
  202loPI    C1 3217   6.874   4.085  11.111 -0.3140  0.1694 -0.2233
  202loPI    C2 3218   6.762   4.453  11.221  0.0820  0.2250  0.0130
  202loPI    C3 3219   7.117   4.309  11.336 -0.0883 -0.2528 -0.0354
  202loPI   PO4 3220   6.886   4.081  10.841  0.0536 -0.1079  0.1530
  202loPI   GL1 3221   7.048   4.201  10.497 -0.0617 -0.1827 -0.1107
  202loPI   GL2 3222   7.112   4.528  10.324  0.1689  0.3668  0.2332
  202loPI   C1A 3223   6.844   4.162  10.201 -0.0253 -0.3810 -0.0544
  202loPI   C2A 3224   6.836   4.394   9.907 -0.0680  0.3468 -0.1705
  202loPI   C3A 3225   6.853   4.791   9.643 -0.4609  0.0098  0.1009
  202loPI   C4A 3226   6.818   4.896   9.163 -0.3864  0.2504  0.1619
  202loPI   C5A 3227   7.095   4.871   8.816 -0.0859 -0.0033 -0.0338
  202loPI   C6A 3228   7.342   4.549   8.615 -0.0671 -0.1748  0.0631
  202loPI   C1B 3229   7.292   4.200  10.081  0.0163 -0.0376  0.0113
  202loPI   C2B 3230   7.146   4.016   9.735 -0.1267 -0.1651  0.1907
  202loPI   C3B 3231   7.186   3.994   9.290  0.0945 -0.0121  0.1051
  202loPI   C4B 3232   7.395   4.306   9.015 -0.0352  0.4147 -0.0190
  203loPI    C1 3233   1.223   8.801  10.981  0.1289  0.0567 -0.1048
  203loPI    C2 3234   1.017   9.123  10.865 -0.0922 -0.0585 -0.0388
  203loPI    C3 3235   1.035   9.026  11.252  0.0976 -0.0437 -0.0425
  203loPI   PO4 3236   1.416   8.832  10.773  0.1447 -0.1443  0.0969
  203loPI   GL1 3237   1.562   8.966  10.450  0.3131  0.1085 -0.4650
  203loPI   GL2 3238   1.579   8.658  10.347 -0.0289  0.1575  0.1392
  203loPI   C1A 3239   1.691   9.072  10.048  0.0401 -0.0697 -0.0391
  203loPI   C2A 3240   1.636   9.154   9.611 -0.2963 -0.0093 -0.2659
  203loPI   C3A 3241   1.853   8.938   9.199  0.1785  0.0985  0.0485
  203loPI   C4A 3242   1.927   8.788   8.748 -0.0784  0.0210  0.0403
  203loPI   C5A 3243   2.160   8.644   8.424  0.1478  0.3971  0.1881
  203loPI   C6A 3244   2.430   8.768   8.073 -0.1632 -0.0101 -0.0394
  203loPI   C1B 3245   1.413   8.711   9.935 -0.1713 -0.0757 -0.0165
  203loPI   C2B 3246   1.549   8.663   9.510 -0.1856  0.0769 -0.1849
  203loPI   C3B 3247   1.678   8.511   9.098 -0.0050 -0.1984 -0.0919
  203loPI   C4B 3248   1.539   8.545   8.606  0.3796  0.0150 -0.0943
  204loPI    C1 3249  13.956   1.639  10.421  0.0862 -0.2234  0.0802
  204loPI    C2 3250  14.333   1.744  10.503  0.0460  0.1419 -0.1801
  204loPI    C3 3251  14.237   1.613  10.137 -0.0760  0.0258 -0.1074
  204loPI   PO4 3252  13.766   1.810  10.475  0.2986  0.2557  0.2020
  204loPI   GL1 3253  13.676   2.001  10.149  0.0128  0.0047 -0.0661
  204loPI   GL2 3254  13.659   1.782   9.953 -0.0432  0.1735  0.3109
  204loPI   C1A 3255  13.826   2.370   9.946 -0.0675 -0.0912  0.0045
  204loPI   C2A 3256  13.963   2.420   9.517  0.2913 -0.0846 -0.3954
  204loPI   C3A 3257  14.187   2.537   9.099  0.0984  0.0562  0.0188
  204loPI   C4A 3258  14.281   2.735   8.657  0.2271  0.1267 -0.0937
  204loPI   C5A 3259  14.140   3.063   8.343  0.1588  0.0274 -0.2507
  204loPI   C6A 3260  14.146   3.233   7.886  0.0227  0.5017 -0.0991
  204loPI   C1B 3261  13.666   2.037   9.575  0.0137  0.0659  0.0275
  204loPI   C2B 3262  13.725   1.862   9.198  0.0698  0.2462  0.0701
  204loPI   C3B 3263  13.663   1.459   8.953  0.1124 -0.0755  0.2103
  204loPI   C4B 3264  13.676   1.297   8.556 -0.2446  0.0869  0.2360
  205loPI    C1 3265   1.984  13.498  10.620  0.0152 -0.0891  0.1187
  205loPI    C2 3266   1.903  13.821  10.842  0.0615 -0.0105  0.0222
  205loPI    C3 3267   1.691  13.485  10.892  0.1323 -0.0235  0.2496
  205loPI   PO4 3268   2.040  13.507  10.392 -0.0800  0.1061 -0.0541
  205loPI   GL1 3269   1.838  13.678  10.000 -0.0843 -0.0651  0.2099
  205loPI   GL2 3270   2.119  13.756   9.980 -0.1529  0.0929 -0.4892
  205loPI   C1A 3271   1.751  13.735   9.667 -0.2361 -0.3266 -0.1235
  205loPI   C2A 3272   1.902  13.871   9.252  0.1532  0.1471 -0.0041
  205loPI   C3A 3273   2.053  13.836   8.880  0.2103  0.0363 -0.2463
  205loPI   C4A 3274   2.092  13.836   8.430  0.0116  0.0409  0.0702
  205loPI   C5A 3275   2.402  13.711   8.105 -0.0107 -0.2256  0.1007
  205loPI   C6A 3276   2.613  13.636   7.790 -0.2293 -0.0668  0.3079
  205loPI   C1B 3277   2.245  13.904   9.670 -0.3716  0.0953 -0.2456
  205loPI   C2B 3278   2.393  13.887   9.279 -0.0298 -0.0488 -0.2127
  205loPI   C3B 3279   2.498  14.062   8.877  0.0418 -0.3463 -0.0404
  205loPI   C4B 3280   2.670  13.912   8.495  0.0821 -0.1327 -0.2778
  206loPI    C1 3281  11.886  10.327  10.893 -0.1261 -0.0861 -0.1793
  206loPI    C2 3282  11.563  10.341  11.129 -0.0272 -0.0405 -0.0455
  206loPI    C3 3283  11.778  10.004  11.104 -0.0538 -0.0541 -0.0924
  206loPI   PO4 3284  11.764  10.509  10.746  0.0596  0.3158 -0.0114
  206loPI   GL1 3285  11.734  10.838  10.342  0.0728  0.1699 -0.2469
  206loPI   GL2 3286  11.467  10.853  10.443  0.1571 -0.1633  0.2269
  206loPI   C1A 3287  11.737  10.552  10.078 -0.2157 -0.0102  0.1545
  206loPI   C2A 3288  11.882  10.566   9.719  0.0226 -0.0215  0.2373
  206loPI   C3A 3289  11.970  10.569   9.291 -0.0677  0.3082 -0.2964
  206loPI   C4A 3290  11.966  10.781   8.875  0.2928  0.1516 -0.0331
  206loPI   C5A 3291  11.868  10.804   8.461 -0.0854  0.2472  0.0856
  206loPI   C6A 3292  12.089  10.937   8.125 -0.0646  0.1199 -0.2343
  206loPI   C1B 3293  11.330  10.814   9.984 -0.1295  0.0608  0.2978
  206loPI   C2B 3294  11.367  10.671   9.648 -0.2675  0.0412  0.1635
  206loPI   C3B 3295  11.509  10.306   9.527  0.0061 -0.0652  0.2573
  206loPI   C4B 3296  11.856  10.070   9.341  0.3414  0.3352  0.2328
  207loPI    C1 3297   8.159  13.726  11.144  0.2497  0.5827  0.2314
  207loPI    C2 3298   8.108  13.967  10.829  0.0145  0.1889 -0.0402
  207loPI    C3 3299   7.819  13.933  11.103 -0.1829 -0.1799 -0.2849
  207loPI   PO4 3300   8.482  13.691  11.043  0.2480  0.0343 -0.1350
  207loPI   GL1 3301   8.645  13.691  10.669 -0.4233 -0.2412 -0.0196
  207loPI   GL2 3302   8.681  13.352  10.631  0.1300 -0.3403  0.1585
  207loPI   C1A 3303   8.653  13.850  10.281  0.0291  0.2242 -0.1003
  207loPI   C2A 3304   8.587  13.997   9.943  0.1227 -0.0536  0.1681
  207loPI   C3A 3305   8.346  14.096   9.589 -0.1652  0.2956  0.0368
  207loPI   C4A 3306   8.041  14.055   9.488 -0.1457 -0.0344 -0.1767
  207loPI   C5A 3307   7.650  14.267   9.638  0.2859 -0.0170  0.0489
  207loPI   C6A 3308   7.633  14.557   9.836  0.2862 -0.0654 -0.2057
  207loPI   C1B 3309   8.529  13.383  10.201 -0.0163 -0.0326 -0.0570
  207loPI   C2B 3310   8.507  13.461   9.792  0.1297 -0.3324 -0.3048
  207loPI   C3B 3311   8.229  13.596   9.443  0.5115  0.0614 -0.4480
  207loPI   C4B 3312   8.347  13.907   9.105  0.1177 -0.0922  0.0887
  208loPI    C1 3313  10.394  14.641  11.200  0.0490  0.1204 -0.0849
  208loPI    C2 3314  10.009  14.751  11.203 -0.1243 -0.4491 -0.2556
  208loPI    C3 3315  10.167  14.569  11.522  0.1488  0.2186  0.0083
  208loPI   PO4 3316  10.370  14.432  10.973  0.1479 -0.0944  0.1711
  208loPI   GL1 3317  10.237  14.513  10.599 -0.0740 -0.1459 -0.2433
  208loPI   GL2 3318  10.310  14.247  10.491  0.4495  0.1359 -0.1541
  208loPI   C1A 3319  10.131  14.575  10.103  0.0608  0.3051 -0.0275
  208loPI   C2A 3320  10.013  14.606   9.718  0.2841 -0.1208  0.1447
  208loPI   C3A 3321  10.072  14.678   9.266  0.0685 -0.2369  0.0981
  208loPI   C4A 3322  10.042  14.701   8.807  0.1367 -0.1541 -0.0490
  208loPI   C5A 3323  10.304  14.710   8.311  0.1447 -0.1187  0.1368
  208loPI   C6A 3324  10.246  14.708   7.835 -0.2033 -0.1701 -0.1220
  208loPI   C1B 3325  10.486  14.286   9.997 -0.3458  0.1256 -0.3286
  208loPI   C2B 3326  10.378  14.377   9.516  0.2057 -0.1092 -0.0893
  208loPI   C3B 3327  10.392  14.379   9.036  0.0967 -0.0629 -0.0913
  208loPI   C4B 3328  10.545  14.527   8.723  0.0930  0.1747  0.3080
  209loPI    C1 3329   2.945   5.264  10.411  0.1158 -0.1794 -0.0199
  209loPI    C2 3330   2.950   5.166  10.798 -0.0673  0.0804  0.0510
  209loPI    C3 3331   2.845   4.894  10.524 -0.0143 -0.0817  0.1899
  209loPI   PO4 3332   2.944   5.505  10.406 -0.3780  0.1217 -0.0774
  209loPI   GL1 3333   2.902   5.759  10.100 -0.0311 -0.1953  0.3649
  209loPI   GL2 3334   3.266   5.532  10.011  0.0281  0.0638 -0.0389
  209loPI   C1A 3335   2.835   5.916   9.692  0.1819 -0.1797  0.0545
  209loPI   C2A 3336   2.979   6.102   9.397 -0.1489  0.0816 -0.0569
  209loPI   C3A 3337   3.172   6.183   9.060  0.2357 -0.0556  0.1646
  209loPI   C4A 3338   3.463   6.245   8.848  0.0851 -0.0305 -0.4556
  209loPI   C5A 3339   3.824   6.299   8.968 -0.0301  0.0505 -0.0857
  209loPI   C6A 3340   4.040   6.476   9.234 -0.2094 -0.0082 -0.0581
  209loPI   C1B 3341   3.443   5.438   9.650 -0.0913  0.3017  0.0507
  209loPI   C2B 3342   3.303   5.371   9.241  0.0518 -0.2169  0.2594
  209loPI   C3B 3343   3.230   5.695   8.857  0.2055  0.0456 -0.5877
  209loPI   C4B 3344   3.119   5.857   8.567 -0.1055  0.0896  0.0990
  210loPI    C1 3345   7.366   3.597  11.116  0.0239  0.0415 -0.0958
  210loPI    C2 3346   7.438   3.524  11.502  0.1554  0.0903 -0.1104
  210loPI    C3 3347   7.138   3.767  11.397  0.0316 -0.0327 -0.0446
  210loPI   PO4 3348   7.609   3.718  10.998  0.2297 -0.1930  0.1721
  210loPI   GL1 3349   7.755   3.588  10.600  0.0701  0.3163  0.0556
  210loPI   GL2 3350   7.942   3.267  10.482  0.1859  0.1310 -0.0570
  210loPI   C1A 3351   7.775   3.825  10.304 -0.3634 -0.2241 -0.4210
  210loPI   C2A 3352   7.616   3.860   9.981  0.1486  0.0170  0.0003
  210loPI   C3A 3353   7.615   3.838   9.457 -0.5010  0.3454 -0.0344
  210loPI   C4A 3354   7.709   3.876   9.040 -0.2295  0.1010  0.1960
  210loPI   C5A 3355   7.576   3.780   8.633  0.2763  0.0931 -0.1223
  210loPI   C6A 3356   7.354   3.453   8.286 -0.0445 -0.0144  0.1075
  210loPI   C1B 3357   7.692   3.390  10.106 -0.4153 -0.1615 -0.1843
  210loPI   C2B 3358   7.938   3.531   9.783 -0.4909 -0.0370  0.2472
  210loPI   C3B 3359   7.914   3.445   9.328 -0.2666  0.2172  0.0914
  210loPI   C4B 3360   7.749   3.378   8.819 -0.3078 -0.0561 -0.1340
  211loPI    C1 3361   3.322  16.939  10.846  0.2408 -0.1307  0.0313
  211loPI    C2 3362   3.125  16.805  11.167 -0.0791  0.0674 -0.0776
  211loPI    C3 3363   3.512  16.902  11.196 -0.1086  0.0984  0.2513
  211loPI   PO4 3364   3.210  16.746  10.657 -0.0918  0.0886 -0.1560
  211loPI   GL1 3365   3.370  16.703  10.226 -0.2589 -0.4460 -0.0726
  211loPI   GL2 3366   3.226  16.966  10.066  0.2204 -0.1861  0.0754
  211loPI   C1A 3367   3.685  17.012   9.950  0.0926  0.3327 -0.1844
  211loPI   C2A 3368   3.947  17.437  10.025  0.0226 -0.0458 -0.2484
  211loPI   C3A 3369   4.260  17.662   9.863  0.0519 -0.0206 -0.1284
  211loPI   C4A 3370   4.306  17.784   9.434 -0.0767  0.0214  0.0717
  211loPI   C5A 3371   4.105  17.704   9.158  0.2623  0.3386  0.0722
  211loPI   C6A 3372   3.885  17.436   9.023  0.1187  0.0088  0.0634
  211loPI   C1B 3373   3.229  16.882   9.619 -0.2236 -0.1710 -0.0410
  211loPI   C2B 3374   2.996  16.647   9.263  0.4888 -0.1012 -0.0625
  211loPI   C3B 3375   2.944  16.229   9.103 -0.2028  0.0165 -0.1994
  211loPI   C4B 3376   2.812  15.835   9.244  0.0707 -0.0466 -0.0722
  212loPI    C1 3377   8.781  13.314  11.270 -0.0114 -0.0215 -0.1070
  212loPI    C2 3378   8.781  13.668  11.456  0.1505 -0.0602 -0.0314
  212loPI    C3 3379   8.455  13.437  11.466  0.0644  0.0605 -0.0314
  212loPI   PO4 3380   8.947  13.428  11.038  0.0768 -0.3869 -0.0046
  212loPI   GL1 3381   9.116  13.176  10.593 -0.1108 -0.0102  0.1045
  212loPI   GL2 3382   9.016  12.980  10.402  0.0232 -0.3653  0.3295
  212loPI   C1A 3383   9.153  13.488  10.241  0.0333  0.0364 -0.0249
  212loPI   C2A 3384   8.980  13.672   9.825  0.1667  0.1482  0.0352
  212loPI   C3A 3385   8.735  13.695   9.433 -0.2329 -0.2054  0.0406
  212loPI   C4A 3386   8.852  13.732   8.979  0.0886 -0.0372 -0.2059
  212loPI   C5A 3387   8.481  13.734   8.630 -0.2584 -0.5130  0.0492
  212loPI   C6A 3388   8.067  13.874   8.555  0.2309  0.0341 -0.0413
  212loPI   C1B 3389   8.974  13.046   9.995 -0.1542 -0.1528  0.1476
  212loPI   C2B 3390   8.891  13.197   9.633 -0.0552 -0.2081 -0.1433
  212loPI   C3B 3391   8.894  13.227   9.122 -0.2223  0.0825 -0.1958
  212loPI   C4B 3392   8.966  13.284   8.736 -0.1978  0.1909 -0.0616
  213loPI    C1 3393   8.623  16.554  11.029  0.0404 -0.1723 -0.0421
  213loPI    C2 3394   8.352  16.357  11.248  0.1672 -0.2170  0.0764
  213loPI    C3 3395   8.727  16.396  11.382  0.1525  0.0782  0.0394
  213loPI   PO4 3396   8.519  16.554  10.755 -0.2303  0.1475  0.1717
  213loPI   GL1 3397   8.638  16.308  10.457  0.2988  0.0279 -0.1978
  213loPI   GL2 3398   8.476  16.454  10.254 -0.2471 -0.2411  0.2154
  213loPI   C1A 3399   8.923  16.196  10.248  0.0364 -0.1178  0.0876
  213loPI   C2A 3400   9.139  15.981   9.861 -0.0982  0.0929  0.0291
  213loPI   C3A 3401   9.440  16.012   9.553  0.1190 -0.3674  0.0978
  213loPI   C4A 3402   9.340  15.970   9.147  0.2888  0.0579  0.2074
  213loPI   C5A 3403   9.439  15.849   8.663  0.0537 -0.0703  0.1500
  213loPI   C6A 3404   9.462  15.524   8.409 -0.0577 -0.3451 -0.2352
  213loPI   C1B 3405   8.474  16.534   9.782 -0.2640 -0.0433 -0.0862
  213loPI   C2B 3406   8.553  16.598   9.345  0.0811 -0.1763  0.2147
  213loPI   C3B 3407   8.562  16.608   8.871  0.0032  0.2544  0.1463
  213loPI   C4B 3408   8.475  16.634   8.460 -0.2158 -0.2076  0.1569
  214loPI    C1 3409  16.258   8.529  11.003 -0.1299 -0.1432 -0.0368
  214loPI    C2 3410  16.444   8.761  11.271 -0.1080 -0.0688 -0.1161
  214loPI    C3 3411  16.311   8.399  11.378  0.1590 -0.1591 -0.0803
  214loPI   PO4 3412  16.305   8.601  10.748 -0.0235 -0.1595  0.0031
  214loPI   GL1 3413  16.345   8.598  10.215  0.1516  0.0298  0.0267
  214loPI   GL2 3414  16.216   8.325  10.223 -0.1036  0.0220 -0.1545
  214loPI   C1A 3415  16.162   8.550   9.754  0.1054  0.1278 -0.1606
  214loPI   C2A 3416  16.080   8.797   9.511  0.0543 -0.0099  0.1871
  214loPI   C3A 3417  16.036   8.718   9.141 -0.0341  0.0071 -0.0384
  214loPI   C4A 3418  16.031   8.369   8.936 -0.1470  0.3464 -0.3007
  214loPI   C5A 3419  16.069   7.897   8.776  0.2189 -0.1827  0.2297
  214loPI   C6A 3420  16.178   7.746   8.464  0.0427 -0.1312 -0.3759
  214loPI   C1B 3421  16.427   8.176   9.939 -0.0262 -0.0694 -0.1504
  214loPI   C2B 3422  16.505   7.902   9.641  0.0663  0.4098 -0.2030
  214loPI   C3B 3423  16.765   7.815   9.286 -0.1436  0.0159 -0.2260
  214loPI   C4B 3424  16.718   7.730   8.852 -0.0840 -0.0769  0.1191
  215loPI    C1 3425  13.511  14.954  10.864 -0.0717  0.0106 -0.0976
  215loPI    C2 3426  13.296  14.735  10.608 -0.1903  0.0926 -0.0691
  215loPI    C3 3427  13.243  14.692  11.002 -0.0624  0.0213 -0.0589
  215loPI   PO4 3428  13.538  15.166  10.744  0.2526  0.0718  0.1180
  215loPI   GL1 3429  13.221  15.213  10.382  0.1009 -0.2793 -0.1426
  215loPI   GL2 3430  13.042  15.532  10.295 -0.2534 -0.1188 -0.2198
  215loPI   C1A 3431  13.353  15.183   9.960 -0.3397 -0.2218 -0.4879
  215loPI   C2A 3432  13.398  15.316   9.628 -0.2855  0.0781  0.0683
  215loPI   C3A 3433  13.491  15.144   9.220 -0.0676  0.2661 -0.0600
  215loPI   C4A 3434  13.689  14.938   8.877 -0.1714  0.2163 -0.1258
  215loPI   C5A 3435  13.552  14.925   8.463 -0.4909  0.0875  0.2450
  215loPI   C6A 3436  13.435  15.099   8.037  0.1824 -0.2012 -0.0744
  215loPI   C1B 3437  12.903  15.476   9.926 -0.2387 -0.2138  0.1402
  215loPI   C2B 3438  12.684  15.651   9.634  0.2758  0.1766  0.0713
  215loPI   C3B 3439  12.665  15.733   9.244  0.1621 -0.1618 -0.1570
  215loPI   C4B 3440  12.960  16.071   9.049 -0.1209 -0.2086 -0.0973
  216loPI    C1 3441   4.325  17.088  10.807 -0.0932 -0.2661 -0.0414
  216loPI    C2 3442   4.663  16.952  10.642  0.2009  0.2366  0.1242
  216loPI    C3 3443   4.559  16.835  11.010  0.0723 -0.0937 -0.0138
  216loPI   PO4 3444   4.161  17.077  10.577 -0.0497  0.1362 -0.1431
  216loPI   GL1 3445   4.099  16.840  10.276  0.6025 -0.1183  0.0953
  216loPI   GL2 3446   3.887  16.620  10.187  0.0075  0.2086 -0.0289
  216loPI   C1A 3447   4.476  16.789  10.112  0.1434 -0.0296  0.0076
  216loPI   C2A 3448   4.668  16.755   9.673 -0.1038 -0.0166  0.1495
  216loPI   C3A 3449   4.862  16.549   9.316  0.0159  0.1355 -0.0757
  216loPI   C4A 3450   4.929  16.549   8.918  0.0391  0.3440  0.0118
  216loPI   C5A 3451   5.010  16.853   8.543  0.0582 -0.0682  0.1732
  216loPI   C6A 3452   5.087  16.862   8.130 -0.3247  0.0211  0.1132
  216loPI   C1B 3453   3.641  16.503   9.757  0.1665 -0.3198 -0.3263
  216loPI   C2B 3454   3.583  16.672   9.403  0.0879 -0.0160 -0.0228
  216loPI   C3B 3455   3.407  16.741   8.968 -0.0992 -0.1138 -0.0588
  216loPI   C4B 3456   3.065  16.532   8.678 -0.0555  0.2441 -0.1951
  217loPI    C1 3457   2.808  13.149  10.695 -0.0154  0.2347 -0.0242
  217loPI    C2 3458   2.608  13.495  10.714 -0.1151  0.1677  0.1842
  217loPI    C3 3459   2.783  13.347  11.042 -0.0327  0.0436  0.0851
  217loPI   PO4 3460   2.884  13.138  10.410  0.0719 -0.0632  0.2553
  217loPI   GL1 3461   3.043  13.405  10.029  0.1709  0.5084 -0.0310
  217loPI   GL2 3462   3.204  13.492  10.311  0.1250 -0.2302  0.1682
  217loPI   C1A 3463   3.025  13.369   9.618 -0.0837 -0.0118  0.2550
  217loPI   C2A 3464   3.008  13.324   9.125  0.0898 -0.1760 -0.1678
  217loPI   C3A 3465   3.208  13.074   8.708  0.0893 -0.1593  0.2869
  217loPI   C4A 3466   3.470  12.864   8.365 -0.0239  0.1345 -0.2023
  217loPI   C5A 3467   3.598  12.373   8.347 -0.1056  0.1322 -0.0315
  217loPI   C6A 3468   3.783  11.829   8.297 -0.0396  0.2024  0.3508
  217loPI   C1B 3469   3.328  13.738   9.854 -0.0122  0.1132 -0.0397
  217loPI   C2B 3470   3.428  13.767   9.407 -0.0951 -0.1931  0.0921
  217loPI   C3B 3471   3.360  13.857   9.007 -0.0332 -0.0542  0.1567
  217loPI   C4B 3472   3.133  14.020   8.751  0.2508 -0.0690 -0.2109
  218loPI    C1 3473   0.038  11.618  10.233 -0.2123  0.1668 -0.1867
  218loPI    C2 3474   0.424  11.663  10.328 -0.2545  0.1269  0.0064
  218loPI    C3 3475   0.180  11.980  10.326 -0.1613  0.2011 -0.3919
  218loPI   PO4 3476   0.050  11.362  10.298 -0.1051  0.0467 -0.0785
  218loPI   GL1 3477  -0.124  11.128   9.991  0.5340  0.2961  0.3699
  218loPI   GL2 3478   0.180  10.994   9.869  0.0992  0.1612  0.0561
  218loPI   C1A 3479  -0.411  10.932   9.757  0.2569 -0.1863  0.1449
  218loPI   C2A 3480  -0.518  10.935   9.331  0.1727  0.0828 -0.1885
  218loPI   C3A 3481  -0.564  11.068   8.893 -0.1701 -0.0710  0.0371
  218loPI   C4A 3482  -0.684  11.003   8.341 -0.1463 -0.1258 -0.1509
  218loPI   C5A 3483  -0.766  10.765   7.988  0.0107  0.1198  0.4597
  218loPI   C6A 3484  -1.089  10.395   7.961 -0.0025  0.2419  0.0397
  218loPI   C1B 3485   0.032  11.100   9.498  0.1228 -0.1113 -0.2367
  218loPI   C2B 3486  -0.059  11.154   9.056 -0.0109  0.1185 -0.2661
  218loPI   C3B 3487  -0.229  11.301   8.586  0.4416  0.0731  0.0389
  218loPI   C4B 3488  -0.311  11.517   8.279  0.2187  0.0387  0.1228
  219loPI    C1 3489  12.152  11.426  10.932 -0.0320  0.0704 -0.0069
  219loPI    C2 3490  12.442  11.593  11.151  0.1169  0.2834 -0.3587
  219loPI    C3 3491  12.059  11.651  11.249  0.1841  0.2782 -0.0877
  219loPI   PO4 3492  12.269  11.488  10.681  0.5478  0.0873  0.0298
  219loPI   GL1 3493  12.321  11.377  10.328 -0.2003  0.1258  0.0151
  219loPI   GL2 3494  12.493  11.542  10.129  0.1112 -0.0415 -0.1993
  219loPI   C1A 3495  12.190  11.117  10.119 -0.5626  0.4841  0.3067
  219loPI   C2A 3496  11.898  10.977   9.900  0.0838  0.0765 -0.2274
  219loPI   C3A 3497  11.719  11.025   9.428 -0.1960  0.0002  0.4198
  219loPI   C4A 3498  11.474  10.662   9.186 -0.3053 -0.2128  0.2585
  219loPI   C5A 3499  11.466  10.589   8.787 -0.0620 -0.0877  0.1140
  219loPI   C6A 3500  11.544  10.371   8.390 -0.1799  0.0115 -0.3008
  219loPI   C1B 3501  12.370  11.544   9.789 -0.1473 -0.0420  0.0158
  219loPI   C2B 3502  12.317  11.618   9.285 -0.2722  0.1025 -0.4963
  219loPI   C3B 3503  12.305  11.657   8.802 -0.1703 -0.0484  0.0788
  219loPI   C4B 3504  12.548  11.676   8.423  0.0975 -0.0334  0.1051
  220loPI    C1 3505  17.297  10.480  10.559 -0.3194  0.0401  0.0413
  220loPI    C2 3506  17.119  10.649  10.875 -0.0735 -0.0637  0.2387
  220loPI    C3 3507  17.476  10.474  10.917 -0.0445 -0.0907 -0.0957
  220loPI   PO4 3508  17.115  10.358  10.462 -0.0385  0.0564  0.1554
  220loPI   GL1 3509  16.956   9.973  10.132 -0.2059  0.0105  0.0906
  220loPI   GL2 3510  16.843  10.237  10.004 -0.0731 -0.0904  0.2224
  220loPI   C1A 3511  17.198   9.783   9.839 -0.0570 -0.0947  0.1385
  220loPI   C2A 3512  17.133   9.719   9.417  0.1748 -0.0493  0.2967
  220loPI   C3A 3513  17.137   9.555   8.989  0.1773 -0.1225 -0.0769
  220loPI   C4A 3514  17.010   9.370   8.577  0.1511  0.0613 -0.3221
  220loPI   C5A 3515  16.994   9.519   8.192  0.1611 -0.1095  0.1807
  220loPI   C6A 3516  16.962   9.956   7.965  0.0943  0.0103 -0.0091
  220loPI   C1B 3517  16.841  10.067   9.621  0.2234 -0.0990 -0.0101
  220loPI   C2B 3518  16.834  10.063   9.114 -0.0529  0.3166  0.2542
  220loPI   C3B 3519  16.947  10.155   8.727 -0.1317  0.0186 -0.0317
  220loPI   C4B 3520  17.222  10.308   8.298 -0.3006  0.1647 -0.1121
  221loPI    C1 3521   7.689   5.413  11.299 -0.0786 -0.0370  0.1647
  221loPI    C2 3522   7.429   5.701  11.399 -0.1322 -0.0261 -0.0013
  221loPI    C3 3523   7.433   5.355  11.600 -0.3031 -0.0417 -0.0239
  221loPI   PO4 3524   7.625   5.458  11.005 -0.2474 -0.1014  0.3360
  221loPI   GL1 3525   7.499   5.791  10.724 -0.1372  0.0322 -0.1533
  221loPI   GL2 3526   7.767   5.646  10.497 -0.0862 -0.2124 -0.1868
  221loPI   C1A 3527   7.545   6.022  10.332  0.0647  0.2918 -0.1179
  221loPI   C2A 3528   7.556   5.738   9.914  0.5401  0.0519 -0.0694
  221loPI   C3A 3529   7.514   5.553   9.473  0.0309 -0.0708  0.0767
  221loPI   C4A 3530   7.497   5.273   9.095  0.1080 -0.0582 -0.0157
  221loPI   C5A 3531   7.526   5.105   8.648  0.0223  0.0283  0.0224
  221loPI   C6A 3532   7.495   5.118   8.169 -0.2389 -0.3596  0.1105
  221loPI   C1B 3533   7.308   5.433  10.320  0.0632  0.0445 -0.0630
  221loPI   C2B 3534   7.109   5.532   9.893 -0.0806  0.0999  0.2344
  221loPI   C3B 3535   7.018   5.326   9.488  0.0948  0.2163  0.1769
  221loPI   C4B 3536   7.261   4.985   9.405  0.0222 -0.0384 -0.1522
  222loPI    C1 3537  10.623  11.513  11.441  0.0267  0.0992  0.0065
  222loPI    C2 3538  10.425  11.330  11.737  0.2798 -0.0025  0.1162
  222loPI    C3 3539  10.824  11.305  11.717  0.2738  0.0880 -0.1780
  222loPI   PO4 3540  10.415  11.521  11.171 -0.0428  0.1851 -0.1305
  222loPI   GL1 3541  10.439  11.316  10.835 -0.1339 -0.1700 -0.1135
  222loPI   GL2 3542  10.703  11.488  10.692  0.4216  0.3761  0.0505
  222loPI   C1A 3543  10.399  11.148  10.356  0.0837  0.0403 -0.1684
  222loPI   C2A 3544  10.368  11.183   9.955 -0.3166  0.1645  0.1474
  222loPI   C3A 3545  10.249  11.367   9.573  0.3047  0.1512  0.2049
  222loPI   C4A 3546  10.092  11.281   9.196  0.0735  0.0497 -0.1010
  222loPI   C5A 3547  10.091  11.359   8.806  0.3721  0.2119 -0.1426
  222loPI   C6A 3548  10.008  11.230   8.351 -0.0102  0.1180  0.2684
  222loPI   C1B 3549  10.578  11.612  10.287  0.2150 -0.1864 -0.1458
  222loPI   C2B 3550  10.560  11.618   9.874  0.1845 -0.0634  0.0096
  222loPI   C3B 3551  10.528  11.687   9.367 -0.0439 -0.0309  0.0771
  222loPI   C4B 3552  10.534  11.755   8.933  0.2076 -0.0190 -0.1849
  223loPI    C1 3553   0.516  17.780  10.867 -0.1733  0.1481 -0.3633
  223loPI    C2 3554   0.278  17.948  11.141  0.1649  0.1051 -0.0348
  223loPI    C3 3555   0.258  17.554  11.073  0.1764  0.0934  0.0291
  223loPI   PO4 3556   0.539  17.889  10.664  0.0247 -0.0891 -0.0262
  223loPI   GL1 3557   0.409  18.224  10.312 -0.1031  0.1087  0.1041
  223loPI   GL2 3558   0.129  18.134  10.297 -0.1476 -0.0451  0.2243
  223loPI   C1A 3559   0.466  18.432   9.849  0.3062  0.1230  0.0221
  223loPI   C2A 3560   0.592  18.468   9.431  0.2217 -0.0518  0.3526
  223loPI   C3A 3561   0.699  18.404   9.051 -0.0457  0.0731 -0.1240
  223loPI   C4A 3562   0.926  18.725   8.853  0.1584  0.2329  0.0503
  223loPI   C5A 3563   1.078  19.101   8.656 -0.3870 -0.0882  0.1204
  223loPI   C6A 3564   1.408  19.287   8.404  0.3731 -0.1845  0.2792
  223loPI   C1B 3565   0.249  17.994   9.853  0.0489  0.0658  0.2911
  223loPI   C2B 3566   0.337  17.960   9.532  0.0571 -0.1639  0.3551
  223loPI   C3B 3567   0.328  18.046   9.058 -0.0615 -0.1949  0.1405
  223loPI   C4B 3568   0.186  18.062   8.734  0.2483  0.2519 -0.3547
  224loPI    C1 3569   6.208   0.100  10.959  0.2128 -0.0415  0.0603
  224loPI    C2 3570   6.161   0.456  11.135  0.1344  0.0505 -0.1442
  224loPI    C3 3571   6.405   0.184  11.297 -0.1027  0.0508  0.2247
  224loPI   PO4 3572   6.231   0.153  10.735  0.0242 -0.1742 -0.4119
  224loPI   GL1 3573   6.133   0.375  10.366  0.0543 -0.0363  0.2096
  224loPI   GL2 3574   5.874   0.252  10.340  0.0566  0.0208 -0.2452
  224loPI   C1A 3575   6.137   0.172   9.896 -0.0002 -0.4989  0.1758
  224loPI   C2A 3576   6.290   0.120   9.419 -0.1536  0.0020  0.3003
  224loPI   C3A 3577   6.356   0.102   8.969 -0.1311 -0.0617  0.1263
  224loPI   C4A 3578   6.211   0.135   8.491  0.1138 -0.0587  0.0721
  224loPI   C5A 3579   6.099   0.418   8.120  0.0433  0.3675  0.0918
  224loPI   C6A 3580   6.412   0.491   7.708  0.0255 -0.3794 -0.2673
  224loPI   C1B 3581   5.633   0.319   9.981 -0.1251 -0.0239  0.1262
  224loPI   C2B 3582   5.452   0.380   9.563 -0.0154  0.2122  0.3495
  224loPI   C3B 3583   5.383   0.311   9.086  0.4613  0.2322  0.1592
  224loPI   C4B 3584   5.220   0.277   8.670  0.4326 -0.0660  0.1495
  225loPI    C1 3585   1.491  15.372  10.499 -0.2525 -0.1616 -0.0008
  225loPI    C2 3586   1.567  15.198  10.851 -0.1361 -0.1600 -0.0246
  225loPI    C3 3587   1.231  15.409  10.801 -0.0771 -0.0254  0.1358
  225loPI   PO4 3588   1.732  15.345  10.390  0.1202  0.1944 -0.0130
  225loPI   GL1 3589   1.798  15.261   9.937 -0.2520  0.1813  0.2242
  225loPI   GL2 3590   1.993  15.035  10.028  0.1601  0.0727 -0.1783
  225loPI   C1A 3591   1.557  15.134   9.687  0.2031 -0.1319 -0.2133
  225loPI   C2A 3592   1.607  15.157   9.244  0.0656  0.1630 -0.0974
  225loPI   C3A 3593   1.459  15.184   8.802 -0.0886 -0.2105 -0.0100
  225loPI   C4A 3594   1.333  15.254   8.451  0.1344 -0.2108 -0.0803
  225loPI   C5A 3595   0.984  15.387   8.171 -0.3323  0.2192 -0.1659
  225loPI   C6A 3596   0.673  15.720   8.297 -0.2142  0.3244 -0.2135
  225loPI   C1B 3597   2.146  14.730   9.703  0.0923 -0.0004 -0.0174
  225loPI   C2B 3598   2.012  14.749   9.248 -0.1452  0.2386 -0.2381
  225loPI   C3B 3599   1.931  15.015   8.878 -0.2247  0.1533 -0.1892
  225loPI   C4B 3600   1.920  15.329   8.551  0.0794 -0.2301 -0.3063
  226loPI    C1 3601   8.009   0.590  10.920 -0.3224  0.2095 -0.2142
  226loPI    C2 3602   8.053   0.890  11.181  0.2832 -0.1285  0.0937
  226loPI    C3 3603   7.851   0.561  11.286 -0.0300 -0.0026 -0.1009
  226loPI   PO4 3604   7.916   0.747  10.677 -0.1453  0.0207  0.1565
  226loPI   GL1 3605   7.748   0.987  10.271 -0.0087  0.1254 -0.0869
  226loPI   GL2 3606   7.535   1.280  10.404 -0.0899  0.3132 -0.0046
  226loPI   C1A 3607   7.504   0.936   9.907 -0.1194 -0.0774  0.0710
  226loPI   C2A 3608   7.393   0.894   9.456 -0.1604 -0.0070  0.2891
  226loPI   C3A 3609   7.343   0.858   9.002  0.0366  0.0163 -0.2127
  226loPI   C4A 3610   7.151   1.136   8.666 -0.0976  0.0281  0.1172
  226loPI   C5A 3611   6.936   1.373   8.464  0.2493 -0.1136  0.0003
  226loPI   C6A 3612   6.783   1.668   8.168  0.0192 -0.0289 -0.0365
  226loPI   C1B 3613   7.767   1.430  10.009 -0.3103 -0.0628  0.0542
  226loPI   C2B 3614   7.742   1.441   9.565  0.1656  0.1272 -0.0198
  226loPI   C3B 3615   7.779   1.542   9.169  0.2128  0.0960 -0.1283
  226loPI   C4B 3616   7.893   1.731   8.837 -0.2201  0.1264  0.1548
  227loPI    C1 3617  13.781   5.254  10.342  0.0373 -0.0306 -0.0718
  227loPI    C2 3618  13.994   5.165  10.668 -0.1018 -0.1860 -0.0221
  227loPI    C3 3619  13.717   5.453  10.683  0.2149  0.1316 -0.1312
  227loPI   PO4 3620  13.701   5.112  10.274 -0.1835  0.0946 -0.1200
  227loPI   GL1 3621  13.559   5.161   9.888  0.3022 -0.0330  0.0904
  227loPI   GL2 3622  13.348   4.921   9.876 -0.0319  0.1647 -0.0056
  227loPI   C1A 3623  13.496   5.384   9.456  0.1702 -0.1699  0.0111
  227loPI   C2A 3624  13.641   5.276   9.012 -0.3269  0.0315 -0.0321
  227loPI   C3A 3625  13.690   5.206   8.566 -0.1076  0.0761 -0.0271
  227loPI   C4A 3626  13.976   4.938   8.340  0.0140  0.3600  0.0919
  227loPI   C5A 3627  14.451   4.701   8.340 -0.0226  0.3309  0.3766
  227loPI   C6A 3628  14.894   4.442   8.553  0.0645 -0.0835 -0.1390
  227loPI   C1B 3629  13.282   4.678   9.494 -0.0499  0.1383 -0.4057
  227loPI   C2B 3630  13.302   4.657   8.992 -0.2629 -0.1849 -0.1964
  227loPI   C3B 3631  13.205   4.345   8.723  0.1755 -0.1702  0.0237
  227loPI   C4B 3632  13.204   4.123   8.369  0.0193 -0.0782 -0.1726
  228loPI    C1 3633  17.866   7.588  10.772  0.1585  0.0054 -0.0378
  228loPI    C2 3634  18.098   7.558  11.096  0.1578  0.0218 -0.0356
  228loPI    C3 3635  18.116   7.279  10.811  0.1518  0.0025 -0.0171
  228loPI   PO4 3636  17.732   7.855  10.692  0.1448  0.4453 -0.3974
  228loPI   GL1 3637  17.439   8.021  10.459  0.0157 -0.0576 -0.2860
  228loPI   GL2 3638  17.115   8.123  10.329 -0.0148  0.2334  0.1338
  228loPI   C1A 3639  17.594   8.006  10.084 -0.2217 -0.0182  0.1451
  228loPI   C2A 3640  17.803   8.085   9.694  0.0563 -0.0124 -0.0623
  228loPI   C3A 3641  17.782   8.283   9.408 -0.0173  0.1982 -0.0588
  228loPI   C4A 3642  17.848   8.343   8.971 -0.3305  0.1860  0.0954
  228loPI   C5A 3643  17.949   8.398   8.574 -0.1230 -0.3320 -0.1924
  228loPI   C6A 3644  18.196   8.154   8.143  0.0809 -0.0938  0.1220
  228loPI   C1B 3645  17.299   8.365  10.007  0.3411  0.3092 -0.4496
  228loPI   C2B 3646  17.340   8.386   9.531  0.0512  0.0708 -0.3135
  228loPI   C3B 3647  17.365   8.442   9.125 -0.0021 -0.1628  0.1996
  228loPI   C4B 3648  17.463   8.444   8.706  0.1704 -0.0713  0.2614
  229loPI    C1 3649  16.831   6.439  10.658 -0.1726 -0.5284  0.1297
  229loPI    C2 3650  16.484   6.565  10.812  0.0693  0.0146  0.2539
  229loPI    C3 3651  16.755   6.388  11.048 -0.0484 -0.2517  0.1927
  229loPI   PO4 3652  16.925   6.696  10.545  0.0639 -0.2724  0.2042
  229loPI   GL1 3653  17.134   6.957  10.414  0.0255 -0.2955  0.0966
  229loPI   GL2 3654  17.402   6.770  10.468  0.1379  0.1965  0.0323
  229loPI   C1A 3655  17.300   7.024  10.067  0.2871 -0.1482 -0.0879
  229loPI   C2A 3656  17.516   7.001   9.641  0.1935  0.2178 -0.0863
  229loPI   C3A 3657  17.466   7.004   9.289 -0.2420  0.1450 -0.0061
  229loPI   C4A 3658  17.384   7.101   8.859  0.1408  0.2331 -0.3243
  229loPI   C5A 3659  17.474   7.011   8.453  0.2446  0.0247  0.0594
  229loPI   C6A 3660  17.532   6.549   8.215 -0.0251  0.1609 -0.0253
  229loPI   C1B 3661  17.485   6.522  10.075 -0.3999 -0.3036  0.2693
  229loPI   C2B 3662  17.392   6.522   9.554  0.1097  0.1703 -0.0475
  229loPI   C3B 3663  17.374   6.496   9.057 -0.1629  0.2864 -0.1799
  229loPI   C4B 3664  17.664   6.379   8.719  0.0887  0.1009 -0.4398
  230loPI    C1 3665   1.050   2.255  10.856  0.0205 -0.0546  0.1226
  230loPI    C2 3666   0.746   2.486  10.977  0.0353 -0.1275  0.3020
  230loPI    C3 3667   1.056   2.649  10.783  0.0482  0.0052  0.4325
  230loPI   PO4 3668   0.962   2.098  10.711 -0.2671 -0.1145  0.0827
  230loPI   GL1 3669   1.240   1.967  10.454  0.0263 -0.1844 -0.4139
  230loPI   GL2 3670   1.182   2.276  10.320 -0.3207 -0.0597  0.0446
  230loPI   C1A 3671   1.041   1.925  10.003 -0.0135 -0.0472 -0.0986
  230loPI   C2A 3672   0.927   2.006   9.585 -0.0663 -0.0408  0.2361
  230loPI   C3A 3673   1.056   2.054   9.196 -0.1739 -0.0533 -0.0875
  230loPI   C4A 3674   1.056   2.242   8.747 -0.0885  0.0543 -0.1643
  230loPI   C5A 3675   1.150   2.491   8.466  0.4440 -0.1177  0.3337
  230loPI   C6A 3676   1.366   2.749   8.002  0.1669  0.1082  0.1174
  230loPI   C1B 3677   1.053   2.433   9.921  0.0966  0.0306  0.0470
  230loPI   C2B 3678   1.081   2.544   9.479  0.0766  0.0301 -0.0625
  230loPI   C3B 3679   0.877   2.598   9.171  0.1310 -0.1032 -0.2532
  230loPI   C4B 3680   0.639   2.565   8.777 -0.2177 -0.4047 -0.3643
  231loPI    C1 3681  13.195   0.996  10.310 -0.0341 -0.0259 -0.0939
  231loPI    C2 3682  13.449   0.704  10.205 -0.0574 -0.1151  0.0942
  231loPI    C3 3683  13.173   0.638  10.488 -0.1678  0.0404  0.0247
  231loPI   PO4 3684  13.021   1.097  10.093  0.2037  0.1339  0.1963
  231loPI   GL1 3685  13.212   1.367   9.828 -0.3140 -0.0666  0.2054
  231loPI   GL2 3686  13.095   1.349   9.537 -0.0413  0.1841 -0.2237
  231loPI   C1A 3687  13.575   1.498   9.484 -0.0755  0.0930 -0.2838
  231loPI   C2A 3688  13.912   1.145   9.323  0.0544  0.1694  0.1934
  231loPI   C3A 3689  13.891   0.947   8.980  0.0376 -0.1346  0.1736
  231loPI   C4A 3690  14.198   1.020   8.671  0.1201 -0.3257  0.0059
  231loPI   C5A 3691  14.440   1.165   8.320  0.0786  0.1549  0.0687
  231loPI   C6A 3692  14.662   1.294   8.027 -0.1869 -0.1934  0.1117
  231loPI   C1B 3693  12.810   1.581   9.647  0.0409 -0.0281  0.0348
  231loPI   C2B 3694  12.672   1.967   9.763 -0.3049  0.2115  0.1349
  231loPI   C3B 3695  12.346   2.163   9.858  0.0715 -0.1304 -0.0141
  231loPI   C4B 3696  12.070   2.425   9.922  0.0644  0.1592 -0.0511
  232loPI    C1 3697  12.060   4.245  10.971 -0.0282  0.0282  0.1323
  232loPI    C2 3698  12.122   3.851  11.004  0.1702  0.0610  0.1589
  232loPI    C3 3699  11.875   4.036  11.258 -0.0100 -0.0641  0.0772
  232loPI   PO4 3700  12.089   4.286  10.694 -0.2463  0.0077  0.0721
  232loPI   GL1 3701  12.362   4.322  10.363 -0.1218 -0.3934 -0.0031
  232loPI   GL2 3702  12.605   4.122  10.314  0.1479 -0.0347 -0.0279
  232loPI   C1A 3703  12.476   4.319   9.810 -0.0751  0.0173 -0.0940
  232loPI   C2A 3704  12.586   4.148   9.431  0.1194 -0.0117  0.1274
  232loPI   C3A 3705  12.481   3.869   9.032 -0.0607  0.0962  0.1482
  232loPI   C4A 3706  12.210   3.820   8.668 -0.0243 -0.1639  0.2009
  232loPI   C5A 3707  12.275   3.776   8.257  0.1294 -0.0288 -0.1306
  232loPI   C6A 3708  12.339   3.400   8.010  0.1375  0.3207 -0.0213
  232loPI   C1B 3709  12.835   4.102  10.056 -0.2882  0.3247 -0.0175
  232loPI   C2B 3710  13.097   4.162   9.688  0.5148  0.2640  0.2000
  232loPI   C3B 3711  13.553   4.236   9.474 -0.1553  0.1830  0.0137
  232loPI   C4B 3712  13.710   4.350   9.104 -0.2586  0.0550  0.2154
  233loPI    C1 3713   0.681  13.217  10.593 -0.3515  0.1552  0.0283
  233loPI    C2 3714   0.691  13.500  10.875  0.2944  0.0003  0.1757
  233loPI    C3 3715   0.822  13.131  10.957 -0.1088 -0.2230 -0.1492
  233loPI   PO4 3716   0.694  13.413  10.386 -0.1598  0.0744  0.2429
  233loPI   GL1 3717   1.075  13.587  10.085 -0.1916 -0.0367  0.1437
  233loPI   GL2 3718   0.848  13.758   9.971  0.2838  0.1094  0.1103
  233loPI   C1A 3719   1.140  13.458   9.672  0.3565  0.1702  0.1934
  233loPI   C2A 3720   1.114  13.366   9.289 -0.0244  0.0988 -0.0552
  233loPI   C3A 3721   0.891  13.207   8.887 -0.2526  0.0659  0.0216
  233loPI   C4A 3722   1.014  13.106   8.573 -0.0389 -0.0583 -0.1209
  233loPI   C5A 3723   1.104  12.774   8.278 -0.2363  0.1955 -0.0065
  233loPI   C6A 3724   0.923  12.665   7.937  0.0834 -0.1782 -0.0351
  233loPI   C1B 3725   0.779  13.993   9.734  0.1301  0.3042  0.3192
  233loPI   C2B 3726   0.684  14.129   9.302  0.0902  0.3037 -0.0237
  233loPI   C3B 3727   0.351  14.196   8.942 -0.1248 -0.1229  0.3013
  233loPI   C4B 3728   0.308  14.119   8.535  0.2437  0.0836 -0.0696
  234loPI    C1 3729   1.486  12.734  10.386 -0.1424  0.1173  0.1383
  234loPI    C2 3730   1.669  13.089  10.412 -0.1272  0.0937  0.3738
  234loPI    C3 3731   1.882  12.752  10.438 -0.1196  0.0643 -0.0117
  234loPI   PO4 3732   1.333  12.737  10.198 -0.0938 -0.0419  0.0178
  234loPI   GL1 3733   1.233  13.000   9.889  0.0927 -0.0428  0.1248
  234loPI   GL2 3734   1.445  13.197   9.959  0.0662  0.2419  0.0893
  234loPI   C1A 3735   1.178  12.893   9.518  0.0532 -0.1069 -0.0424
  234loPI   C2A 3736   1.042  12.794   9.142  0.2316 -0.0144  0.1897
  234loPI   C3A 3737   1.213  12.628   8.767  0.1663 -0.0067  0.2257
  234loPI   C4A 3738   1.507  12.579   8.525 -0.2161 -0.3220  0.0263
  234loPI   C5A 3739   1.448  12.132   8.433 -0.2271 -0.0452 -0.2334
  234loPI   C6A 3740   1.569  11.812   8.641  0.0070  0.1143  0.2014
  234loPI   C1B 3741   1.571  13.323   9.474  0.2649  0.2061 -0.1807
  234loPI   C2B 3742   1.584  13.518   9.128 -0.3597 -0.1507 -0.2118
  234loPI   C3B 3743   1.712  13.469   8.763 -0.1355  0.2743  0.2362
  234loPI   C4B 3744   1.652  13.677   8.411  0.3135 -0.3767  0.1498
  235loPI    C1 3745   6.725   1.152  11.055  0.2071 -0.1298 -0.0912
  235loPI    C2 3746   6.353   1.071  11.177  0.1775  0.0733 -0.0435
  235loPI    C3 3747   6.496   1.444  11.204  0.4706 -0.0506  0.1705
  235loPI   PO4 3748   6.713   0.957  10.719  0.0733  0.1125  0.2510
  235loPI   GL1 3749   6.577   0.623  10.431 -0.1145  0.0458 -0.1624
  235loPI   GL2 3750   6.554   0.651  10.083 -0.0353 -0.1341 -0.1648
  235loPI   C1A 3751   6.966   0.536  10.228  0.2133 -0.2752  0.0685
  235loPI   C2A 3752   7.203   0.560   9.826 -0.0149 -0.1604 -0.1950
  235loPI   C3A 3753   7.134   0.481   9.451 -0.0828  0.0107 -0.2920
  235loPI   C4A 3754   7.274   0.387   9.077 -0.0952 -0.1231  0.0412
  235loPI   C5A 3755   7.149   0.521   8.604 -0.1850  0.2706  0.0007
  235loPI   C6A 3756   7.049   0.834   8.315 -0.0184 -0.4744 -0.3113
  235loPI   C1B 3757   6.392   0.598   9.622 -0.0933  0.0767 -0.0276
  235loPI   C2B 3758   6.371   0.618   9.134  0.2924 -0.0360  0.0973
  235loPI   C3B 3759   6.398   0.540   8.694  0.0599  0.1102  0.3108
  235loPI   C4B 3760   6.331   0.734   8.370 -0.2327  0.1901 -0.0490
  236loPI    C1 3761   6.097   6.018  11.134  0.1198  0.3203  0.0665
  236loPI    C2 3762   6.462   5.903  11.018  0.0820  0.1514  0.1123
  236loPI    C3 3763   6.397   6.004  11.399  0.0587  0.0887  0.1249
  236loPI   PO4 3764   5.912   5.837  10.894 -0.3241 -0.1491  0.0926
  236loPI   GL1 3765   5.961   5.459  10.741 -0.1529  0.0917  0.0185
  236loPI   GL2 3766   6.147   5.227  10.855 -0.1623 -0.3196  0.2433
  236loPI   C1A 3767   6.000   5.525  10.318 -0.0776 -0.2031 -0.1311
  236loPI   C2A 3768   6.205   5.583   9.928  0.3101  0.0881 -0.0921
  236loPI   C3A 3769   6.192   5.584   9.479  0.0711  0.0392  0.0882
  236loPI   C4A 3770   6.094   5.688   9.084  0.2038 -0.1721  0.1759
  236loPI   C5A 3771   5.995   5.749   8.657  0.3920 -0.1678  0.0280
  236loPI   C6A 3772   5.707   5.789   8.442  0.3174 -0.0654 -0.0368
  236loPI   C1B 3773   6.316   4.958  10.510  0.4034 -0.2710 -0.0565
  236loPI   C2B 3774   6.604   4.837  10.183  0.2168  0.1847 -0.0622
  236loPI   C3B 3775   7.029   4.981  10.080  0.1826 -0.0360 -0.1578
  236loPI   C4B 3776   7.414   4.949  10.347 -0.2064 -0.2785 -0.0247
  237loPI    C1 3777  11.772   2.956  10.604 -0.0335  0.2322  0.0998
  237loPI    C2 3778  11.467   2.808  10.816  0.1409 -0.0723  0.1442
  237loPI    C3 3779  11.709   2.561  10.614  0.0497  0.2043 -0.3169
  237loPI   PO4 3780  11.637   3.092  10.423 -0.0915 -0.4835 -0.0082
  237loPI   GL1 3781  11.650   3.541  10.183  0.0914 -0.1905 -0.0043
  237loPI   GL2 3782  11.698   3.759  10.102 -0.2525 -0.2672 -0.1291
  237loPI   C1A 3783  11.508   3.300   9.849 -0.1385 -0.0505  0.0721
  237loPI   C2A 3784  11.539   3.180   9.400 -0.0959 -0.2073  0.1919
  237loPI   C3A 3785  11.770   3.268   9.101 -0.0783  0.2054  0.0135
  237loPI   C4A 3786  11.702   3.477   8.674  0.1337  0.0371  0.1286
  237loPI   C5A 3787  11.583   3.724   8.386 -0.0370  0.1545 -0.0033
  237loPI   C6A 3788  11.373   4.075   8.062 -0.0047  0.4013  0.1532
  237loPI   C1B 3789  11.690   3.658   9.606  0.2071  0.1702 -0.0443
  237loPI   C2B 3790  11.641   3.745   9.094  0.0925 -0.0163 -0.1018
  237loPI   C3B 3791  11.692   4.013   8.797  0.0179 -0.3445 -0.2363
  237loPI   C4B 3792  11.433   4.236   8.590 -0.1127  0.4010 -0.1149
  238loPI    C1 3793   4.040   8.016  11.178 -0.1940 -0.1915  0.1559
  238loPI    C2 3794   4.163   7.828  11.509 -0.0289  0.0897  0.2577
  238loPI    C3 3795   4.225   8.221  11.468  0.0663  0.0357 -0.1634
  238loPI   PO4 3796   3.973   7.801  10.942 -0.1440 -0.2024  0.0016
  238loPI   GL1 3797   3.962   7.800  10.522 -0.1288 -0.2997  0.0372
  238loPI   GL2 3798   4.218   7.720  10.336 -0.1283  0.1988  0.1152
  238loPI   C1A 3799   3.768   7.614  10.171 -0.0936 -0.0297  0.0344
  238loPI   C2A 3800   3.692   7.352   9.895 -0.0680  0.0815 -0.0477
  238loPI   C3A 3801   3.960   7.218   9.510  0.0725 -0.1774  0.0436
  238loPI   C4A 3802   4.154   7.202   9.031 -0.0855  0.0720 -0.2507
  238loPI   C5A 3803   4.262   7.205   8.545  0.1915  0.2259  0.0433
  238loPI   C6A 3804   4.355   7.576   8.274 -0.2362  0.0981 -0.1636
  238loPI   C1B 3805   4.216   7.788   9.894  0.2534 -0.0467 -0.0736
  238loPI   C2B 3806   4.309   8.002   9.559 -0.1369 -0.0439 -0.0974
  238loPI   C3B 3807   4.392   8.045   9.174  0.0515  0.0749 -0.0966
  238loPI   C4B 3808   4.477   8.062   8.726  0.0619 -0.0076 -0.0050
  239loPI    C1 3809  10.510  10.251  11.039  0.0508 -0.1313  0.1003
  239loPI    C2 3810  10.773  10.549  10.990 -0.3827  0.2499  0.0176
  239loPI    C3 3811  10.619  10.476  11.351 -0.2452  0.0928  0.0461
  239loPI   PO4 3812  10.457  10.070  10.815 -0.0766 -0.1684 -0.0588
  239loPI   GL1 3813  10.470  10.100  10.365  0.3232 -0.1809 -0.1104
  239loPI   GL2 3814  10.638  10.320  10.443  0.1417  0.0051  0.1092
  239loPI   C1A 3815  10.311   9.666  10.106  0.0430 -0.2101 -0.2967
  239loPI   C2A 3816  10.321   9.399   9.817 -0.2750 -0.1612 -0.1658
  239loPI   C3A 3817  10.346   9.508   9.402  0.1492 -0.2300  0.0662
  239loPI   C4A 3818  10.319   9.867   9.071 -0.2323 -0.0856 -0.2345
  239loPI   C5A 3819  10.473   9.947   8.676  0.2017 -0.3064 -0.3534
  239loPI   C6A 3820  10.474   9.746   8.344  0.3125  0.0233  0.1305
  239loPI   C1B 3821  10.996  10.442  10.185  0.2113 -0.1776  0.1223
  239loPI   C2B 3822  11.361  10.260  10.010  0.2295  0.1141  0.1929
  239loPI   C3B 3823  11.714  10.046   9.902 -0.0947 -0.2502  0.0499
  239loPI   C4B 3824  11.916   9.730   9.683  0.2674  0.1049  0.0780
  240loPI    C1 3825  12.554  16.945  10.367 -0.0839  0.2419  0.0014
  240loPI    C2 3826  12.379  17.258  10.545 -0.0407  0.2164  0.0892
  240loPI    C3 3827  12.429  16.915  10.746 -0.2482  0.0950 -0.0627
  240loPI   PO4 3828  12.490  17.023  10.101  0.2756  0.0331  0.0340
  240loPI   GL1 3829  12.522  17.194   9.722 -0.2255 -0.0848  0.0538
  240loPI   GL2 3830  12.531  17.508   9.710  0.0134  0.0354  0.1561
  240loPI   C1A 3831  12.471  17.203   9.337 -0.2958 -0.3095 -0.0982
  240loPI   C2A 3832  12.412  17.112   8.936 -0.0537 -0.0609  0.6267
  240loPI   C3A 3833  12.544  16.901   8.493 -0.1234  0.0901  0.0786
  240loPI   C4A 3834  12.375  16.851   8.053 -0.1333  0.0483  0.2709
  240loPI   C5A 3835  12.647  16.602   7.736 -0.2878  0.0418 -0.0030
  240loPI   C6A 3836  13.008  16.505   7.898 -0.2212 -0.2645 -0.0871
  240loPI   C1B 3837  12.338  17.669   9.357  0.0658 -0.3113 -0.0039
  240loPI   C2B 3838  12.301  18.006   9.009 -0.1890  0.0057 -0.0915
  240loPI   C3B 3839  12.135  18.173   8.618  0.1047  0.0828  0.1761
  240loPI   C4B 3840  12.040  18.161   8.224 -0.2764 -0.1139  0.0371
  241loPI    C1 3841  10.478   9.172  10.808 -0.0156 -0.0112 -0.2845
  241loPI    C2 3842  10.547   8.885  11.079 -0.0782  0.1673 -0.0765
  241loPI    C3 3843  10.612   9.269  11.173 -0.0156  0.2248 -0.3454
  241loPI   PO4 3844  10.303   9.002  10.567  0.3225 -0.0207 -0.1419
  241loPI   GL1 3845  10.579   8.785  10.158 -0.2498  0.1811 -0.0463
  241loPI   GL2 3846  10.290   8.655  10.167  0.2899 -0.3088  0.2416
  241loPI   C1A 3847  10.669   9.040   9.919  0.2006 -0.1138 -0.0139
  241loPI   C2A 3848  10.672   9.066   9.503 -0.1835  0.1481  0.0206
  241loPI   C3A 3849  10.491   9.110   9.083 -0.0742  0.0632 -0.3554
  241loPI   C4A 3850  10.506   9.012   8.661 -0.0863 -0.3649 -0.0778
  241loPI   C5A 3851  10.379   9.150   8.318 -0.0624  0.1907  0.1586
  241loPI   C6A 3852  10.531   9.456   7.993 -0.2191 -0.2674 -0.1662
  241loPI   C1B 3853  10.346   8.785   9.743  0.1430  0.1583  0.1580
  241loPI   C2B 3854  10.217   8.744   9.355 -0.0969 -0.0295 -0.3192
  241loPI   C3B 3855   9.971   8.823   8.992  0.2142 -0.0065  0.2500
  241loPI   C4B 3856   9.952   8.978   8.528 -0.1043  0.1664  0.0991
  242loPI    C1 3857   4.944  13.672  10.719  0.1151  0.0271  0.1299
  242loPI    C2 3858   4.934  13.854  11.075 -0.1131  0.0438  0.1169
  242loPI    C3 3859   4.602  13.832  10.853 -0.0113 -0.1111 -0.0224
  242loPI   PO4 3860   5.115  13.733  10.571 -0.2211 -0.0964 -0.2162
  242loPI   GL1 3861   5.028  13.857  10.222 -0.0587 -0.0034  0.3032
  242loPI   GL2 3862   5.033  14.221  10.112 -0.0395  0.2218 -0.1652
  242loPI   C1A 3863   5.119  13.872   9.769  0.1167 -0.1783  0.0407
  242loPI   C2A 3864   5.260  13.881   9.389 -0.1356 -0.1292 -0.3420
  242loPI   C3A 3865   5.299  14.080   9.035  0.3536  0.0924 -0.2793
  242loPI   C4A 3866   5.236  14.149   8.561 -0.2676 -0.1074  0.2245
  242loPI   C5A 3867   4.986  14.019   8.284  0.1189  0.0848  0.0837
  242loPI   C6A 3868   4.782  13.717   8.274  0.0069  0.2986 -0.1619
  242loPI   C1B 3869   5.089  14.454   9.787 -0.2276  0.2626 -0.2664
  242loPI   C2B 3870   5.124  14.421   9.346  0.0482 -0.3304  0.2028
  242loPI   C3B 3871   5.075  14.496   8.816  0.1082 -0.4532  0.0531
  242loPI   C4B 3872   5.343  14.678   8.470 -0.0715  0.2810  0.1124
  243loPI    C1 3873   6.890  14.613  10.829 -0.0269  0.0962 -0.2352
  243loPI    C2 3874   6.904  14.896  11.111  0.0759 -0.0339 -0.1081
  243loPI    C3 3875   6.920  14.510  11.215 -0.0428 -0.0867 -0.2817
  243loPI   PO4 3876   6.742  14.656  10.646  0.0534 -0.0062 -0.0379
  243loPI   GL1 3877   6.357  14.771  10.469  0.0202  0.3724  0.1640
  243loPI   GL2 3878   6.309  14.444  10.442 -0.3053  0.2043  0.0270
  243loPI   C1A 3879   6.252  15.020  10.173 -0.0508  0.3327  0.3227
  243loPI   C2A 3880   6.271  15.110   9.794  0.1386 -0.0389 -0.1211
  243loPI   C3A 3881   6.219  15.044   9.351  0.1015  0.0700  0.0402
  243loPI   C4A 3882   6.415  15.069   9.008  0.2994  0.1186 -0.2440
  243loPI   C5A 3883   6.533  15.207   8.605 -0.0378  0.0044  0.0111
  243loPI   C6A 3884   6.451  15.513   8.303 -0.0042  0.0954  0.2354
  243loPI   C1B 3885   6.219  14.204  10.152  0.3618 -0.3168  0.1869
  243loPI   C2B 3886   6.311  14.175   9.697  0.0980 -0.1060  0.1352
  243loPI   C3B 3887   6.333  14.258   9.331 -0.4285  0.1232 -0.0235
  243loPI   C4B 3888   6.530  14.212   9.006 -0.0842 -0.1185  0.3031
  244loPI    C1 3889   1.797   1.916  10.801  0.1239  0.0623  0.1249
  244loPI    C2 3890   1.437   1.863  10.965 -0.0293  0.2258 -0.1511
  244loPI    C3 3891   1.680   2.148  11.104 -0.0432  0.1771 -0.0255
  244loPI   PO4 3892   1.721   1.794  10.577  0.1686  0.0114  0.1012
  244loPI   GL1 3893   1.887   1.939  10.271  0.0504 -0.2656 -0.2894
  244loPI   GL2 3894   1.889   2.247  10.274 -0.1754 -0.1176  0.0858
  244loPI   C1A 3895   1.540   1.980   9.985 -0.0007 -0.0372  0.1392
  244loPI   C2A 3896   1.472   2.226   9.658 -0.0542 -0.2093 -0.0509
  244loPI   C3A 3897   1.445   2.362   9.258  0.1252  0.3669  0.1595
  244loPI   C4A 3898   1.326   2.658   8.955 -0.2434  0.1816 -0.3088
  244loPI   C5A 3899   1.040   2.910   8.792  0.0297  0.4968 -0.1913
  244loPI   C6A 3900   1.052   3.050   8.267 -0.1212  0.3205  0.0708
  244loPI   C1B 3901   1.943   2.394   9.835 -0.0532  0.0930  0.2238
  244loPI   C2B 3902   1.926   2.336   9.393 -0.1446 -0.2753  0.1239
  244loPI   C3B 3903   1.867   2.439   8.934  0.2243  0.1042 -0.0521
  244loPI   C4B 3904   1.579   2.145   8.798  0.0921  0.1693  0.2093
  245loPI    C1 3905   1.404   9.450  10.882  0.1783  0.0665  0.0614
  245loPI    C2 3906   1.480   9.166  11.154  0.0313 -0.0054  0.0285
  245loPI    C3 3907   1.225   9.462  11.240  0.0638  0.0294  0.0058
  245loPI   PO4 3908   1.347   9.393  10.578 -0.1483 -0.1249 -0.4586
  245loPI   GL1 3909   1.420   9.484  10.143  0.0561  0.0011  0.2144
  245loPI   GL2 3910   1.617   9.706  10.113 -0.1485  0.0403 -0.3996
  245loPI   C1A 3911   1.227   9.463   9.711 -0.0240 -0.0269 -0.3691
  245loPI   C2A 3912   1.132   9.417   9.338  0.1820  0.2643  0.1966
  245loPI   C3A 3913   1.070   9.362   8.883  0.0790 -0.2585 -0.2271
  245loPI   C4A 3914   1.106   9.224   8.417  0.0844  0.0046 -0.1102
  245loPI   C5A 3915   1.563   9.079   8.430 -0.5918 -0.0140 -0.0155
  245loPI   C6A 3916   2.119   9.122   8.328  0.0701 -0.2676  0.0858
  245loPI   C1B 3917   1.715   9.640   9.766 -0.5621 -0.0078 -0.3374
  245loPI   C2B 3918   1.671   9.618   9.286 -0.3883  0.0047 -0.1283
  245loPI   C3B 3919   1.503   9.625   8.954 -0.4373 -0.2719  0.0698
  245loPI   C4B 3920   1.457   9.534   8.596  0.0725 -0.2567  0.0567
  246loPI    C1 3921  11.572  12.506  11.067  0.0492  0.2199  0.0152
  246loPI    C2 3922  11.188  12.586  11.142 -0.0032 -0.1468  0.1580
  246loPI    C3 3923  11.465  12.667  11.418 -0.0005 -0.0543  0.1283
  246loPI   PO4 3924  11.606  12.689  10.775  0.0927 -0.0545 -0.0073
  246loPI   GL1 3925  11.418  12.828  10.415 -0.3812 -0.2091  0.2073
  246loPI   GL2 3926  11.341  12.573  10.157  0.3008  0.0916  0.1461
  246loPI   C1A 3927  11.730  12.870  10.112 -0.1879 -0.1837 -0.1574
  246loPI   C2A 3928  11.812  12.845   9.817 -0.0534 -0.0828  0.2140
  246loPI   C3A 3929  11.754  12.929   9.382  0.2610 -0.3177 -0.1257
  246loPI   C4A 3930  11.621  12.818   8.972  0.5491 -0.1754 -0.2934
  246loPI   C5A 3931  11.603  12.702   8.569 -0.0140 -0.3178 -0.1704
  246loPI   C6A 3932  11.751  12.379   8.305 -0.4669  0.4157  0.0363
  246loPI   C1B 3933  11.345  12.685   9.695 -0.1892  0.0776  0.1326
  246loPI   C2B 3934  11.204  12.977   9.280  0.1192  0.0419 -0.1441
  246loPI   C3B 3935  10.982  13.185   8.853  0.0079  0.3391 -0.2902
  246loPI   C4B 3936  10.846  13.313   8.436  0.2069  0.1390 -0.0793
  247loPI    C1 3937   6.994  12.956  11.111 -0.0274 -0.0042  0.0206
  247loPI    C2 3938   7.091  12.571  11.062 -0.0367  0.0079 -0.0933
  247loPI    C3 3939   6.792  12.672  11.308 -0.0283 -0.0572 -0.0564
  247loPI   PO4 3940   6.921  13.041  10.905  0.2256 -0.2022 -0.0047
  247loPI   GL1 3941   6.934  12.836  10.542  0.2402 -0.0597 -0.0392
  247loPI   GL2 3942   7.192  12.582  10.559  0.0204  0.2129  0.3529
  247loPI   C1A 3943   6.784  12.626  10.266 -0.1047 -0.2451  0.2146
  247loPI   C2A 3944   6.961  12.260  10.063  0.0592  0.1931 -0.0178
  247loPI   C3A 3945   6.952  12.103   9.701 -0.0347 -0.0269  0.0722
  247loPI   C4A 3946   6.860  12.091   9.270 -0.0311 -0.0697  0.2108
  247loPI   C5A 3947   6.754  11.998   8.900 -0.1104  0.1442  0.1899
  247loPI   C6A 3948   6.424  12.236   8.660  0.0486  0.1622  0.0948
  247loPI   C1B 3949   7.300  12.572  10.139 -0.0932  0.0705  0.2237
  247loPI   C2B 3950   7.468  12.507   9.878  0.2043  0.3341 -0.4280
  247loPI   C3B 3951   7.715  12.468   9.469 -0.2436  0.0084  0.0464
  247loPI   C4B 3952   7.704  12.476   9.006 -0.1176 -0.0482  0.2067
  248loPI    C1 3953  17.829  16.701  10.370 -0.1734 -0.1966 -0.0788
  248loPI    C2 3954  17.502  16.829  10.563 -0.0216  0.0399  0.0260
  248loPI    C3 3955  17.739  16.554  10.732 -0.0956 -0.0359  0.0070
  248loPI   PO4 3956  17.742  16.737  10.104 -0.3397  0.0629  0.1979
  248loPI   GL1 3957  17.442  16.990   9.990  0.1758  0.2845 -0.0269
  248loPI   GL2 3958  17.613  17.139   9.770 -0.2150 -0.0746 -0.2922
  248loPI   C1A 3959  17.546  16.757   9.496 -0.0378 -0.1190 -0.1043
  248loPI   C2A 3960  17.574  16.771   9.068 -0.3392  0.2768  0.0443
  248loPI   C3A 3961  17.448  16.831   8.695 -0.0402 -0.1400  0.0314
  248loPI   C4A 3962  17.539  16.916   8.241 -0.0553 -0.0055 -0.0124
  248loPI   C5A 3963  17.846  16.789   7.864 -0.1842  0.0579  0.1361
  248loPI   C6A 3964  18.299  16.524   7.913  0.1051  0.0537  0.1480
  248loPI   C1B 3965  17.633  17.264   9.330  0.2255 -0.0422  0.2003
  248loPI   C2B 3966  17.519  17.373   8.935  0.0303 -0.1179  0.1497
  248loPI   C3B 3967  17.598  17.332   8.449 -0.3361 -0.2123  0.1355
  248loPI   C4B 3968  17.378  17.526   8.041 -0.4573  0.0014 -0.0485
  249loPI    C1 3969   6.205   3.451  10.924  0.1568  0.1837  0.1589
  249loPI    C2 3970   5.921   3.367  11.193 -0.1084  0.0346 -0.1606
  249loPI    C3 3971   5.819   3.484  10.825  0.2444 -0.1283 -0.3148
  249loPI   PO4 3972   6.386   3.296  10.841  0.1035 -0.1178  0.1008
  249loPI   GL1 3973   6.643   3.440  10.570 -0.2033  0.1097  0.4457
  249loPI   GL2 3974   6.665   3.822  10.500 -0.2339  0.0853 -0.1025
  249loPI   C1A 3975   6.814   3.381  10.180 -0.0142 -0.0566 -0.1650
  249loPI   C2A 3976   6.831   3.568   9.850 -0.0527  0.2007 -0.1186
  249loPI   C3A 3977   6.906   3.640   9.458  0.1610  0.0302 -0.1180
  249loPI   C4A 3978   6.740   3.858   9.038 -0.0526 -0.0344  0.0587
  249loPI   C5A 3979   6.537   3.768   8.653 -0.2195  0.0945  0.2824
  249loPI   C6A 3980   6.256   3.714   8.245 -0.0649  0.0562  0.0814
  249loPI   C1B 3981   6.439   3.775  10.137 -0.0021  0.2091 -0.0714
  249loPI   C2B 3982   6.339   3.759   9.694 -0.2679 -0.0864  0.0494
  249loPI   C3B 3983   6.402   3.623   9.346 -0.1378 -0.3121  0.2698
  249loPI   C4B 3984   6.398   3.368   8.913  0.0194 -0.1984 -0.0123
  250loPI    C1 3985   1.423   9.934  10.697 -0.1079  0.1000 -0.0592
  250loPI    C2 3986   1.120  10.161  10.827  0.0861  0.3116  0.0304
  250loPI    C3 3987   1.308   9.914  11.080 -0.0961  0.0792 -0.0566
  250loPI   PO4 3988   1.344   9.865  10.469 -0.0551 -0.1698 -0.0030
  250loPI   GL1 3989   1.344  10.132  10.116 -0.1824 -0.2745 -0.0482
  250loPI   GL2 3990   1.248   9.911   9.923  0.0588 -0.1444  0.0441
  250loPI   C1A 3991   1.811  10.132   9.882 -0.3825 -0.0647 -0.1480
  250loPI   C2A 3992   2.045   9.883   9.466 -0.0910 -0.0413 -0.0805
  250loPI   C3A 3993   2.250   9.715   9.093  0.0847  0.1014  0.0148
  250loPI   C4A 3994   2.678   9.681   8.961  0.2194  0.1136  0.0082
  250loPI   C5A 3995   3.031   9.307   8.673 -0.1142 -0.2543  0.5702
  250loPI   C6A 3996   3.153   9.184   8.308 -0.3507 -0.0365  0.0934
  250loPI   C1B 3997   1.105   9.986   9.556  0.0698  0.1333 -0.0352
  250loPI   C2B 3998   1.084   9.882   9.083 -0.2283  0.1985  0.1998
  250loPI   C3B 3999   1.253   9.951   8.677  0.2866  0.0358  0.0521
  250loPI   C4B 4000   1.622   9.923   8.314 -0.0127  0.1740  0.0748
  251loPI    C1 4001  12.556   1.043  10.281 -0.0982  0.2452  0.0278
  251loPI    C2 4002  12.381   0.981  10.635 -0.2376  0.0881 -0.0666
  251loPI    C3 4003  12.764   0.880  10.581 -0.2935 -0.1438 -0.0408
  251loPI   PO4 4004  12.391   0.919  10.121  0.0114 -0.0147  0.1342
  251loPI   GL1 4005  12.309   1.124   9.701 -0.0446 -0.1928 -0.3037
  251loPI   GL2 4006  12.692   1.087   9.722  0.0077 -0.0338 -0.1467
  251loPI   C1A 4007  12.099   1.031   9.365 -0.1324 -0.1505 -0.4028
  251loPI   C2A 4008  12.122   0.834   8.892 -0.1982 -0.1479 -0.0276
  251loPI   C3A 4009  12.191   0.731   8.401  0.2431 -0.0810 -0.3611
  251loPI   C4A 4010  12.084   0.665   7.948 -0.2260 -0.1393 -0.0606
  251loPI   C5A 4011  12.086   0.487   7.529 -0.0713 -0.0893  0.1826
  251loPI   C6A 4012  12.175   0.664   7.122 -0.1840  0.1537 -0.3046
  251loPI   C1B 4013  12.585   1.192   9.348  0.0805  0.2377  0.2518
  251loPI   C2B 4014  12.551   1.083   8.943 -0.2069  0.2488  0.1275
  251loPI   C3B 4015  12.642   0.934   8.524 -0.0676 -0.1889  0.2600
  251loPI   C4B 4016  12.461   1.008   8.044 -0.2129  0.1261 -0.2085
  252loPI    C1 4017  10.544  16.255  10.470  0.2059  0.0332 -0.1522
  252loPI    C2 4018  10.835  16.088  10.688  0.0054 -0.0187  0.0796
  252loPI    C3 4019  10.492  16.199  10.863 -0.1094  0.0556 -0.1880
  252loPI   PO4 4020  10.711  16.308  10.262  0.2185 -0.1112  0.0217
  252loPI   GL1 4021  10.853  16.086   9.890  0.2134 -0.3502 -0.0811
  252loPI   GL2 4022  10.995  15.810   9.841 -0.0230  0.3850  0.1675
  252loPI   C1A 4023  10.738  16.336   9.467 -0.0768  0.0157  0.0764
  252loPI   C2A 4024  10.513  16.405   9.041  0.1669  0.1367  0.1350
  252loPI   C3A 4025  10.289  16.427   8.600  0.2230 -0.1192 -0.2511
  252loPI   C4A 4026   9.939  16.602   8.445  0.0827 -0.0598 -0.2188
  252loPI   C5A 4027   9.604  16.932   8.409 -0.1863  0.0171 -0.0739
  252loPI   C6A 4028   9.302  17.131   8.602  0.1478 -0.3398  0.1149
  252loPI   C1B 4029  10.834  15.814   9.365 -0.0353  0.0093 -0.1192
  252loPI   C2B 4030  10.743  15.899   8.883 -0.1406 -0.0371  0.2480
  252loPI   C3B 4031  10.778  16.204   8.599  0.2053 -0.1442 -0.2475
  252loPI   C4B 4032  10.492  16.183   8.237 -0.0382 -0.3065  0.0519
  253loPI    C1 4033   1.659  11.249  10.545 -0.3791  0.0598  0.0271
  253loPI    C2 4034   1.665  10.869  10.669  0.0373  0.0826  0.0912
  253loPI    C3 4035   1.717  11.166  10.932  0.0339  0.1699 -0.0065
  253loPI   PO4 4036   1.702  11.180  10.234 -0.1378 -0.0829  0.0358
  253loPI   GL1 4037   1.426  11.434   9.956 -0.2940 -0.0657 -0.2603
  253loPI   GL2 4038   1.161  11.457  10.015 -0.1867  0.0783 -0.0394
  253loPI   C1A 4039   1.558  11.320   9.638  0.3646  0.1072  0.1276
  253loPI   C2A 4040   1.654  11.122   9.208  0.0077 -0.1193  0.1344
  253loPI   C3A 4041   1.765  11.081   8.855 -0.5286  0.0754 -0.2206
  253loPI   C4A 4042   2.040  11.008   8.761  0.4252  0.0857  0.2838
  253loPI   C5A 4043   2.208  10.620   8.594 -0.0339 -0.1580  0.0590
  253loPI   C6A 4044   2.250  10.613   8.150 -0.0426 -0.0480  0.2059
  253loPI   C1B 4045   1.028  11.274   9.602  0.0204  0.0551 -0.3278
  253loPI   C2B 4046   0.998  11.097   9.233  0.0824  0.2405  0.1609
  253loPI   C3B 4047   1.284  10.892   8.927 -0.0580  0.1322  0.2155
  253loPI   C4B 4048   1.318  10.812   8.446  0.1112  0.2757 -0.1807
  254loPI    C1 4049   2.601  11.841  10.783 -0.0114  0.1508 -0.3352
  254loPI    C2 4050   2.743  12.212  10.741  0.3411  0.0236 -0.3051
  254loPI    C3 4051   2.886  11.975  11.030 -0.3142  0.0642  0.0722
  254loPI   PO4 4052   2.553  11.750  10.584 -0.0878  0.0366  0.0275
  254loPI   GL1 4053   2.744  11.539  10.283  0.0495 -0.0383 -0.0161
  254loPI   GL2 4054   2.656  11.866  10.084 -0.1506 -0.3410 -0.3334
  254loPI   C1A 4055   2.812  11.472   9.881  0.0585 -0.2972  0.2171
  254loPI   C2A 4056   2.717  11.408   9.508 -0.1160 -0.2275 -0.2051
  254loPI   C3A 4057   2.792  11.332   9.032  0.1512  0.1175  0.0199
  254loPI   C4A 4058   2.726  11.062   8.701  0.3177 -0.1402  0.0036
  254loPI   C5A 4059   3.155  11.064   8.368  0.0878  0.2677  0.0024
  254loPI   C6A 4060   3.449  10.993   8.141 -0.1088  0.0586  0.1175
  254loPI   C1B 4061   2.746  11.944   9.727 -0.0234 -0.1713 -0.1759
  254loPI   C2B 4062   2.695  11.855   9.228  0.1011 -0.0029 -0.0557
  254loPI   C3B 4063   2.484  11.798   8.852 -0.0412 -0.0841  0.0411
  254loPI   C4B 4064   2.404  11.432   8.725  0.1760  0.1563  0.0578
  255loPI    C1 4065   4.124   5.830  10.784  0.1054  0.0876 -0.0668
  255loPI    C2 4066   3.726   5.804  10.817  0.0920  0.0248 -0.2636
  255loPI    C3 4067   3.944   5.937  11.125 -0.0640 -0.1152 -0.0906
  255loPI   PO4 4068   4.154   5.848  10.554  0.0276  0.0276 -0.1304
  255loPI   GL1 4069   4.493   5.671  10.346 -0.0978  0.2134  0.1204
  255loPI   GL2 4070   4.506   5.409  10.582 -0.1255 -0.2034 -0.1658
  255loPI   C1A 4071   4.453   5.656   9.928 -0.1786 -0.1110 -0.0612
  255loPI   C2A 4072   4.478   5.606   9.472  0.4183  0.1774  0.1627
  255loPI   C3A 4073   4.627   5.434   9.010  0.3314  0.0272  0.1857
  255loPI   C4A 4074   4.936   5.625   8.758  0.0505  0.1836 -0.1620
  255loPI   C5A 4075   5.210   5.345   8.444  0.1501  0.1747  0.2739
  255loPI   C6A 4076   5.326   4.964   8.500  0.1765 -0.0335  0.1656
  255loPI   C1B 4077   4.687   5.208  10.200 -0.0511  0.1663 -0.0720
  255loPI   C2B 4078   4.583   5.173   9.889 -0.0245  0.2346  0.1269
  255loPI   C3B 4079   4.601   5.128   9.462 -0.1798 -0.0367 -0.1234
  255loPI   C4B 4080   4.569   4.898   9.094  0.2546 -0.0598 -0.0218
  256loPI    C1 4081   9.213   7.332  10.883 -0.0231 -0.0357 -0.1462
  256loPI    C2 4082   9.258   7.021  11.130 -0.1062  0.1294  0.0794
  256loPI    C3 4083   9.576   7.240  11.025 -0.0972  0.1676  0.1847
  256loPI   PO4 4084   9.119   7.278  10.696 -0.0248  0.4105 -0.0410
  256loPI   GL1 4085   9.130   7.499  10.389  0.0067  0.3178  0.0273
  256loPI   GL2 4086   9.303   7.192  10.202  0.0281  0.0032 -0.0044
  256loPI   C1A 4087   8.889   7.551   9.949 -0.0712  0.2245 -0.1134
  256loPI   C2A 4088   8.938   7.562   9.518  0.0765 -0.0036  0.0260
  256loPI   C3A 4089   8.856   7.598   9.180  0.1135 -0.0325  0.3365
  256loPI   C4A 4090   8.973   8.005   8.940  0.1544  0.1403 -0.0501
  256loPI   C5A 4091   9.211   8.274   8.623  0.0258 -0.1255  0.0503
  256loPI   C6A 4092   9.227   8.589   8.301 -0.2267  0.1617  0.3508
  256loPI   C1B 4093   9.161   7.117   9.663  0.0024  0.2588 -0.2099
  256loPI   C2B 4094   9.156   7.143   9.248  0.1216 -0.0830  0.1430
  256loPI   C3B 4095   9.262   6.800   8.938  0.2265 -0.2045 -0.0889
  256loPI   C4B 4096   9.297   6.888   8.428  0.0938 -0.0881  0.1231
  257loPI    C1 4097  14.650   1.180  10.592  0.0896 -0.2033  0.0555
  257loPI    C2 4098  14.841   0.866  10.434  0.1095 -0.1088 -0.1109
  257loPI    C3 4099  14.450   0.843  10.513  0.0246 -0.0457 -0.4938
  257loPI   PO4 4100  14.707   1.397  10.476 -0.1554  0.0604  0.0121
  257loPI   GL1 4101  14.722   1.339  10.082  0.0800 -0.1102 -0.0708
  257loPI   GL2 4102  14.848   1.127   9.998  0.1010 -0.0235  0.0011
  257loPI   C1A 4103  14.607   1.580   9.742 -0.2631  0.3822  0.0795
  257loPI   C2A 4104  14.642   1.610   9.352  0.3630 -0.2119 -0.1340
  257loPI   C3A 4105  14.648   1.800   8.938 -0.3324  0.1379  0.1224
  257loPI   C4A 4106  14.943   2.028   8.644 -0.0484  0.0291 -0.0110
  257loPI   C5A 4107  15.251   1.846   8.311  0.1035 -0.0273 -0.0788
  257loPI   C6A 4108  15.715   1.957   8.172 -0.1151  0.0989 -0.0066
  257loPI   C1B 4109  14.885   1.154   9.592  0.1114 -0.0582  0.0055
  257loPI   C2B 4110  14.881   1.285   9.128  0.0470 -0.2081  0.1685
  257loPI   C3B 4111  14.747   1.285   8.662 -0.1836  0.4171 -0.0992
  257loPI   C4B 4112  14.856   1.528   8.406 -0.1925 -0.1117 -0.0291
  258loPI    C1 4113   3.854  12.767  10.798 -0.1148  0.0434 -0.0258
  258loPI    C2 4114   3.883  12.368  10.812 -0.2063  0.0452  0.2715
  258loPI    C3 4115   3.962  12.586  11.138 -0.0092  0.2818  0.0698
  258loPI   PO4 4116   3.650  12.787  10.675 -0.2935  0.3487 -0.1716
  258loPI   GL1 4117   3.406  12.906  10.300  0.0600 -0.1805  0.1117
  258loPI   GL2 4118   3.159  12.722  10.196 -0.1843  0.1802  0.0517
  258loPI   C1A 4119   3.445  13.183   9.876 -0.2058  0.1969 -0.0887
  258loPI   C2A 4120   3.423  13.191   9.431 -0.0380 -0.1532  0.0035
  258loPI   C3A 4121   3.465  13.390   9.039 -0.3933  0.0421  0.0217
  258loPI   C4A 4122   3.409  13.477   8.550  0.2996  0.3052 -0.1748
  258loPI   C5A 4123   3.411  13.753   8.221 -0.1408  0.0057  0.3544
  258loPI   C6A 4124   3.138  14.130   8.193  0.0152 -0.0568 -0.3271
  258loPI   C1B 4125   3.020  12.817   9.828  0.4384  0.2960 -0.2108
  258loPI   C2B 4126   2.974  12.882   9.431  0.0526  0.1021  0.1380
  258loPI   C3B 4127   2.965  12.839   9.042  0.0879  0.2090 -0.1362
  258loPI   C4B 4128   2.842  12.633   8.630 -0.0094  0.2657  0.0148
  259loPI    C1 4129   7.533  11.105  10.749 -0.0535 -0.0677 -0.1165
  259loPI    C2 4130   7.462  11.375  11.036  0.0936  0.0218 -0.1631
  259loPI    C3 4131   7.772  11.124  11.070 -0.0234 -0.1201 -0.1356
  259loPI   PO4 4132   7.529  11.281  10.531  0.1318  0.1432  0.0750
  259loPI   GL1 4133   7.406  11.296  10.129 -0.3699  0.0252  0.1998
  259loPI   GL2 4134   7.246  11.065  10.154  0.0611 -0.1967  0.0447
  259loPI   C1A 4135   7.541  11.481   9.800 -0.0308 -0.3938 -0.1108
  259loPI   C2A 4136   7.575  11.484   9.353  0.2060  0.0959 -0.0074
  259loPI   C3A 4137   7.422  11.422   8.963 -0.2122  0.0143 -0.0954
  259loPI   C4A 4138   7.239  11.723   8.776 -0.0156  0.1073 -0.2128
  259loPI   C5A 4139   7.142  12.122   8.563 -0.1688 -0.3128  0.4101
  259loPI   C6A 4140   6.871  12.460   8.475  0.0372 -0.3330  0.0299
  259loPI   C1B 4141   7.246  11.134   9.717  0.1419  0.1574 -0.0706
  259loPI   C2B 4142   7.246  11.090   9.310 -0.0322 -0.2835 -0.3013
  259loPI   C3B 4143   7.206  10.980   8.889 -0.2964 -0.1923 -0.3243
  259loPI   C4B 4144   7.127  11.292   8.539 -0.0122 -0.1775 -0.2757
  260loPI    C1 4145   3.251  14.608  10.788  0.0631  0.1073  0.1172
  260loPI    C2 4146   3.568  14.427  10.952 -0.0148 -0.0778  0.0667
  260loPI    C3 4147   3.221  14.440  11.150 -0.0149 -0.0004  0.0617
  260loPI   PO4 4148   3.237  14.506  10.516 -0.0869 -0.3163  0.0332
  260loPI   GL1 4149   2.961  14.441  10.199  0.0590  0.1694  0.0681
  260loPI   GL2 4150   2.922  14.866  10.203 -0.0410 -0.0393 -0.1709
  260loPI   C1A 4151   3.197  14.340   9.847  0.2064 -0.1148 -0.1452
  260loPI   C2A 4152   3.291  14.248   9.448  0.1838  0.1815  0.0425
  260loPI   C3A 4153   3.382  14.441   9.117 -0.4590 -0.2770  0.0294
  260loPI   C4A 4154   3.324  14.492   8.629 -0.0247 -0.0358 -0.1101
  260loPI   C5A 4155   3.216  14.677   8.267 -0.0797 -0.0587  0.1051
  260loPI   C6A 4156   3.428  14.815   7.919 -0.1526  0.0141  0.1749
  260loPI   C1B 4157   3.046  14.810   9.706  0.3512  0.0804  0.0702
  260loPI   C2B 4158   3.092  14.839   9.166  0.0376  0.1355 -0.2658
  260loPI   C3B 4159   2.872  14.988   8.760  0.0740  0.0190 -0.2832
  260loPI   C4B 4160   3.081  15.152   8.389  0.0065 -0.1155 -0.2013
  261loPI    C1 4161   0.197   5.259  10.894 -0.0016  0.1813  0.0425
  261loPI    C2 4162   0.259   5.481  10.567  0.1120  0.1815  0.0639
  261loPI    C3 4163   0.566   5.388  10.806  0.0884 -0.1084 -0.0153
  261loPI   PO4 4164  -0.040   5.067  10.824  0.0078  0.2830  0.3250
  261loPI   GL1 4165  -0.308   5.210  10.434  0.0414  0.2988 -0.1331
  261loPI   GL2 4166  -0.225   5.455  10.295  0.0104  0.4111  0.1746
  261loPI   C1A 4167  -0.219   5.040  10.024  0.0916  0.0530  0.0183
  261loPI   C2A 4168  -0.338   5.053   9.689  0.0740 -0.3230 -0.3355
  261loPI   C3A 4169  -0.272   5.010   9.282 -0.3520  0.0726  0.3482
  261loPI   C4A 4170  -0.367   5.071   8.798 -0.0666 -0.1898  0.3102
  261loPI   C5A 4171  -0.681   5.307   8.476  0.2943 -0.1611  0.0542
  261loPI   C6A 4172  -0.658   5.702   8.243 -0.0428  0.0807  0.2187
  261loPI   C1B 4173   0.037   5.478   9.987  0.0368 -0.0388  0.1651
  261loPI   C2B 4174  -0.058   5.502   9.586 -0.1622 -0.0663 -0.0307
  261loPI   C3B 4175  -0.144   5.469   9.157 -0.0373 -0.2059 -0.2880
  261loPI   C4B 4176  -0.394   5.699   8.706 -0.0245  0.1692 -0.3461
  262loPI    C1 4177   1.087   1.551  10.791  0.2166 -0.1186  0.0269
  262loPI    C2 4178   1.031   1.640  11.177  0.1185  0.2278 -0.0637
  262loPI    C3 4179   0.719   1.541  10.947  0.1530  0.1926 -0.0955
  262loPI   PO4 4180   1.239   1.390  10.721 -0.1332  0.1262 -0.1986
  262loPI   GL1 4181   1.425   1.545  10.263  0.2229  0.3427 -0.0406
  262loPI   GL2 4182   1.651   1.262  10.119 -0.1400  0.0924 -0.0765
  262loPI   C1A 4183   1.323   1.540   9.875  0.0992  0.2276  0.4922
  262loPI   C2A 4184   1.456   1.570   9.419 -0.0383  0.1705 -0.1416
  262loPI   C3A 4185   1.378   1.670   8.982  0.2077  0.2195 -0.2308
  262loPI   C4A 4186   1.241   1.893   8.518 -0.3141  0.0129  0.2306
  262loPI   C5A 4187   1.292   2.077   8.127 -0.2594 -0.2277  0.0631
  262loPI   C6A 4188   1.229   2.239   7.772 -0.0256  0.2050  0.0361
  262loPI   C1B 4189   1.783   1.383   9.822  0.0966 -0.0538  0.1184
  262loPI   C2B 4190   1.961   1.357   9.391  0.0653  0.1309  0.1753
  262loPI   C3B 4191   1.790   1.352   8.979  0.0169  0.0388  0.1974
  262loPI   C4B 4192   1.793   1.691   8.645  0.0587 -0.0658 -0.1032
  263loPI    C1 4193  14.046  16.506  10.520  0.0992  0.0184 -0.0190
  263loPI    C2 4194  14.031  16.310  10.869 -0.0743 -0.1456 -0.1164
  263loPI    C3 4195  13.746  16.575  10.776 -0.0336 -0.1095 -0.1384
  263loPI   PO4 4196  14.090  16.361  10.305  0.0442  0.1000 -0.2148
  263loPI   GL1 4197  14.186  16.039  10.015 -0.2709 -0.0586  0.1539
  263loPI   GL2 4198  14.356  16.316   9.856 -0.0880 -0.1988  0.2911
  263loPI   C1A 4199  14.000  16.135   9.571  0.2142  0.0838  0.0378
  263loPI   C2A 4200  13.782  16.107   9.162 -0.0189 -0.2133  0.2240
  263loPI   C3A 4201  13.645  15.984   8.803 -0.0875 -0.1115 -0.1930
  263loPI   C4A 4202  13.606  16.160   8.445 -0.0464 -0.0217  0.0153
  263loPI   C5A 4203  13.282  16.104   8.143 -0.1417 -0.1108  0.1154
  263loPI   C6A 4204  13.060  15.960   7.865  0.1241  0.0251  0.1626
  263loPI   C1B 4205  14.435  16.242   9.330  0.0111  0.0527  0.0094
  263loPI   C2B 4206  14.214  16.071   8.954  0.0345  0.1836  0.0138
  263loPI   C3B 4207  14.119  16.025   8.564  0.1926  0.0991  0.0286
  263loPI   C4B 4208  13.982  15.682   8.419  0.1235  0.2728  0.1666
  264loPI    C1 4209   6.287   7.579  11.140 -0.1561 -0.0831 -0.1872
  264loPI    C2 4210   6.080   7.276  11.300 -0.0796 -0.0582 -0.0393
  264loPI    C3 4211   6.471   7.313  11.376 -0.0643  0.0127 -0.1501
  264loPI   PO4 4212   6.185   7.714  10.985  0.2215  0.0970  0.0848
  264loPI   GL1 4213   6.025   7.706  10.626  0.3227  0.1978 -0.3040
  264loPI   GL2 4214   6.004   7.399  10.598  0.1521 -0.1959  0.0607
  264loPI   C1A 4215   5.917   7.869  10.206  0.2873 -0.1841 -0.1148
  264loPI   C2A 4216   5.998   7.845   9.744 -0.0928  0.1760 -0.0085
  264loPI   C3A 4217   5.993   7.925   9.295  0.0341  0.1868 -0.0154
  264loPI   C4A 4218   5.810   7.892   8.868  0.0644 -0.0552 -0.0975
  264loPI   C5A 4219   5.803   8.233   8.564 -0.0484 -0.2840  0.1180
  264loPI   C6A 4220   5.654   8.605   8.672 -0.0046  0.0782  0.1893
  264loPI   C1B 4221   6.107   7.380  10.198  0.1594  0.0153 -0.1753
  264loPI   C2B 4222   6.122   7.375   9.808  0.1064  0.0966  0.1495
  264loPI   C3B 4223   6.219   7.512   9.343 -0.1499  0.1909  0.0513
  264loPI   C4B 4224   6.462   7.776   9.037 -0.0379  0.1642 -0.1499
  265loPI    C1 4225  16.429   3.857  11.186  0.0896  0.0068 -0.1506
  265loPI    C2 4226  16.824   3.818  11.228  0.0252 -0.2583  0.2722
  265loPI    C3 4227  16.593   3.869  11.551 -0.2538  0.2734  0.0012
  265loPI   PO4 4228  16.376   4.036  10.881  0.0048  0.1245 -0.1077
  265loPI   GL1 4229  16.124   4.040  10.488  0.1405 -0.1718 -0.4257
  265loPI   GL2 4230  16.006   4.217  10.650  0.0274  0.1080  0.0489
  265loPI   C1A 4231  16.415   3.912  10.167 -0.2418 -0.1013 -0.0892
  265loPI   C2A 4232  16.598   4.109   9.773 -0.1453 -0.1291 -0.1608
  265loPI   C3A 4233  16.943   4.054   9.529 -0.2014  0.2882 -0.1980
  265loPI   C4A 4234  17.090   4.149   9.132  0.0174 -0.2042 -0.0847
  265loPI   C5A 4235  16.933   3.927   8.860  0.2400  0.3219  0.1303
  265loPI   C6A 4236  16.654   3.785   8.476 -0.1822  0.0604  0.0811
  265loPI   C1B 4237  15.639   4.351  10.357 -0.2907 -0.2744 -0.0707
  265loPI   C2B 4238  15.379   4.232  10.049 -0.1022  0.2420 -0.0263
  265loPI   C3B 4239  15.098   4.230   9.822 -0.0515 -0.0711  0.1515
  265loPI   C4B 4240  15.048   4.058   9.469 -0.1205  0.0900 -0.1527
  266loPI    C1 4241   0.098  16.228  10.501  0.1639  0.0096  0.1567
  266loPI    C2 4242   0.178  16.131  10.880  0.3142 -0.2050  0.0720
  266loPI    C3 4243  -0.131  15.961  10.691  0.1965 -0.0455  0.1189
  266loPI   PO4 4244   0.257  16.250  10.363 -0.3608  0.3524 -0.0520
  266loPI   GL1 4245   0.159  16.400  10.009  0.0435  0.1021  0.0614
  266loPI   GL2 4246   0.492  16.645  10.028  0.1819  0.2924 -0.2509
  266loPI   C1A 4247   0.435  16.126   9.702 -0.2121 -0.0249  0.1670
  266loPI   C2A 4248   0.457  16.005   9.185 -0.1883  0.0565 -0.1452
  266loPI   C3A 4249   0.288  16.073   8.758  0.2676 -0.3814 -0.1981
  266loPI   C4A 4250   0.368  16.082   8.333  0.2694 -0.0267 -0.0091
  266loPI   C5A 4251   0.411  16.036   7.920 -0.2342 -0.0572 -0.0935
  266loPI   C6A 4252   0.619  16.124   7.580  0.2455 -0.0343 -0.0590
  266loPI   C1B 4253   0.466  16.570   9.551 -0.0440 -0.3886  0.2137
  266loPI   C2B 4254   0.442  16.567   9.010 -0.1175 -0.2063  0.1012
  266loPI   C3B 4255   0.477  16.475   8.607 -0.1599 -0.1043 -0.2208
  266loPI   C4B 4256   0.723  16.396   8.208  0.4587 -0.0861 -0.1974
  267loPI    C1 4257  17.207  17.511  10.694 -0.1662 -0.2918 -0.1225
  267loPI    C2 4258  17.384  17.226  10.911  0.4996  0.1507 -0.0519
  267loPI    C3 4259  17.210  17.537  11.093  0.1016 -0.0150 -0.1382
  267loPI   PO4 4260  17.336  17.589  10.529  0.0073  0.1809  0.1983
  267loPI   GL1 4261  17.260  17.709  10.177  0.3615  0.0149 -0.3442
  267loPI   GL2 4262  17.011  17.479  10.060  0.0911  0.0399  0.4905
  267loPI   C1A 4263  17.342  17.524   9.722 -0.0482 -0.1534 -0.2388
  267loPI   C2A 4264  17.340  17.661   9.309 -0.2567  0.2281  0.2498
  267loPI   C3A 4265  17.146  17.688   8.874  0.0038  0.1677  0.1312
  267loPI   C4A 4266  17.166  17.702   8.438  0.0082  0.2250 -0.1318
  267loPI   C5A 4267  16.931  17.913   8.084  0.0749 -0.2416 -0.1372
  267loPI   C6A 4268  16.996  18.099   7.654 -0.1109 -0.0500  0.0811
  267loPI   C1B 4269  16.860  17.631   9.622  0.0548 -0.0918  0.0305
  267loPI   C2B 4270  16.752  17.679   9.137  0.2100 -0.1004  0.0007
  267loPI   C3B 4271  16.684  17.803   8.680 -0.1875 -0.1757 -0.0929
  267loPI   C4B 4272  16.420  17.928   8.261 -0.2475  0.0432  0.0978
  268loPI    C1 4273  16.563  12.451  10.142 -0.1634 -0.0147  0.1033
  268loPI    C2 4274  16.470  12.807  10.298 -0.1056  0.0265  0.0446
  268loPI    C3 4275  16.844  12.669  10.325 -0.1265 -0.0273  0.0620
  268loPI   PO4 4276  16.320  12.309  10.209 -0.4049  0.1316 -0.1545
  268loPI   GL1 4277  16.299  11.981  10.073  0.0015 -0.1634 -0.0176
  268loPI   GL2 4278  16.518  11.958   9.805  0.2650  0.0041 -0.1760
  268loPI   C1A 4279  16.101  12.068   9.614 -0.1994 -0.0212  0.1027
  268loPI   C2A 4280  16.163  12.197   9.256  0.0824  0.1854  0.2007
  268loPI   C3A 4281  16.257  12.105   8.923 -0.2705  0.2841  0.0349
  268loPI   C4A 4282  16.272  11.895   8.505 -0.2919  0.1242  0.1594
  268loPI   C5A 4283  16.094  11.734   8.070 -0.0645 -0.0291  0.1516
  268loPI   C6A 4284  15.690  11.585   7.991 -0.0225 -0.1349 -0.1025
  268loPI   C1B 4285  16.544  11.893   9.343  0.0791 -0.0677 -0.2192
  268loPI   C2B 4286  16.650  11.753   9.028 -0.3025  0.0685  0.4700
  268loPI   C3B 4287  16.729  11.711   8.569  0.2850  0.1860 -0.0311
  268loPI   C4B 4288  16.592  11.654   8.100  0.3818 -0.0357 -0.1298
  269loPI    C1 4289  16.704   2.191  11.119 -0.0047  0.0837 -0.2157
  269loPI    C2 4290  16.839   1.819  11.178  0.0965  0.1144 -0.2508
  269loPI    C3 4291  16.861   2.089  11.472 -0.0346  0.0757 -0.2048
  269loPI   PO4 4292  16.837   2.159  10.817 -0.2403  0.0005 -0.1951
  269loPI   GL1 4293  16.757   2.062  10.391  0.1514  0.2619  0.3092
  269loPI   GL2 4294  16.864   1.739  10.277 -0.0061  0.1771 -0.3991
  269loPI   C1A 4295  16.857   2.164   9.984 -0.0751 -0.2597 -0.0047
  269loPI   C2A 4296  16.910   2.116   9.528  0.0779  0.1944 -0.1396
  269loPI   C3A 4297  16.952   2.125   9.147  0.0148  0.2962  0.1203
  269loPI   C4A 4298  17.048   2.198   8.675 -0.0805  0.1960  0.0211
  269loPI   C5A 4299  16.933   1.948   8.331  0.2271  0.0525  0.2546
  269loPI   C6A 4300  16.881   1.565   8.027 -0.2778 -0.1127  0.0814
  269loPI   C1B 4301  17.081   1.688   9.863 -0.1693  0.0307  0.1909
  269loPI   C2B 4302  17.206   1.710   9.517  0.0166  0.0133 -0.4080
  269loPI   C3B 4303  17.130   1.692   9.064 -0.1678 -0.3603 -0.0133
  269loPI   C4B 4304  17.168   1.622   8.618 -0.1539  0.0846  0.1542
  270loPI    C1 4305   7.723   7.350  11.131  0.0373  0.1063 -0.0454
  270loPI    C2 4306   7.986   7.088  11.279 -0.1117  0.1906  0.3838
  270loPI    C3 4307   8.076   7.477  11.272  0.0051  0.1610 -0.0136
  270loPI   PO4 4308   7.714   7.272  10.851 -0.0104  0.4757 -0.1250
  270loPI   GL1 4309   7.876   7.276  10.392  0.1157  0.1240  0.0580
  270loPI   GL2 4310   8.229   7.258  10.429  0.2738  0.1895 -0.0772
  270loPI   C1A 4311   7.955   6.918  10.120 -0.2537  0.1521  0.1380
  270loPI   C2A 4312   7.832   6.705   9.689 -0.1247  0.3265 -0.3976
  270loPI   C3A 4313   7.787   6.541   9.256 -0.2558 -0.0364 -0.3663
  270loPI   C4A 4314   7.644   6.425   8.761  0.1675 -0.2098 -0.0317
  270loPI   C5A 4315   7.593   6.030   8.553  0.0317  0.1427  0.2200
  270loPI   C6A 4316   7.447   5.621   8.544 -0.2199  0.3574 -0.0860
  270loPI   C1B 4317   8.277   7.301  10.008 -0.0507  0.0199  0.1179
  270loPI   C2B 4318   8.130   7.138   9.724 -0.2891  0.0672  0.1632
  270loPI   C3B 4319   8.086   7.026   9.303  0.2927  0.0079  0.0642
  270loPI   C4B 4320   7.904   6.918   8.949  0.0113 -0.1918 -0.3750
  271loPI    C1 4321   0.771  10.607  10.743  0.1380  0.0690  0.0683
  271loPI    C2 4322   0.407  10.745  10.833  0.0150  0.0456 -0.3699
  271loPI    C3 4323   0.522  10.385  10.964 -0.1379  0.0314 -0.2715
  271loPI   PO4 4324   0.823  10.810  10.588  0.0674  0.0088 -0.2659
  271loPI   GL1 4325   0.847  10.750  10.186  0.3301  0.0608 -0.0042
  271loPI   GL2 4326   0.823  10.934   9.927  0.2964  0.1915 -0.0723
  271loPI   C1A 4327   0.483  10.559   9.891  0.2490  0.1718  0.0895
  271loPI   C2A 4328   0.250  10.660   9.478  0.3971 -0.3046  0.0734
  271loPI   C3A 4329   0.249  10.682   9.087  0.0762 -0.0907 -0.1635
  271loPI   C4A 4330   0.361  10.622   8.688  0.1330  0.1535  0.0811
  271loPI   C5A 4331   0.358  10.452   8.399 -0.0254  0.2057  0.0827
  271loPI   C6A 4332   0.338  10.182   8.191 -0.0218  0.1005 -0.1141
  271loPI   C1B 4333   0.803  10.734   9.433 -0.1671 -0.0965 -0.0043
  271loPI   C2B 4334   0.873  10.688   8.959 -0.0828  0.2055 -0.0478
  271loPI   C3B 4335   0.835  10.636   8.542 -0.2190 -0.0556 -0.0781
  271loPI   C4B 4336   0.931  10.543   8.123  0.1105 -0.1385 -0.1063
  272loPI    C1 4337  10.898   0.894  11.004 -0.0645 -0.1792 -0.0488
  272loPI    C2 4338  10.987   1.225  10.797 -0.2428 -0.1178 -0.0294
  272loPI    C3 4339  10.847   1.255  11.171  0.0443 -0.2270  0.0898
  272loPI   PO4 4340  10.821   0.775  10.742  0.3100  0.3050 -0.1658
  272loPI   GL1 4341  10.739   0.817  10.383  0.1787  0.1023 -0.0715
  272loPI   GL2 4342  10.838   1.137  10.332 -0.1845  0.1774  0.1933
  272loPI   C1A 4343  10.719   0.783   9.969  0.0478  0.1496  0.0686
  272loPI   C2A 4344  10.552   0.655   9.437  0.1367 -0.1626 -0.0727
  272loPI   C3A 4345  10.139   0.657   9.282 -0.3184  0.0308 -0.1662
  272loPI   C4A 4346   9.855   0.556   8.926  0.1250  0.0761  0.1397
  272loPI   C5A 4347   9.597   0.257   8.846 -0.4018 -0.0619 -0.2565
  272loPI   C6A 4348   9.401  -0.189   8.722 -0.0473  0.0241  0.0736
  272loPI   C1B 4349  10.970   1.315   9.969  0.0545 -0.0949 -0.2510
  272loPI   C2B 4350  10.838   1.163   9.654 -0.0774  0.1876 -0.0717
  272loPI   C3B 4351  10.672   1.163   9.268  0.4271 -0.0422  0.0577
  272loPI   C4B 4352  10.837   0.846   8.917  0.3105  0.2049 -0.0209
  273loPI    C1 4353   0.487  15.532  10.596  0.2355  0.4396  0.0657
  273loPI    C2 4354   0.317  15.173  10.644  0.1203  0.4100 -0.4912
  273loPI    C3 4355   0.604  15.294  10.896  0.0079  0.0240 -0.1662
  273loPI   PO4 4356   0.281  15.658  10.484  0.1166 -0.1947 -0.1785
  273loPI   GL1 4357   0.383  15.780  10.106  0.0175  0.1482 -0.2903
  273loPI   GL2 4358   0.622  15.595  10.025 -0.1648  0.1124  0.1676
  273loPI   C1A 4359   0.044  15.555   9.709  0.0645 -0.1244  0.0342
  273loPI   C2A 4360  -0.256  15.406   9.461 -0.0119 -0.1454  0.1766
  273loPI   C3A 4361  -0.334  15.311   9.065  0.0100  0.0646  0.2001
  273loPI   C4A 4362  -0.600  15.345   8.779 -0.1170 -0.0530 -0.1762
  273loPI   C5A 4363  -0.759  15.216   8.335 -0.0164  0.0364 -0.0008
  273loPI   C6A 4364  -0.859  15.222   7.880  0.0057  0.0187 -0.1977
  273loPI   C1B 4365   0.571  15.534   9.560  0.1566  0.1766 -0.0206
  273loPI   C2B 4366   0.231  15.534   9.213 -0.1165 -0.2137  0.0522
  273loPI   C3B 4367   0.064  15.585   8.763 -0.0317 -0.0172 -0.0719
  273loPI   C4B 4368  -0.227  15.561   8.526 -0.1187  0.2909  0.0194
  274loPI    C1 4369  14.443  10.689  10.547 -0.0115 -0.0914 -0.0161
  274loPI    C2 4370  14.783  10.485  10.488  0.0196 -0.0092 -0.1232
  274loPI    C3 4371  14.771  10.779  10.759  0.0088 -0.0711 -0.0561
  274loPI   PO4 4372  14.243  10.411  10.470 -0.4048  0.3634  0.0706
  274loPI   GL1 4373  13.831  10.363  10.275 -0.3271 -0.4430  0.2114
  274loPI   GL2 4374  13.541  10.518  10.282 -0.0360 -0.0290 -0.2044
  274loPI   C1A 4375  14.015  10.442   9.855 -0.1860  0.0586 -0.3463
  274loPI   C2A 4376  14.070  10.546   9.458  0.1921  0.1127 -0.1022
  274loPI   C3A 4377  13.867  10.718   9.055 -0.1112 -0.0566 -0.0113
  274loPI   C4A 4378  13.857  11.046   8.750  0.0260 -0.0712  0.1920
  274loPI   C5A 4379  14.119  11.014   8.294 -0.4829 -0.2476  0.3032
  274loPI   C6A 4380  14.555  11.012   8.270  0.0546 -0.1187  0.0539
  274loPI   C1B 4381  13.499  10.562   9.852  0.0179 -0.0564  0.0097
  274loPI   C2B 4382  13.384  10.603   9.406  0.1418  0.0386 -0.0838
  274loPI   C3B 4383  13.338  10.660   8.994  0.0007  0.0736 -0.1484
  274loPI   C4B 4384  13.261  10.467   8.601 -0.0448  0.0692 -0.0906
  275loPI    C1 4385  17.182  15.580  10.123 -0.2417  0.1299 -0.0761
  275loPI    C2 4386  17.186  15.210  10.277  0.2073  0.1447 -0.0403
  275loPI    C3 4387  17.033  15.513  10.489 -0.2155 -0.0257 -0.0930
  275loPI   PO4 4388  17.368  15.642  10.018  0.1965  0.3243  0.0169
  275loPI   GL1 4389  17.442  15.888   9.710 -0.1768  0.1191  0.0601
  275loPI   GL2 4390  17.226  15.724   9.417  0.1065  0.1538  0.3585
  275loPI   C1A 4391  17.671  15.901   9.300 -0.0289 -0.2374 -0.0829
  275loPI   C2A 4392  17.707  16.001   8.822  0.1358 -0.2493  0.0942
  275loPI   C3A 4393  17.727  16.060   8.352  0.0186 -0.2558 -0.0155
  275loPI   C4A 4394  17.868  16.268   7.932 -0.1212  0.1897  0.2175
  275loPI   C5A 4395  17.965  16.547   7.469 -0.1070  0.0865 -0.3272
  275loPI   C6A 4396  18.232  16.573   7.064 -0.3211 -0.0156 -0.3123
  275loPI   C1B 4397  17.242  15.823   8.964 -0.0917 -0.1089  0.1358
  275loPI   C2B 4398  17.228  15.793   8.468  0.1876 -0.0606 -0.0378
  275loPI   C3B 4399  17.380  15.704   8.130 -0.0158  0.0315 -0.1086
  275loPI   C4B 4400  17.589  15.240   8.098  0.0821  0.0833 -0.0815
  276loPI    C1 4401  17.328  14.379  10.712 -0.0184 -0.0567 -0.0828
  276loPI    C2 4402  16.991  14.560  10.593 -0.1541 -0.3206 -0.1063
  276loPI    C3 4403  16.993  14.339  10.927  0.0575 -0.1281  0.0229
  276loPI   PO4 4404  17.511  14.609  10.659 -0.2380 -0.0290 -0.0470
  276loPI   GL1 4405  17.388  14.694  10.252 -0.2062  0.2424 -0.1132
  276loPI   GL2 4406  17.210  14.354  10.105  0.1439 -0.0822  0.0453
  276loPI   C1A 4407  17.249  14.766   9.882  0.0955  0.3396 -0.1626
  276loPI   C2A 4408  17.189  14.564   9.515  0.2311  0.0734  0.2368
  276loPI   C3A 4409  17.282  14.432   9.206  0.2855  0.0810  0.2428
  276loPI   C4A 4410  17.330  14.487   8.834 -0.2226 -0.0427 -0.1391
  276loPI   C5A 4411  17.344  14.422   8.395  0.1732  0.0463 -0.0334
  276loPI   C6A 4412  17.338  14.801   8.098  0.0703 -0.0575  0.1615
  276loPI   C1B 4413  17.581  14.401   9.833 -0.0250 -0.1644 -0.0494
  276loPI   C2B 4414  17.708  14.182   9.495  0.0587  0.0935  0.1626
  276loPI   C3B 4415  17.716  14.195   9.055  0.0094  0.0792 -0.2115
  276loPI   C4B 4416  17.692  14.049   8.616 -0.1498 -0.0045 -0.1913
  277loPI    C1 4417   6.458  15.822  11.097 -0.0118  0.0589 -0.3130
  277loPI    C2 4418   6.248  15.502  10.982 -0.1016  0.0085 -0.0186
  277loPI    C3 4419   6.194  15.656  11.347  0.2020  0.1414 -0.0263
  277loPI   PO4 4420   6.574  15.798  10.776 -0.1223  0.1299  0.0862
  277loPI   GL1 4421   6.919  16.027  10.532  0.0646  0.0643 -0.2410
  277loPI   GL2 4422   6.647  16.174  10.450 -0.0557  0.3140 -0.0091
  277loPI   C1A 4423   7.108  16.107  10.086  0.0764  0.1725 -0.1885
  277loPI   C2A 4424   7.270  16.284   9.673 -0.1079  0.1939 -0.0568
  277loPI   C3A 4425   7.140  16.255   9.320  0.0886 -0.0601  0.2393
  277loPI   C4A 4426   7.130  16.327   8.861 -0.1069 -0.0797 -0.0903
  277loPI   C5A 4427   6.806  16.373   8.555  0.2253 -0.1062  0.5102
  277loPI   C6A 4428   6.464  16.416   8.279  0.1612  0.3749 -0.0141
  277loPI   C1B 4429   6.609  16.038  10.084  0.0702  0.2586 -0.0693
  277loPI   C2B 4430   6.694  16.188   9.769 -0.0751  0.0144  0.2583
  277loPI   C3B 4431   6.631  16.059   9.301 -0.0049 -0.1502  0.0421
  277loPI   C4B 4432   6.702  16.069   8.941 -0.0640  0.2611 -0.0836
  278loPI    C1 4433  14.366   9.638  11.059  0.0716  0.0609 -0.2994
  278loPI    C2 4434  14.017   9.610  11.252 -0.0005  0.0818 -0.4253
  278loPI    C3 4435  14.321   9.369  11.351  0.0880  0.3450 -0.0297
  278loPI   PO4 4436  14.292   9.634  10.802 -0.1658 -0.0614  0.2181
  278loPI   GL1 4437  14.430   9.557  10.446 -0.0523  0.1273 -0.3046
  278loPI   GL2 4438  14.172   9.548  10.280  0.2991 -0.0112 -0.0888
  278loPI   C1A 4439  14.679   9.737  10.162  0.3296 -0.0906 -0.0358
  278loPI   C2A 4440  14.756   9.793   9.710  0.1711  0.0219 -0.1632
  278loPI   C3A 4441  14.826   9.754   9.383  0.1867  0.0800  0.2246
  278loPI   C4A 4442  14.909   9.446   8.873  0.1582 -0.3961  0.0983
  278loPI   C5A 4443  15.268   9.387   8.562 -0.0534  0.1576  0.0273
  278loPI   C6A 4444  15.303   9.391   8.048  0.2542 -0.1885  0.1659
  278loPI   C1B 4445  14.437   9.425   9.898  0.3336  0.1522  0.2889
  278loPI   C2B 4446  14.432   9.467   9.458 -0.3127  0.0008  0.3076
  278loPI   C3B 4447  14.443   9.341   9.056 -0.1554  0.2080  0.2498
  278loPI   C4B 4448  14.478   9.360   8.632 -0.1099 -0.1489  0.1500
  279loPI    C1 4449  10.476  13.961  10.995  0.0917 -0.0626  0.1859
  279loPI    C2 4450  10.712  14.156  10.737 -0.1641  0.0077  0.0015
  279loPI    C3 4451  10.872  13.902  11.001  0.1081 -0.0160 -0.1817
  279loPI   PO4 4452  10.282  13.847  10.859 -0.1068  0.1786  0.2250
  279loPI   GL1 4453  10.219  13.649  10.499 -0.1298  0.2321  0.2899
  279loPI   GL2 4454  10.608  13.837  10.395 -0.1502  0.2382  0.1150
  279loPI   C1A 4455  10.321  13.380  10.155  0.0769 -0.0252  0.4413
  279loPI   C2A 4456  10.319  13.403   9.711  0.1780  0.0294 -0.0080
  279loPI   C3A 4457  10.293  13.311   9.301  0.0102 -0.0387 -0.0070
  279loPI   C4A 4458  10.104  13.283   8.858 -0.0837 -0.0907 -0.1289
  279loPI   C5A 4459   9.881  13.030   8.514  0.0450 -0.0119  0.0309
  279loPI   C6A 4460   9.554  12.734   8.725  0.0645  0.0968  0.3198
  279loPI   C1B 4461  10.328  13.845  10.028 -0.1784 -0.3610  0.2672
  279loPI   C2B 4462  10.319  13.899   9.647  0.1791 -0.2296  0.0147
  279loPI   C3B 4463  10.359  13.837   9.264  0.1283 -0.1154  0.0965
  279loPI   C4B 4464  10.181  13.821   8.956  0.1330 -0.0563  0.0246
  280loPI    C1 4465   4.927  14.861  10.912  0.0835 -0.0184  0.1539
  280loPI    C2 4466   4.990  15.114  11.214  0.0071  0.2066 -0.0161
  280loPI    C3 4467   4.736  14.809  11.259 -0.0035  0.2387  0.1465
  280loPI   PO4 4468   4.854  15.023  10.660 -0.4355 -0.0610 -0.1096
  280loPI   GL1 4469   4.639  15.178  10.398  0.2237  0.1741 -0.2719
  280loPI   GL2 4470   4.491  15.447  10.372  0.2992  0.0231 -0.1821
  280loPI   C1A 4471   4.655  14.899  10.067 -0.1526  0.0081 -0.4058
  280loPI   C2A 4472   4.644  14.688   9.642 -0.1165 -0.0713 -0.2442
  280loPI   C3A 4473   4.668  14.775   9.288  0.1464  0.1274 -0.2641
  280loPI   C4A 4474   4.671  15.128   8.981  0.0445 -0.0831  0.0910
  280loPI   C5A 4475   4.460  15.182   8.705  0.0768 -0.0465  0.4356
  280loPI   C6A 4476   4.411  14.992   8.367  0.1511  0.0653  0.1189
  280loPI   C1B 4477   4.396  15.296   9.920 -0.0733  0.3672 -0.1931
  280loPI   C2B 4478   4.342  15.075   9.532  0.0714 -0.0281 -0.4130
  280loPI   C3B 4479   4.174  14.996   9.057  0.0896  0.0884  0.3092
  280loPI   C4B 4480   3.939  15.116   8.809  0.2269 -0.3060 -0.0488
  281loPI    C1 4481   5.881   2.007  10.973  0.1456 -0.4588 -0.0154
  281loPI    C2 4482   5.911   1.811  11.320 -0.1046  0.0387  0.2992
  281loPI    C3 4483   6.151   2.123  11.245 -0.0166 -0.0984 -0.0010
  281loPI   PO4 4484   5.816   1.801  10.856 -0.1269 -0.0732  0.2346
  281loPI   GL1 4485   5.924   1.550  10.509 -0.0332 -0.3048  0.0104
  281loPI   GL2 4486   5.638   1.421  10.467 -0.0880  0.4005  0.1605
  281loPI   C1A 4487   5.915   1.289  10.085 -0.0986 -0.1968  0.1090
  281loPI   C2A 4488   5.712   1.195   9.643 -0.2492  0.1625 -0.1971
  281loPI   C3A 4489   5.616   1.450   9.267  0.3349 -0.0375  0.0445
  281loPI   C4A 4490   5.787   1.464   8.944 -0.1169 -0.3005 -0.0347
  281loPI   C5A 4491   6.254   1.377   8.642  0.1805  0.0127 -0.1264
  281loPI   C6A 4492   6.490   1.318   8.338 -0.0122 -0.1116 -0.1050
  281loPI   C1B 4493   5.366   1.283  10.179 -0.3268  0.3241 -0.3501
  281loPI   C2B 4494   5.132   1.226   9.865 -0.1043 -0.0213  0.2225
  281loPI   C3B 4495   5.142   1.288   9.450  0.0082 -0.2783 -0.0037
  281loPI   C4B 4496   5.177   1.250   9.078 -0.2977 -0.1074 -0.1217
  282loPI    C1 4497  17.378   0.594  10.962  0.1578 -0.0127  0.0370
  282loPI    C2 4498  17.167   0.901  11.107  0.0595 -0.0584 -0.0085
  282loPI    C3 4499  17.566   0.924  11.090  0.0682 -0.0254  0.2039
  282loPI   PO4 4500  17.256   0.547  10.752 -0.1470 -0.3878  0.2252
  282loPI   GL1 4501  17.218   0.652  10.307 -0.1415  0.0025 -0.0208
  282loPI   GL2 4502  17.292   0.436  10.031  0.3768  0.3996  0.0924
  282loPI   C1A 4503  17.268   1.004   9.967 -0.0076 -0.1275 -0.0186
  282loPI   C2A 4504  17.397   1.211   9.533  0.1185  0.0729 -0.1896
  282loPI   C3A 4505  17.405   1.219   9.090 -0.1842  0.0183 -0.0238
  282loPI   C4A 4506  17.401   1.165   8.657 -0.2298 -0.1871  0.1223
  282loPI   C5A 4507  17.409   0.882   8.386 -0.2509 -0.5518  0.2023
  282loPI   C6A 4508  17.507   0.441   8.279  0.0256 -0.0587 -0.1663
  282loPI   C1B 4509  17.384   0.634   9.683  0.0167 -0.0846 -0.0777
  282loPI   C2B 4510  17.521   0.680   9.314  0.4026  0.3063  0.0429
  282loPI   C3B 4511  17.541   0.704   8.878  0.0483 -0.2626  0.2159
  282loPI   C4B 4512  17.814   0.651   8.574  0.0525 -0.1562  0.1072
  283loPI    C1 4513  15.748  11.125  10.751 -0.1593  0.0136  0.2368
  283loPI    C2 4514  15.492  10.922  10.982 -0.0546 -0.2132  0.1561
  283loPI    C3 4515  15.862  11.000  11.114 -0.0606 -0.1657  0.1451
  283loPI   PO4 4516  15.705  10.917  10.483 -0.1836 -0.2500 -0.2212
  283loPI   GL1 4517  15.609  10.991  10.120 -0.2379 -0.2268  0.0743
  283loPI   GL2 4518  15.271  11.134   9.943 -0.2061  0.2776  0.1068
  283loPI   C1A 4519  15.670  11.316   9.758 -0.0336  0.0373  0.1755
  283loPI   C2A 4520  15.569  11.397   9.308  0.0472  0.0976  0.0521
  283loPI   C3A 4521  15.514  11.425   8.903  0.0548  0.2016  0.4632
  283loPI   C4A 4522  15.234  11.320   8.645  0.3180  0.0126  0.0299
  283loPI   C5A 4523  14.839  11.444   8.563  0.2053  0.0187 -0.0643
  283loPI   C6A 4524  14.672  11.801   8.528 -0.1354 -0.0705 -0.1871
  283loPI   C1B 4525  15.191  11.127   9.493 -0.0334  0.3416 -0.0450
  283loPI   C2B 4526  15.103  10.942   9.157 -0.3230  0.0699  0.1374
  283loPI   C3B 4527  14.874  10.906   8.770 -0.0744 -0.5400 -0.0469
  283loPI   C4B 4528  14.341  10.936   8.709 -0.1419 -0.1357 -0.2473
  284loPI    C1 4529   6.409   6.532  11.082 -0.1370 -0.2013 -0.1449
  284loPI    C2 4530   6.280   6.832  11.314 -0.0964 -0.1823 -0.1470
  284loPI    C3 4531   6.452   6.510  11.479  0.0390 -0.1166 -0.1583
  284loPI   PO4 4532   6.522   6.647  10.885 -0.4161 -0.3203 -0.1940
  284loPI   GL1 4533   6.664   6.721  10.580  0.0847 -0.0869  0.1672
  284loPI   GL2 4534   7.001   6.676  10.456  0.1199 -0.0693 -0.4083
  284loPI   C1A 4535   6.704   6.810  10.103 -0.0503  0.2623 -0.1044
  284loPI   C2A 4536   6.786   6.538   9.771 -0.0772  0.1636 -0.1958
  284loPI   C3A 4537   6.746   6.233   9.497 -0.0161 -0.0226 -0.0131
  284loPI   C4A 4538   6.689   5.968   9.092  0.1626  0.0686 -0.0267
  284loPI   C5A 4539   6.495   5.721   8.770 -0.2330 -0.0637  0.1278
  284loPI   C6A 4540   6.469   5.455   8.422 -0.1508  0.1851  0.5566
  284loPI   C1B 4541   7.206   6.415  10.237  0.0519  0.1197  0.1449
  284loPI   C2B 4542   7.204   6.252   9.847  0.0879 -0.0741 -0.2650
  284loPI   C3B 4543   7.200   5.956   9.571 -0.3194  0.0844 -0.0389
  284loPI   C4B 4544   7.116   5.756   9.167  0.3318  0.3724 -0.1892
  285loPI    C1 4545   5.702   6.580  10.752 -0.0335 -0.1207  0.0154
  285loPI    C2 4546   5.586   6.211  10.854 -0.0886 -0.1266 -0.0680
  285loPI    C3 4547   5.399   6.529  11.008  0.0640 -0.1309  0.1295
  285loPI   PO4 4548   5.960   6.582  10.636 -0.0153  0.1777  0.0914
  285loPI   GL1 4549   5.894   6.604  10.230 -0.2099 -0.1712 -0.1735
  285loPI   GL2 4550   5.610   6.520  10.256 -0.2600  0.0965 -0.2640
  285loPI   C1A 4551   5.906   6.582   9.713 -0.2209 -0.1900 -0.0034
  285loPI   C2A 4552   5.930   6.569   9.289  0.0352  0.0312 -0.0404
  285loPI   C3A 4553   6.110   6.811   8.926 -0.0130  0.1715  0.0004
  285loPI   C4A 4554   6.125   6.848   8.450  0.1153  0.3448 -0.0361
  285loPI   C5A 4555   5.784   6.623   8.183 -0.4419 -0.0811  0.1457
  285loPI   C6A 4556   5.622   6.158   8.135  0.0495 -0.0491  0.1343
  285loPI   C1B 4557   5.462   6.618   9.960 -0.0493  0.2796 -0.1863
  285loPI   C2B 4558   5.489   6.531   9.498 -0.0150  0.1259  0.0123
  285loPI   C3B 4559   5.490   6.609   9.067 -0.0006 -0.1533  0.0499
  285loPI   C4B 4560   5.582   6.819   8.626 -0.0902 -0.0921  0.0586
  286loPI    C1 4561   6.041  12.014  10.840  0.1620  0.0382  0.0014
  286loPI    C2 4562   5.833  12.325  10.697 -0.0041  0.0136  0.1854
  286loPI    C3 4563   6.112  12.383  10.978  0.0015  0.0031  0.1820
  286loPI   PO4 4564   6.061  11.834  10.662 -0.0377  0.0317  0.4163
  286loPI   GL1 4565   5.967  11.946  10.307 -0.0151 -0.4281 -0.1801
  286loPI   GL2 4566   5.854  12.187  10.265 -0.1759  0.1184  0.0099
  286loPI   C1A 4567   6.323  12.215  10.085  0.0256 -0.1458 -0.0351
  286loPI   C2A 4568   6.535  12.377   9.864 -0.1007  0.1109  0.0272
  286loPI   C3A 4569   6.666  12.456   9.454 -0.1020 -0.0570  0.1847
  286loPI   C4A 4570   6.740  12.484   8.988  0.0651 -0.3166 -0.1669
  286loPI   C5A 4571   6.371  12.730   8.708  0.0178  0.0428  0.1598
  286loPI   C6A 4572   5.968  12.804   9.030  0.1821 -0.1742 -0.1195
  286loPI   C1B 4573   5.966  12.162   9.804  0.0513  0.4039  0.0682
  286loPI   C2B 4574   5.963  12.114   9.377  0.1362  0.2618  0.1439
  286loPI   C3B 4575   5.914  12.086   9.002 -0.1538  0.1683  0.0361
  286loPI   C4B 4576   5.871  12.392   8.615  0.0560 -0.0389  0.0932
  287loPI    C1 4577   5.899  14.507  11.115  0.0100 -0.1518  0.2002
  287loPI    C2 4578   6.153  14.675  11.374  0.0377  0.0676  0.0339
  287loPI    C3 4579   5.761  14.670  11.453  0.0385  0.1971  0.0486
  287loPI   PO4 4580   5.976  14.490  10.787 -0.2502  0.1093 -0.0858
  287loPI   GL1 4581   5.736  14.465  10.384 -0.0734  0.2453  0.1747
  287loPI   GL2 4582   5.523  14.656  10.123 -0.0033  0.1550  0.1443
  287loPI   C1A 4583   5.988  14.592  10.119  0.1731 -0.0695  0.0782
  287loPI   C2A 4584   6.089  14.623   9.713 -0.2660  0.1437  0.3371
  287loPI   C3A 4585   5.976  14.634   9.295 -0.0238 -0.1236  0.1776
  287loPI   C4A 4586   6.155  14.602   8.917  0.3061  0.1095 -0.1613
  287loPI   C5A 4587   6.513  14.713   8.684  0.4292  0.2470 -0.0879
  287loPI   C6A 4588   6.762  14.723   8.413  0.2097 -0.1437 -0.1547
  287loPI   C1B 4589   5.527  14.690   9.631 -0.1121  0.2870  0.0841
  287loPI   C2B 4590   5.542  14.646   9.157 -0.3111  0.0536 -0.0569
  287loPI   C3B 4591   5.575  14.387   8.800 -0.0329 -0.0747  0.0213
  287loPI   C4B 4592   5.692  13.931   8.656  0.1408  0.0804 -0.1925
  288loPI    C1 4593  11.281   4.646  10.509  0.0797 -0.0218  0.3855
  288loPI    C2 4594  11.169   4.291  10.656 -0.0278 -0.0439  0.2518
  288loPI    C3 4595  10.894   4.571  10.577  0.0255 -0.0427  0.0673
  288loPI   PO4 4596  11.463   4.823  10.621 -0.2824  0.2664  0.0883
  288loPI   GL1 4597  11.661   5.122  10.269  0.1555  0.0941 -0.0286
  288loPI   GL2 4598  11.352   4.974  10.155 -0.2570 -0.0371  0.1582
  288loPI   C1A 4599  11.753   4.948   9.879  0.1416 -0.1061 -0.3062
  288loPI   C2A 4600  11.775   4.676   9.620 -0.0354  0.0010 -0.1457
  288loPI   C3A 4601  12.168   4.483   9.446  0.0227 -0.0435 -0.1901
  288loPI   C4A 4602  12.495   4.690   9.245 -0.1401 -0.0183 -0.1757
  288loPI   C5A 4603  12.865   4.529   9.101  0.1005  0.1720  0.1050
  288loPI   C6A 4604  13.122   4.238   9.182  0.0574 -0.1570 -0.1799
  288loPI   C1B 4605  11.259   4.833   9.699  0.1866 -0.0322  0.1791
  288loPI   C2B 4606  11.299   4.730   9.293  0.1218 -0.2232 -0.1229
  288loPI   C3B 4607  11.108   4.517   8.965 -0.2795  0.0863  0.0604
  288loPI   C4B 4608  11.028   4.616   8.602 -0.0959 -0.0454  0.0742
  289loPI    C1 4609   7.356  10.334  10.891 -0.4072 -0.3589 -0.0839
  289loPI    C2 4610   7.467  10.029  11.125  0.0740 -0.1078  0.0271
  289loPI    C3 4611   7.228  10.316  11.270 -0.0613 -0.2268  0.0424
  289loPI   PO4 4612   7.205  10.180  10.598  0.1193 -0.1955  0.2115
  289loPI   GL1 4613   6.924  10.385  10.306  0.0142 -0.1343  0.0103
  289loPI   GL2 4614   6.860  10.816  10.342 -0.0821  0.2174 -0.0448
  289loPI   C1A 4615   7.036  10.113   9.903  0.0490 -0.0536  0.2113
  289loPI   C2A 4616   6.984  10.024   9.449  0.0453 -0.2589  0.1493
  289loPI   C3A 4617   6.991   9.812   9.119  0.0899 -0.0202 -0.2061
  289loPI   C4A 4618   7.141   9.710   8.765  0.2013 -0.1726 -0.3491
  289loPI   C5A 4619   6.931   9.355   8.582  0.1553  0.2321 -0.0008
  289loPI   C6A 4620   6.737   9.062   8.270 -0.0178  0.0427 -0.1303
  289loPI   C1B 4621   6.817  10.991   9.867 -0.3197 -0.0830 -0.1324
  289loPI   C2B 4622   6.796  10.986   9.497  0.1419 -0.1965 -0.3784
  289loPI   C3B 4623   6.714  10.924   9.064 -0.3687 -0.0625 -0.2425
  289loPI   C4B 4624   6.855  10.682   8.777  0.2070  0.0054 -0.0983
  290loPI    C1 4625  10.570  16.820  10.400 -0.1743  0.1712 -0.0178
  290loPI    C2 4626  10.394  16.673  10.728 -0.0335 -0.0278 -0.0294
  290loPI    C3 4627  10.196  16.679  10.381 -0.1824  0.1819  0.0568
  290loPI   PO4 4628  10.820  16.837  10.422 -0.0348 -0.1995 -0.1061
  290loPI   GL1 4629  11.135  16.885  10.105  0.3051 -0.0465  0.0683
  290loPI   GL2 4630  11.429  16.964   9.929 -0.0113 -0.1649  0.0690
  290loPI   C1A 4631  11.088  16.698   9.674 -0.2670 -0.1726  0.0091
  290loPI   C2A 4632  11.056  16.684   9.215  0.3134 -0.0644  0.1297
  290loPI   C3A 4633  10.856  16.672   8.778  0.1145  0.2707  0.4013
  290loPI   C4A 4634  10.738  16.637   8.295 -0.2595 -0.0037 -0.2308
  290loPI   C5A 4635  10.613  16.926   7.997  0.2438  0.0647  0.5177
  290loPI   C6A 4636  10.413  17.148   7.627  0.0043  0.2775  0.1259
  290loPI   C1B 4637  11.567  16.975   9.517  0.0157 -0.2850 -0.0679
  290loPI   C2B 4638  11.588  16.998   9.111 -0.2808 -0.2953  0.0809
  290loPI   C3B 4639  11.504  16.979   8.666 -0.1714 -0.1044  0.0556
  290loPI   C4B 4640  11.425  17.028   8.206  0.1991  0.0951  0.0903
  291loPI    C1 4641   5.679   6.986  11.116  0.2139 -0.2830 -0.0069
  291loPI    C2 4642   5.570   6.716  11.391 -0.3633 -0.0809 -0.0244
  291loPI    C3 4643   5.641   7.095  11.499  0.0086 -0.1349 -0.0676
  291loPI   PO4 4644   5.561   7.046  10.962 -0.2737  0.0748 -0.1563
  291loPI   GL1 4645   5.583   7.186  10.576 -0.0132  0.0815 -0.0202
  291loPI   GL2 4646   5.678   6.977  10.493  0.1185  0.2024  0.0978
  291loPI   C1A 4647   5.230   7.108  10.195 -0.2706  0.0191  0.2591
  291loPI   C2A 4648   5.225   6.974   9.774  0.0589  0.4183 -0.0663
  291loPI   C3A 4649   5.254   7.042   9.394  0.3249 -0.0610 -0.2332
  291loPI   C4A 4650   5.355   7.213   8.947  0.1494 -0.2453  0.1117
  291loPI   C5A 4651   5.236   7.412   8.622  0.1838  0.1340 -0.2816
  291loPI   C6A 4652   5.543   7.471   8.319  0.0717 -0.1315  0.1838
  291loPI   C1B 4653   5.681   7.056  10.016 -0.0333  0.3003  0.0783
  291loPI   C2B 4654   5.797   7.075   9.622 -0.1380 -0.0751  0.0675
  291loPI   C3B 4655   5.766   7.041   9.161 -0.3051  0.0879 -0.0335
  291loPI   C4B 4656   5.831   7.247   8.697  0.3275 -0.0270 -0.0787
  292loPI    C1 4657   9.649   1.519  11.117  0.0430  0.2591 -0.0278
  292loPI    C2 4658  10.035   1.449  11.036  0.0414  0.2172  0.0008
  292loPI    C3 4659   9.907   1.451  11.415 -0.0940 -0.3401 -0.0333
  292loPI   PO4 4660   9.548   1.364  10.873 -0.2690 -0.2664 -0.0346
  292loPI   GL1 4661   9.503   1.560  10.501  0.0981  0.2295  0.1092
  292loPI   GL2 4662   9.289   1.767  10.489  0.1269  0.0887  0.1830
  292loPI   C1A 4663   9.803   1.903  10.293 -0.0446 -0.2392 -0.2270
  292loPI   C2A 4664   9.732   2.041   9.875  0.0925 -0.1604 -0.2139
  292loPI   C3A 4665   9.795   2.164   9.451 -0.2749  0.4482  0.0260
  292loPI   C4A 4666   9.713   2.281   8.998  0.0436  0.0658 -0.2989
  292loPI   C5A 4667   9.729   2.349   8.609  0.1244  0.0180  0.1432
  292loPI   C6A 4668   9.611   2.615   8.194 -0.1990 -0.0467 -0.0888
  292loPI   C1B 4669   9.362   1.706   9.998 -0.1798 -0.0977 -0.2366
  292loPI   C2B 4670   9.442   1.843   9.471 -0.2067  0.2977  0.1609
  292loPI   C3B 4671   9.479   1.853   8.998  0.1973 -0.1262 -0.0476
  292loPI   C4B 4672   9.510   1.904   8.501  0.4515 -0.1522  0.4574
  293loPI    C1 4673  15.610   6.917  10.945 -0.0962 -0.2190  0.1535
  293loPI    C2 4674  15.224   6.944  11.048 -0.1157 -0.0853  0.0489
  293loPI    C3 4675  15.508   6.963  11.329 -0.1746  0.1082  0.0967
  293loPI   PO4 4676  15.560   6.875  10.628 -0.0934 -0.0337  0.3656
  293loPI   GL1 4677  15.904   6.925  10.196  0.3956  0.2096 -0.1255
  293loPI   GL2 4678  16.019   6.681  10.195  0.1434 -0.1382  0.0000
  293loPI   C1A 4679  16.030   7.077   9.744  0.2616  0.1267  0.2831
  293loPI   C2A 4680  15.965   7.533   9.557 -0.1602  0.1760  0.1888
  293loPI   C3A 4681  16.255   7.705   9.193 -0.2094  0.0257 -0.0385
  293loPI   C4A 4682  16.337   7.405   8.879 -0.1899 -0.3299 -0.1596
  293loPI   C5A 4683  16.318   7.071   8.555  0.0507  0.1205 -0.2101
  293loPI   C6A 4684  16.415   6.740   8.209  0.0704 -0.4821 -0.1207
  293loPI   C1B 4685  16.175   6.570   9.788  0.1767 -0.0453  0.1409
  293loPI   C2B 4686  16.235   6.385   9.525 -0.0444  0.2971  0.3027
  293loPI   C3B 4687  16.294   6.233   9.209  0.0242  0.1591 -0.0363
  293loPI   C4B 4688  16.357   6.035   8.822  0.1475  0.1285  0.0662
  294loPI    C1 4689  14.987   6.248  10.974 -0.0878  0.0298 -0.0811
  294loPI    C2 4690  14.656   6.414  10.824 -0.1904 -0.0662  0.0371
  294loPI    C3 4691  14.802   6.541  11.174 -0.1632 -0.0972  0.0370
  294loPI   PO4 4692  15.013   6.086  10.756 -0.1770  0.1506 -0.2466
  294loPI   GL1 4693  14.934   6.193  10.374  0.2050 -0.1257 -0.0671
  294loPI   GL2 4694  15.059   6.469  10.203 -0.0634 -0.2469  0.0164
  294loPI   C1A 4695  14.703   5.937  10.013  0.0174 -0.0324  0.2272
  294loPI   C2A 4696  14.811   6.049   9.609  0.0722 -0.0790 -0.0648
  294loPI   C3A 4697  14.881   5.934   9.164 -0.0873  0.0453  0.1391
  294loPI   C4A 4698  14.883   5.939   8.728  0.0914 -0.1774  0.1735
  294loPI   C5A 4699  15.078   5.831   8.403  0.0819 -0.1644  0.2809
  294loPI   C6A 4700  14.942   5.470   8.240  0.0291 -0.1440 -0.1055
  294loPI   C1B 4701  15.074   6.509   9.804  0.3845  0.0634  0.1899
  294loPI   C2B 4702  15.186   6.456   9.361 -0.0284  0.1676 -0.2356
  294loPI   C3B 4703  15.475   6.557   9.021 -0.0640  0.1964  0.1297
  294loPI   C4B 4704  15.555   6.461   8.610 -0.0097  0.1673 -0.5139
  295loPI    C1 4705  15.667  13.314  10.514 -0.2246  0.0744  0.1793
  295loPI    C2 4706  15.853  12.991  10.660 -0.0943 -0.0345 -0.2136
  295loPI    C3 4707  15.470  13.060  10.752 -0.0436 -0.1478  0.0963
  295loPI   PO4 4708  15.825  13.291  10.267 -0.0023 -0.1147  0.0500
  295loPI   GL1 4709  15.689  13.173   9.867  0.1911 -0.0153  0.1061
  295loPI   GL2 4710  15.746  12.851   9.800  0.1309  0.1289 -0.1587
  295loPI   C1A 4711  16.036  13.310   9.519  0.0404  0.1727 -0.0376
  295loPI   C2A 4712  16.149  13.293   9.186 -0.0533 -0.1295  0.2767
  295loPI   C3A 4713  16.255  13.309   8.722  0.3202 -0.0715 -0.0506
  295loPI   C4A 4714  16.013  13.125   8.379 -0.1762 -0.2932 -0.2132
  295loPI   C5A 4715  15.960  13.181   7.910  0.3839  0.0383 -0.0814
  295loPI   C6A 4716  15.680  13.337   7.559  0.2743  0.0198  0.0408
  295loPI   C1B 4717  15.714  12.956   9.402  0.1618  0.2533 -0.0742
  295loPI   C2B 4718  15.832  13.055   8.908 -0.2034 -0.0402  0.0247
  295loPI   C3B 4719  15.493  13.039   8.588 -0.3546  0.1277  0.1222
  295loPI   C4B 4720  15.177  12.941   8.428 -0.0508  0.1721 -0.1320
  296loPI    C1 4721  14.466  16.177  10.688  0.1898  0.0632 -0.1865
  296loPI    C2 4722  14.735  15.962  10.892 -0.1155  0.0857  0.2540
  296loPI    C3 4723  14.753  16.362  10.896 -0.0860  0.0853  0.1841
  296loPI   PO4 4724  14.440  16.079  10.444 -0.2049  0.1269  0.1550
  296loPI   GL1 4725  14.691  15.948  10.103 -0.0540  0.1540  0.0913
  296loPI   GL2 4726  15.053  15.814  10.057 -0.1439  0.0162  0.5109
  296loPI   C1A 4727  14.746  15.900   9.706 -0.0467 -0.1969  0.1300
  296loPI   C2A 4728  14.821  15.824   9.326 -0.1603 -0.0746  0.3607
  296loPI   C3A 4729  14.763  15.726   8.894  0.1429 -0.1686 -0.1411
  296loPI   C4A 4730  14.544  15.842   8.378 -0.2941  0.1560 -0.0374
  296loPI   C5A 4731  14.420  16.065   8.175 -0.0223  0.0552 -0.2025
  296loPI   C6A 4732  14.459  16.508   7.980 -0.1639  0.3958  0.3324
  296loPI   C1B 4733  15.135  15.590   9.678  0.2506 -0.0679 -0.1132
  296loPI   C2B 4734  15.211  15.462   9.274  0.2473 -0.2048  0.2617
  296loPI   C3B 4735  15.125  15.426   8.894 -0.2424 -0.0209  0.1333
  296loPI   C4B 4736  15.188  15.327   8.394 -0.0278  0.0275 -0.2814
  297loPI    C1 4737   0.814  17.257  10.932 -0.0222 -0.1937  0.0922
  297loPI    C2 4738   1.164  17.211  11.120 -0.0177 -0.0058  0.1315
  297loPI    C3 4739   0.924  16.896  11.066  0.2349 -0.1709 -0.0515
  297loPI   PO4 4740   0.849  17.446  10.752 -0.0290  0.1108 -0.1396
  297loPI   GL1 4741   0.752  17.550  10.297 -0.2443  0.3288  0.4360
  297loPI   GL2 4742   0.475  17.728  10.202  0.0719 -0.2285 -0.0719
  297loPI   C1A 4743   0.945  17.589  10.006  0.1046 -0.1913  0.0484
  297loPI   C2A 4744   1.113  17.458   9.617 -0.1841 -0.0538 -0.0561
  297loPI   C3A 4745   1.062  17.326   9.288 -0.0106 -0.5702  0.1219
  297loPI   C4A 4746   1.058  17.366   8.803  0.3864 -0.0114  0.1209
  297loPI   C5A 4747   1.011  17.486   8.437  0.2536  0.1021 -0.2132
  297loPI   C6A 4748   0.667  17.379   8.296 -0.0486 -0.0619  0.2290
  297loPI   C1B 4749   0.501  17.494   9.825 -0.3405  0.0444  0.0507
  297loPI   C2B 4750   0.639  17.471   9.414 -0.0384  0.0286  0.1223
  297loPI   C3B 4751   0.539  17.459   9.025 -0.0707  0.2200 -0.2719
  297loPI   C4B 4752   0.557  17.722   8.666 -0.1887  0.0071  0.1024
  298loPI    C1 4753   4.656   1.040  11.110  0.0778  0.0552  0.0994
  298loPI    C2 4754   5.054   1.070  11.081  0.0556  0.1751 -0.1006
  298loPI    C3 4755   4.886   0.969  11.429  0.2648  0.0456 -0.0354
  298loPI   PO4 4756   4.557   1.279  10.942  0.3879  0.0032 -0.4825
  298loPI   GL1 4757   4.428   1.422  10.527 -0.0353  0.0180  0.3219
  298loPI   GL2 4758   4.275   1.649  10.461 -0.0517 -0.2019 -0.1151
  298loPI   C1A 4759   4.607   1.342  10.112 -0.1727 -0.1344  0.0699
  298loPI   C2A 4760   4.699   1.534   9.758  0.0173  0.0160  0.6947
  298loPI   C3A 4761   4.694   1.526   9.290  0.0824 -0.0823 -0.0316
  298loPI   C4A 4762   4.807   1.560   8.878  0.1086 -0.2318 -0.2619
  298loPI   C5A 4763   4.939   1.571   8.450  0.0342  0.2216 -0.1487
  298loPI   C6A 4764   4.883   1.572   8.011 -0.0818 -0.0082 -0.0946
  298loPI   C1B 4765   4.249   1.725  10.051 -0.1109  0.1457 -0.1472
  298loPI   C2B 4766   4.263   1.773   9.594  0.1244  0.0730 -0.1327
  298loPI   C3B 4767   4.326   1.831   9.125  0.2947 -0.0126 -0.1824
  298loPI   C4B 4768   4.030   1.954   8.732  0.0337 -0.2316  0.1377
  299loPI    C1 4769   3.998   2.178  10.685 -0.0907  0.1777  0.0368
  299loPI    C2 4770   3.708   2.060  10.934 -0.1493 -0.0551 -0.1380
  299loPI    C3 4771   3.942   1.788  10.756  0.1679  0.1296 -0.0119
  299loPI   PO4 4772   4.141   2.278  10.723  0.1187  0.0955 -0.1141
  299loPI   GL1 4773   4.231   2.479  10.305  0.1203  0.0493  0.1088
  299loPI   GL2 4774   4.401   2.178  10.300  0.0215 -0.0213  0.0137
  299loPI   C1A 4775   3.958   2.537   9.965  0.5895  0.1533  0.1525
  299loPI   C2A 4776   3.866   2.488   9.569 -0.1839 -0.1050  0.2374
  299loPI   C3A 4777   3.587   2.472   9.284 -0.0666 -0.0580 -0.0113
  299loPI   C4A 4778   3.307   2.296   9.301 -0.0920  0.1942  0.0532
  299loPI   C5A 4779   3.050   2.118   9.057  0.0587  0.1106 -0.2464
  299loPI   C6A 4780   2.710   2.092   8.834 -0.2401 -0.1631  0.0535
  299loPI   C1B 4781   4.340   2.263   9.827  0.3908 -0.1846 -0.0802
  299loPI   C2B 4782   4.247   2.198   9.449  0.2454 -0.1334 -0.1504
  299loPI   C3B 4783   4.091   2.326   9.060  0.1190  0.0150 -0.2080
  299loPI   C4B 4784   3.810   2.606   8.853  0.1065  0.0800  0.2154
  300loPI    C1 4785  16.019   9.371  10.866 -0.3231 -0.0861 -0.0795
  300loPI    C2 4786  15.964   9.285  11.253  0.1481 -0.2661 -0.0456
  300loPI    C3 4787  16.081   8.999  10.999  0.1768 -0.0730 -0.2537
  300loPI   PO4 4788  15.898   9.377  10.662 -0.2821  0.1522  0.1066
  300loPI   GL1 4789  15.492   9.217  10.417  0.2040 -0.0086 -0.2318
  300loPI   GL2 4790  15.804   9.122  10.263 -0.1049 -0.3020 -0.0816
  300loPI   C1A 4791  15.538   9.267   9.889  0.0521  0.3525  0.4395
  300loPI   C2A 4792  15.593   9.125   9.433 -0.2239  0.1710 -0.0437
  300loPI   C3A 4793  15.742   9.144   9.001  0.1942  0.0663  0.3354
  300loPI   C4A 4794  15.740   9.159   8.540 -0.0630 -0.2972 -0.0480
  300loPI   C5A 4795  15.753   9.406   8.190 -0.0828 -0.1655  0.1956
  300loPI   C6A 4796  15.989   9.541   7.881 -0.0282  0.0940 -0.4072
  300loPI   C1B 4797  16.078   9.045   9.993 -0.0915 -0.3396 -0.0296
  300loPI   C2B 4798  16.280   9.201   9.721 -0.1378  0.0347  0.2444
  300loPI   C3B 4799  16.333   9.208   9.263 -0.1135 -0.2169  0.0532
  300loPI   C4B 4800  16.220   9.180   8.808  0.0014 -0.0460  0.1773
  301loPI    C1 4801   8.362  11.193  10.991 -0.0145 -0.1619  0.0896
  301loPI    C2 4802   8.540  11.149  11.347 -0.0052  0.0410  0.1117
  301loPI    C3 4803   8.187  11.336  11.322 -0.1017 -0.1475  0.0378
  301loPI   PO4 4804   8.556  11.319  10.728  0.0385 -0.0090 -0.1732
  301loPI   GL1 4805   8.815  11.228  10.381  0.0971  0.0588  0.0926
  301loPI   GL2 4806   9.036  10.929  10.322  0.2140 -0.2801 -0.1206
  301loPI   C1A 4807   8.764  11.426  10.139 -0.0856 -0.2486 -0.1590
  301loPI   C2A 4808   8.765  11.652   9.668  0.2231 -0.0119  0.2304
  301loPI   C3A 4809   8.768  11.659   9.226 -0.1501  0.3070  0.1614
  301loPI   C4A 4810   8.727  11.705   8.790 -0.3989 -0.1516 -0.0380
  301loPI   C5A 4811   8.608  11.499   8.449  0.0307 -0.0198  0.0590
  301loPI   C6A 4812   8.565  11.239   8.068  0.1631 -0.1369 -0.0878
  301loPI   C1B 4813   9.147  11.162   9.934 -0.0343  0.0104  0.2731
  301loPI   C2B 4814   9.142  11.362   9.536  0.2146 -0.0173  0.0259
  301loPI   C3B 4815   9.131  11.329   9.078 -0.1518  0.2251  0.3298
  301loPI   C4B 4816   8.967  11.263   8.739 -0.2234 -0.1789  0.1655
  302loPI    C1 4817   8.494   5.913  11.062 -0.1455  0.0987 -0.0568
  302loPI    C2 4818   8.524   5.572  11.267  0.0476  0.1189 -0.0503
  302loPI    C3 4819   8.812   5.848  11.294 -0.1210  0.2951 -0.0336
  302loPI   PO4 4820   8.434   5.946  10.841  0.1688  0.0797  0.2275
  302loPI   GL1 4821   8.089   6.024  10.640 -0.2290  0.0333  0.1130
  302loPI   GL2 4822   7.864   6.141  10.720  0.1216 -0.1215  0.0254
  302loPI   C1A 4823   8.031   5.857  10.135  0.2989 -0.1394  0.1770
  302loPI   C2A 4824   7.985   5.579   9.750 -0.2729  0.2339 -0.0127
  302loPI   C3A 4825   7.979   5.568   9.312 -0.1206 -0.1686  0.1044
  302loPI   C4A 4826   7.892   5.646   8.803 -0.1075  0.1477 -0.1114
  302loPI   C5A 4827   8.068   5.950   8.551 -0.0851  0.3815 -0.1287
  302loPI   C6A 4828   8.003   6.367   8.421 -0.1317  0.1799  0.1230
  302loPI   C1B 4829   7.888   6.445  10.333 -0.4764 -0.1649  0.0896
  302loPI   C2B 4830   7.756   6.215   9.899  0.2618  0.0134 -0.1658
  302loPI   C3B 4831   7.721   6.022   9.481  0.2491 -0.1672 -0.0129
  302loPI   C4B 4832   7.513   5.974   9.065 -0.1581 -0.2776  0.3393
  303loPI    C1 4833  12.875   1.708  10.718  0.0399  0.1114 -0.0536
  303loPI    C2 4834  12.910   1.359  10.525 -0.1820  0.1914 -0.2419
  303loPI    C3 4835  12.768   1.368  10.898  0.0097  0.0616 -0.1646
  303loPI   PO4 4836  12.736   1.909  10.430  0.2073 -0.3662  0.2541
  303loPI   GL1 4837  12.989   2.322  10.237 -0.0310  0.0032 -0.2372
  303loPI   GL2 4838  12.813   2.329  10.077  0.0514 -0.0659 -0.1893
  303loPI   C1A 4839  13.341   2.447  10.049 -0.2216 -0.0426  0.2687
  303loPI   C2A 4840  13.353   2.456   9.570  0.1645  0.5095  0.2296
  303loPI   C3A 4841  13.650   2.349   9.148  0.0285 -0.1655  0.2136
  303loPI   C4A 4842  13.819   2.413   8.680 -0.1039  0.3360 -0.0163
  303loPI   C5A 4843  13.819   2.657   8.285 -0.1639 -0.2513 -0.1052
  303loPI   C6A 4844  13.759   2.932   8.006  0.2942 -0.0912  0.1054
  303loPI   C1B 4845  12.861   2.402   9.657 -0.2835  0.0055  0.0577
  303loPI   C2B 4846  12.800   2.421   9.131 -0.0449 -0.1694 -0.0191
  303loPI   C3B 4847  12.666   2.466   8.728  0.3612 -0.0892 -0.2835
  303loPI   C4B 4848  12.648   2.335   8.295  0.1464 -0.2635  0.0731
  304loPI    C1 4849   9.300   9.114  11.107 -0.0574  0.1114 -0.1930
  304loPI    C2 4850   9.440   9.468  11.229  0.1680 -0.0223 -0.0565
  304loPI    C3 4851   9.104   9.320  11.388 -0.0595  0.2368 -0.2855
  304loPI   PO4 4852   9.239   9.150  10.753  0.0489  0.0595 -0.4986
  304loPI   GL1 4853   9.313   9.369  10.370 -0.5890  0.0096 -0.2560
  304loPI   GL2 4854   9.207   8.950  10.296 -0.2723 -0.1517  0.2850
  304loPI   C1A 4855   9.356   9.556   9.977 -0.0631  0.0111 -0.1761
  304loPI   C2A 4856   9.365   9.391   9.540  0.3264  0.1986 -0.0309
  304loPI   C3A 4857   9.234   9.457   9.084 -0.0122  0.1250  0.2906
  304loPI   C4A 4858   9.149   9.247   8.674 -0.2807 -0.0455  0.1161
  304loPI   C5A 4859   9.179   9.449   8.290 -0.1023  0.2939 -0.0092
  304loPI   C6A 4860   9.469   9.625   7.945 -0.1396 -0.1382  0.0677
  304loPI   C1B 4861   9.125   8.604  10.011 -0.0115 -0.3439 -0.1267
  304loPI   C2B 4862   9.101   8.467   9.535  0.0421 -0.1899 -0.0293
  304loPI   C3B 4863   9.168   8.505   9.100  0.2579 -0.0354  0.0507
  304loPI   C4B 4864   9.548   8.599   8.745  0.0098 -0.0546 -0.0089
  305loPI    C1 4865  10.399   2.524  10.808 -0.0186 -0.0757  0.0590
  305loPI    C2 4866  10.272   2.452  11.181 -0.2905 -0.2346 -0.0615
  305loPI    C3 4867  10.583   2.249  11.033 -0.0500 -0.0250  0.1474
  305loPI   PO4 4868  10.199   2.556  10.656 -0.0495 -0.0585  0.2229
  305loPI   GL1 4869  10.189   2.952  10.311 -0.3189  0.1721  0.0192
  305loPI   GL2 4870  10.424   2.949  10.437 -0.1161 -0.0123 -0.2950
  305loPI   C1A 4871  10.228   2.946   9.829  0.0738  0.3186 -0.1385
  305loPI   C2A 4872  10.305   2.915   9.364 -0.0040 -0.0285 -0.0956
  305loPI   C3A 4873  10.255   2.961   9.074 -0.0170  0.0533  0.0684
  305loPI   C4A 4874  10.464   3.008   8.753  0.3422 -0.0195 -0.0828
  305loPI   C5A 4875  10.586   2.679   8.463  0.1703 -0.2811  0.2110
  305loPI   C6A 4876  10.263   2.283   8.341 -0.0851 -0.0676 -0.0821
  305loPI   C1B 4877  10.816   2.882  10.298 -0.0346 -0.0953  0.0745
  305loPI   C2B 4878  11.116   2.928   9.968  0.0206 -0.0834  0.0362
  305loPI   C3B 4879  11.051   2.855   9.477 -0.0879  0.2802  0.0940
  305loPI   C4B 4880  11.160   2.880   9.180  0.0899 -0.1441 -0.0218
  306loPI    C1 4881  11.345  14.436  10.610  0.1385 -0.3387 -0.0578
  306loPI    C2 4882  11.429  14.443  11.001 -0.0558 -0.0724 -0.0175
  306loPI    C3 4883  11.648  14.659  10.745 -0.0383 -0.1088 -0.0332
  306loPI   PO4 4884  11.066  14.487  10.568 -0.0271  0.1232 -0.1050
  306loPI   GL1 4885  10.840  14.321  10.290 -0.0611  0.1437  0.2008
  306loPI   GL2 4886  11.078  14.493  10.095  0.0830  0.1245  0.0520
  306loPI   C1A 4887  10.884  14.025   9.918  0.2276 -0.2252 -0.0103
  306loPI   C2A 4888  10.844  14.115   9.539 -0.0305  0.1664  0.0150
  306loPI   C3A 4889  10.826  14.025   9.101  0.2220  0.3464  0.0624
  306loPI   C4A 4890  10.728  14.082   8.642 -0.2368 -0.0884  0.1187
  306loPI   C5A 4891  10.422  14.254   8.207 -0.0272 -0.1188  0.0803
  306loPI   C6A 4892  10.340  14.239   7.755  0.2908 -0.2749 -0.1812
  306loPI   C1B 4893  11.202  14.377   9.762 -0.0995  0.3497 -0.1765
  306loPI   C2B 4894  11.283  14.260   9.434  0.0327 -0.0062 -0.0535
  306loPI   C3B 4895  11.407  14.135   9.089 -0.1249 -0.1340 -0.0500
  306loPI   C4B 4896  11.526  14.224   8.589 -0.2548 -0.1451  0.0080
  307loPI    C1 4897  14.231   6.651  10.725 -0.0739  0.0223  0.0929
  307loPI    C2 4898  13.928   6.614  10.984  0.0927  0.1006  0.3018
  307loPI    C3 4899  14.306   6.622  11.117  0.2113 -0.3456  0.0172
  307loPI   PO4 4900  14.174   6.790  10.491 -0.2193  0.3902 -0.1426
  307loPI   GL1 4901  14.211   7.210  10.094 -0.0592  0.2158 -0.0191
  307loPI   GL2 4902  13.961   6.953  10.077 -0.1574 -0.0124  0.0960
  307loPI   C1A 4903  14.154   7.129   9.650 -0.0719  0.0813  0.2448
  307loPI   C2A 4904  13.790   7.359   9.483  0.0003  0.1291  0.0137
  307loPI   C3A 4905  13.573   7.359   9.067 -0.2300  0.1203  0.2064
  307loPI   C4A 4906  13.510   7.315   8.642 -0.0206 -0.3462 -0.0603
  307loPI   C5A 4907  13.440   7.503   8.232  0.1171  0.1489 -0.0735
  307loPI   C6A 4908  13.357   7.292   7.767  0.0762 -0.1455  0.0973
  307loPI   C1B 4909  13.694   6.826   9.741  0.0497 -0.3883  0.0808
  307loPI   C2B 4910  13.751   6.862   9.230  0.0263  0.0977 -0.0130
  307loPI   C3B 4911  13.658   6.788   8.773 -0.1087  0.2334  0.2730
  307loPI   C4B 4912  13.247   6.770   8.684 -0.0289  0.0911 -0.0602
  308loPI    C1 4913   1.570   5.962  11.227  0.0787 -0.1095  0.0265
  308loPI    C2 4914   1.254   5.732  11.314  0.0705 -0.0995  0.0229
  308loPI    C3 4915   1.419   5.961  11.598  0.1393 -0.1836  0.0513
  308loPI   PO4 4916   1.707   5.833  10.990 -0.1168  0.4906 -0.0631
  308loPI   GL1 4917   1.521   5.805  10.529  0.2834 -0.1984  0.1540
  308loPI   GL2 4918   1.465   5.493  10.360  0.1256 -0.3255  0.2154
  308loPI   C1A 4919   1.552   5.822  10.043 -0.1036  0.1272 -0.0818
  308loPI   C2A 4920   1.284   5.801   9.706 -0.1788 -0.1910 -0.3126
  308loPI   C3A 4921   1.202   6.124   9.474  0.2615 -0.2370 -0.0478
  308loPI   C4A 4922   1.157   6.069   9.062 -0.0828  0.3642 -0.1058
  308loPI   C5A 4923   1.359   6.069   8.676 -0.0638  0.0150  0.0350
  308loPI   C6A 4924   1.697   5.729   8.669 -0.2548 -0.0516  0.1392
  308loPI   C1B 4925   1.115   5.515  10.119 -0.1320 -0.0639  0.3164
  308loPI   C2B 4926   0.916   5.479   9.671 -0.3523 -0.2670  0.3119
  308loPI   C3B 4927   1.020   5.575   9.255 -0.1865 -0.1740  0.3382
  308loPI   C4B 4928   1.070   5.645   8.853 -0.0724 -0.0566 -0.1673
  309loPI    C1 4929  10.623  12.827  10.938  0.1895  0.2838 -0.1152
  309loPI    C2 4930  10.440  13.058  11.209 -0.1640  0.1667 -0.2487
  309loPI    C3 4931  10.223  12.830  10.962  0.1771 -0.3266 -0.1067
  309loPI   PO4 4932  10.776  13.002  10.760 -0.1058 -0.0428 -0.0668
  309loPI   GL1 4933  10.939  12.962  10.368 -0.3307 -0.2758  0.0927
  309loPI   GL2 4934  10.765  13.279  10.347 -0.1262 -0.1477 -0.1986
  309loPI   C1A 4935  10.460  12.901  10.100 -0.1473 -0.0709  0.1287
  309loPI   C2A 4936  10.268  12.890   9.671  0.2524  0.2800  0.2541
  309loPI   C3A 4937  10.278  12.796   9.227 -0.0568 -0.0500  0.2057
  309loPI   C4A 4938  10.187  12.725   8.780 -0.1081  0.0315 -0.0574
  309loPI   C5A 4939  10.251  12.513   8.369 -0.0233  0.0899 -0.3644
  309loPI   C6A 4940  10.532  12.598   8.105 -0.2433  0.2920  0.0274
  309loPI   C1B 4941  10.735  13.514   9.971  0.2811 -0.3016  0.2863
  309loPI   C2B 4942  10.744  13.541   9.594  0.2386 -0.1428 -0.0958
  309loPI   C3B 4943  10.852  13.463   9.233  0.1216  0.0567  0.2463
  309loPI   C4B 4944  10.659  13.581   8.827  0.0684 -0.1374  0.0873
  310loPI    C1 4945   9.926   4.403  10.842 -0.0635 -0.1325  0.1796
  310loPI    C2 4946   9.539   4.363  10.935 -0.0733 -0.2066  0.1076
  310loPI    C3 4947   9.717   4.719  10.970 -0.1768 -0.1473  0.0342
  310loPI   PO4 4948   9.983   4.333  10.615  0.0853 -0.0729  0.1078
  310loPI   GL1 4949   9.860   4.289  10.196 -0.1707 -0.3123  0.1446
  310loPI   GL2 4950   9.867   4.618  10.118  0.1456 -0.0820  0.4089
  310loPI   C1A 4951   9.766   4.166   9.853  0.0141 -0.2973  0.1715
  310loPI   C2A 4952   9.800   4.180   9.425  0.1154  0.0179  0.0795
  310loPI   C3A 4953   9.683   4.138   9.002  0.3435 -0.2102  0.0469
  310loPI   C4A 4954   9.409   4.260   8.670  0.0694 -0.0863  0.0640
  310loPI   C5A 4955   9.383   4.692   8.414  0.0742 -0.2855  0.1464
  310loPI   C6A 4956   9.162   4.846   8.183 -0.0594  0.4088  0.2190
  310loPI   C1B 4957   9.864   4.762   9.690 -0.0163 -0.1575  0.1306
  310loPI   C2B 4958   9.710   4.700   9.307  0.0326  0.5332 -0.3300
  310loPI   C3B 4959   9.767   4.695   8.835 -0.0694  0.2069 -0.0958
  310loPI   C4B 4960  10.171   4.824   8.610  0.0182 -0.1338  0.0753
  311loPI    C1 4961   9.627   8.797  10.904  0.0169 -0.1111 -0.4150
  311loPI    C2 4962  10.017   8.828  10.988  0.0047 -0.1117 -0.3580
  311loPI    C3 4963   9.813   8.501  11.098 -0.0911  0.0407 -0.0730
  311loPI   PO4 4964   9.619   8.804  10.622  0.0641  0.1946 -0.1651
  311loPI   GL1 4965   9.731   9.025  10.352 -0.0026  0.0099 -0.0591
  311loPI   GL2 4966   9.879   8.879  10.118  0.0749 -0.2247 -0.5037
  311loPI   C1A 4967   9.431   9.019   9.874  0.1062 -0.0344 -0.0999
  311loPI   C2A 4968   9.419   8.916   9.442  0.0061  0.0550  0.4211
  311loPI   C3A 4969   9.429   8.939   9.076 -0.2313 -0.0815 -0.0781
  311loPI   C4A 4970   9.665   9.246   8.794  0.1928 -0.0368 -0.1693
  311loPI   C5A 4971   9.639   9.464   8.499  0.0090  0.0943  0.0258
  311loPI   C6A 4972   9.863   9.337   8.080 -0.0053 -0.1273  0.0237
  311loPI   C1B 4973   9.898   8.988   9.691 -0.0091 -0.1678  0.0743
  311loPI   C2B 4974   9.877   9.157   9.309 -0.3175  0.1553  0.0816
  311loPI   C3B 4975  10.067   9.348   9.009 -0.0389  0.0280 -0.3009
  311loPI   C4B 4976  10.332   9.463   8.728  0.1499  0.2205  0.3173
  312loPI    C1 4977   6.827  16.834  10.815  0.0455  0.1738 -0.0592
  312loPI    C2 4978   6.762  16.744  11.199  0.0282  0.1328 -0.0719
  312loPI    C3 4979   7.123  16.869  11.082  0.0556  0.0681 -0.0563
  312loPI   PO4 4980   6.530  16.663  10.692 -0.0636  0.0571  0.1117
  312loPI   GL1 4981   6.347  16.568  10.336  0.1260 -0.0420 -0.3027
  312loPI   GL2 4982   6.183  16.334  10.360  0.0266  0.2239  0.0810
  312loPI   C1A 4983   6.411  16.561   9.969  0.0105 -0.2046 -0.0105
  312loPI   C2A 4984   6.497  16.559   9.448 -0.0206  0.1116 -0.0388
  312loPI   C3A 4985   6.778  16.586   9.079  0.1266  0.0913 -0.2293
  312loPI   C4A 4986   6.917  16.815   8.746  0.0536 -0.0568  0.2881
  312loPI   C5A 4987   7.245  16.738   8.541  0.2299  0.0017  0.1642
  312loPI   C6A 4988   7.245  16.347   8.321 -0.1926  0.3067  0.0561
  312loPI   C1B 4989   6.103  16.158  10.003 -0.2485 -0.1943 -0.4006
  312loPI   C2B 4990   6.225  16.133   9.561 -0.0870  0.0870 -0.1945
  312loPI   C3B 4991   6.244  16.316   9.102  0.1316  0.0624 -0.0342
  312loPI   C4B 4992   6.236  16.194   8.669 -0.4800 -0.1314 -0.2247
  313loPI    C1 4993  11.232  12.045  11.094 -0.0442 -0.0907  0.0377
  313loPI    C2 4994  10.996  12.142  11.402  0.1111  0.0182  0.1237
  313loPI    C3 4995  11.392  12.193  11.429  0.1435 -0.1425 -0.0276
  313loPI   PO4 4996  11.184  12.124  10.915 -0.1428  0.1584 -0.0240
  313loPI   GL1 4997  11.092  12.046  10.453 -0.0371 -0.0258  0.3150
  313loPI   GL2 4998  10.976  11.780  10.460 -0.1416  0.1942 -0.2860
  313loPI   C1A 4999  11.148  12.086  10.010 -0.0489 -0.0136  0.1401
  313loPI   C2A 5000  11.192  12.226   9.619  0.2377 -0.0447  0.0480
  313loPI   C3A 5001  11.166  12.407   9.167 -0.3234 -0.1776 -0.0452
  313loPI   C4A 5002  11.171  12.657   8.806 -0.0070  0.0742  0.2609
  313loPI   C5A 5003  11.094  12.440   8.361  0.1691  0.0649  0.0403
  313loPI   C6A 5004  11.185  12.102   8.118  0.1193 -0.1284  0.1939
  313loPI   C1B 5005  11.004  11.599  10.071 -0.0048 -0.0805 -0.0065
  313loPI   C2B 5006  10.964  11.546   9.646  0.0767  0.0478  0.2206
  313loPI   C3B 5007  10.755  11.250   9.408  0.0951 -0.0878  0.2042
  313loPI   C4B 5008  10.594  11.259   8.975  0.4246 -0.0385 -0.2550
  314loPI    C1 5009   3.527  13.555  10.795  0.1318 -0.0269 -0.1332
  314loPI    C2 5010   3.293  13.238  10.724 -0.0482  0.0587  0.0630
  314loPI    C3 5011   3.615  13.200  10.958  0.1118 -0.0490 -0.1704
  314loPI   PO4 5012   3.584  13.706  10.549  0.0040  0.0711  0.2122
  314loPI   GL1 5013   3.761  13.694  10.151  0.1402 -0.0291 -0.1012
  314loPI   GL2 5014   3.890  13.929  10.050  0.1518  0.0797 -0.0897
  314loPI   C1A 5015   3.856  13.497   9.786  0.2047 -0.3312  0.0236
  314loPI   C2A 5016   3.916  13.675   9.388  0.1552  0.1181 -0.1066
  314loPI   C3A 5017   3.886  13.636   8.945 -0.2340 -0.0666 -0.0931
  314loPI   C4A 5018   3.957  13.686   8.489 -0.2291  0.1059  0.0190
  314loPI   C5A 5019   3.995  14.067   8.219  0.0959 -0.2063 -0.1040
  314loPI   C6A 5020   4.170  14.253   7.744 -0.4234 -0.0665  0.0674
  314loPI   C1B 5021   4.079  14.004   9.745 -0.1527 -0.2886  0.2716
  314loPI   C2B 5022   4.261  14.040   9.427  0.0654 -0.1153 -0.1111
  314loPI   C3B 5023   4.313  13.923   8.992  0.2047  0.0067 -0.0398
  314loPI   C4B 5024   4.465  13.727   8.615 -0.1653 -0.2480  0.1870
  315loPI    C1 5025   8.241   4.623  11.247 -0.0431  0.0460 -0.0620
  315loPI    C2 5026   8.373   4.376  10.961 -0.0651  0.0676 -0.0909
  315loPI    C3 5027   8.391   4.265  11.345  0.4054  0.2282 -0.0591
  315loPI   PO4 5028   8.283   4.873  11.140 -0.0587  0.2574  0.0732
  315loPI   GL1 5029   8.336   4.889  10.692 -0.1502  0.0951  0.2096
  315loPI   GL2 5030   8.588   4.716  10.548 -0.0162 -0.0497 -0.1539
  315loPI   C1A 5031   7.968   4.958  10.402 -0.0160  0.2890  0.0942
  315loPI   C2A 5032   7.744   4.804  10.027 -0.0520  0.0535  0.0422
  315loPI   C3A 5033   7.348   4.643   9.883 -0.1292  0.0089 -0.0001
  315loPI   C4A 5034   7.135   4.452   9.463  0.0359 -0.1330  0.2773
  315loPI   C5A 5035   6.822   4.304   9.147 -0.1158 -0.1899  0.0510
  315loPI   C6A 5036   6.612   4.302   8.713 -0.2156 -0.1167 -0.1464
  315loPI   C1B 5037   8.771   4.401  10.174  0.2410 -0.1585 -0.1696
  315loPI   C2B 5038   8.671   4.492   9.731 -0.0574  0.1048 -0.1881
  315loPI   C3B 5039   8.512   4.539   9.354 -0.0059 -0.0475 -0.0524
  315loPI   C4B 5040   8.374   4.544   8.905 -0.1858  0.0308  0.0657
  316loPI    C1 5041   2.933  14.074  10.630  0.1054  0.0818  0.0077
  316loPI    C2 5042   3.027  13.729  10.809 -0.2765  0.0171  0.0925
  316loPI    C3 5043   3.269  14.046  10.846  0.0822 -0.2399  0.0062
  316loPI   PO4 5044   2.754  13.928  10.404 -0.0079  0.1034  0.0047
  316loPI   GL1 5045   2.706  13.747  10.155 -0.2060 -0.2453 -0.0855
  316loPI   GL2 5046   2.558  13.498  10.239 -0.0343  0.1041  0.2494
  316loPI   C1A 5047   2.852  13.873   9.743  0.1675  0.1626 -0.2155
  316loPI   C2A 5048   2.941  13.875   9.394 -0.0735  0.1381  0.3816
  316loPI   C3A 5049   2.884  13.809   9.103  0.1844 -0.2745 -0.2710
  316loPI   C4A 5050   2.944  13.565   8.696  0.0456  0.1532  0.1479
  316loPI   C5A 5051   2.864  13.477   8.246  0.1401 -0.0072  0.1614
  316loPI   C6A 5052   3.163  13.498   7.857 -0.0921  0.2606 -0.2553
  316loPI   C1B 5053   2.532  13.422   9.870  0.0666  0.1694  0.1116
  316loPI   C2B 5054   2.585  13.452   9.420  0.1872  0.1649  0.0524
  316loPI   C3B 5055   2.541  13.489   8.989 -0.1183  0.0162 -0.0436
  316loPI   C4B 5056   2.408  13.480   8.613  0.2205  0.2548 -0.0218
  317loPI    C1 5057  12.253  15.596  10.658 -0.0995  0.3041 -0.1229
  317loPI    C2 5058  12.374  15.343  10.943 -0.2207  0.1010 -0.2490
  317loPI    C3 5059  11.983  15.411  10.888 -0.1964  0.1664 -0.3434
  317loPI   PO4 5060  12.473  15.760  10.632 -0.0942  0.0930 -0.0295
  317loPI   GL1 5061  12.622  15.757  10.205 -0.3120  0.0083  0.0039
  317loPI   GL2 5062  12.478  16.022  10.116  0.2965  0.1576  0.1903
  317loPI   C1A 5063  12.267  15.696   9.871  0.1279 -0.2322 -0.2214
  317loPI   C2A 5064  12.064  15.638   9.467 -0.0255  0.3306 -0.0200
  317loPI   C3A 5065  12.024  15.655   9.024 -0.1888 -0.1104  0.0317
  317loPI   C4A 5066  11.842  15.614   8.641  0.0419 -0.2879 -0.2552
  317loPI   C5A 5067  11.555  15.617   8.344 -0.0515 -0.4351  0.0295
  317loPI   C6A 5068  11.382  15.885   7.923 -0.0425  0.1206 -0.2249
  317loPI   C1B 5069  12.919  15.948   9.951  0.1023 -0.1582  0.0151
  317loPI   C2B 5070  13.088  15.893   9.625  0.0030 -0.1048 -0.0476
  317loPI   C3B 5071  13.138  15.623   9.304 -0.0781 -0.0235  0.0364
  317loPI   C4B 5072  13.219  15.685   8.915  0.0474  0.0105 -0.1389
  318loPI    C1 5073  10.520   8.365  11.048  0.0262  0.0817  0.1411
  318loPI    C2 5074  10.307   8.276  11.374 -0.0480  0.0198  0.0760
  318loPI    C3 5075  10.656   8.468  11.410 -0.0440 -0.0084  0.1933
  318loPI   PO4 5076  10.372   8.448  10.910  0.1600 -0.4425  0.0018
  318loPI   GL1 5077  10.462   8.297  10.469  0.2042  0.2005 -0.0848
  318loPI   GL2 5078  10.343   8.136  10.261  0.2491 -0.0401  0.0984
  318loPI   C1A 5079  10.807   8.314  10.188  0.0264 -0.0788 -0.0516
  318loPI   C2A 5080  10.788   8.556   9.721  0.0352  0.1469  0.0957
  318loPI   C3A 5081  10.717   8.500   9.373 -0.1290 -0.3077 -0.0600
  318loPI   C4A 5082  10.511   8.558   8.956  0.0960 -0.3423  0.1809
  318loPI   C5A 5083  10.524   8.411   8.597  0.0642  0.0462  0.2840
  318loPI   C6A 5084  10.620   8.375   8.161  0.0027  0.1965  0.0383
  318loPI   C1B 5085  10.348   8.300   9.865  0.2635 -0.1029 -0.1860
  318loPI   C2B 5086  10.279   8.272   9.381  0.2266  0.0875  0.1926
  318loPI   C3B 5087  10.027   8.309   9.064 -0.0110 -0.2021  0.3588
  318loPI   C4B 5088  10.038   8.388   8.660 -0.1185 -0.2112  0.0658
  319loPI    C1 5089  13.678   1.174  10.785 -0.2427 -0.0068  0.0264
  319loPI    C2 5090  13.767   1.549  10.890 -0.0953 -0.0123 -0.0757
  319loPI    C3 5091  13.551   1.319  11.135  0.3492 -0.0669  0.2788
  319loPI   PO4 5092  13.603   1.153  10.529  0.3160  0.1179 -0.3410
  319loPI   GL1 5093  13.789   1.272  10.098  0.2243  0.0131  0.1390
  319loPI   GL2 5094  13.683   1.060  10.016 -0.1987 -0.1287 -0.1170
  319loPI   C1A 5095  13.990   1.387   9.772  0.0489 -0.0954 -0.0192
  319loPI   C2A 5096  14.104   1.597   9.379 -0.4727  0.0201  0.0114
  319loPI   C3A 5097  14.248   1.473   8.985  0.4061  0.1818  0.0867
  319loPI   C4A 5098  14.359   1.606   8.571 -0.0249  0.0267 -0.1667
  319loPI   C5A 5099  14.495   1.840   8.289  0.3372 -0.0800  0.4036
  319loPI   C6A 5100  14.777   2.031   8.093 -0.0477 -0.2699  0.0449
  319loPI   C1B 5101  13.584   1.018   9.615  0.3224 -0.0474 -0.1485
  319loPI   C2B 5102  13.413   1.098   9.236 -0.2697  0.2231 -0.0313
  319loPI   C3B 5103  13.307   1.065   8.788 -0.1058  0.0891  0.1390
  319loPI   C4B 5104  13.124   1.008   8.481 -0.3508 -0.0154 -0.1979
  320loPI    C1 5105  17.437   9.142  10.660 -0.0185 -0.2471  0.0319
  320loPI    C2 5106  17.336   9.178  11.046 -0.1154 -0.2174  0.0043
  320loPI    C3 5107  17.452   8.824  10.901 -0.0061 -0.2122  0.0775
  320loPI   PO4 5108  17.229   9.320  10.589 -0.0323 -0.2633  0.1557
  320loPI   GL1 5109  17.227   9.409  10.207 -0.1792  0.0631  0.3103
  320loPI   GL2 5110  17.549   9.186  10.177  0.0593  0.0215 -0.1183
  320loPI   C1A 5111  16.955   9.289   9.854 -0.1399  0.2965  0.2198
  320loPI   C2A 5112  16.798   9.108   9.449 -0.0185  0.2566 -0.1224
  320loPI   C3A 5113  16.835   9.134   9.019 -0.0095  0.1129  0.2676
  320loPI   C4A 5114  16.649   9.040   8.560  0.3884  0.1123 -0.0463
  320loPI   C5A 5115  16.788   8.876   8.180 -0.0628 -0.0106 -0.3516
  320loPI   C6A 5116  16.996   8.688   7.921 -0.0322 -0.0851  0.0131
  320loPI   C1B 5117  17.446   9.282   9.659 -0.1645 -0.2480  0.2871
  320loPI   C2B 5118  17.469   9.285   9.270 -0.0299 -0.0124 -0.2281
  320loPI   C3B 5119  17.643   9.295   8.863  0.2302 -0.0994 -0.3633
  320loPI   C4B 5120  17.511   9.356   8.438  0.3961  0.3053 -0.1269
  321loPI    C1 5121   7.712  13.405  11.088 -0.0441  0.1167  0.0953
  321loPI    C2 5122   7.979  13.247  11.341 -0.0935  0.0692  0.1180
  321loPI    C3 5123   7.725  13.528  11.469 -0.1848 -0.0262  0.1470
  321loPI   PO4 5124   7.796  13.294  10.867  0.0788 -0.0107 -0.1680
  321loPI   GL1 5125   7.714  13.272  10.508 -0.0186 -0.2437  0.3585
  321loPI   GL2 5126   7.472  13.024  10.646 -0.2175  0.1047  0.2263
  321loPI   C1A 5127   7.571  13.332  10.021 -0.0788  0.2527 -0.2984
  321loPI   C2A 5128   7.544  13.028   9.697  0.2191  0.0444 -0.0695
  321loPI   C3A 5129   7.472  12.922   9.273  0.1896 -0.2332 -0.1535
  321loPI   C4A 5130   7.779  12.983   8.896 -0.3882 -0.2788  0.0958
  321loPI   C5A 5131   8.034  13.261   8.908 -0.0075  0.1695  0.2693
  321loPI   C6A 5132   8.435  13.436   9.021 -0.0525 -0.0297 -0.1844
  321loPI   C1B 5133   7.681  12.886  10.235  0.2823 -0.1455  0.0701
  321loPI   C2B 5134   7.875  12.781   9.889  0.0798 -0.0803  0.1451
  321loPI   C3B 5135   7.972  12.903   9.432 -0.0064 -0.1794  0.0194
  321loPI   C4B 5136   8.176  12.689   9.056  0.0535  0.2343  0.3303
  322loPI    C1 5137   7.950  12.279  10.797 -0.1256  0.0092  0.0343
  322loPI    C2 5138   7.800  12.272  11.167 -0.2289  0.1887 -0.0033
  322loPI    C3 5139   7.597  12.451  10.872 -0.1763 -0.0071 -0.1603
  322loPI   PO4 5140   7.951  12.029  10.697 -0.0031  0.1386  0.0853
  322loPI   GL1 5141   8.218  11.842  10.427 -0.2756  0.2610  0.1385
  322loPI   GL2 5142   8.418  11.681  10.301  0.2907 -0.3162 -0.2089
  322loPI   C1A 5143   8.610  12.121  10.234 -0.1735  0.3061  0.0563
  322loPI   C2A 5144   8.736  12.133   9.850  0.1233  0.1978  0.2322
  322loPI   C3A 5145   8.796  12.157   9.407  0.0757 -0.1681  0.0096
  322loPI   C4A 5146   8.703  12.178   9.004  0.1269 -0.1401 -0.1786
  322loPI   C5A 5147   8.907  12.344   8.728 -0.1325 -0.0567  0.0588
  322loPI   C6A 5148   9.164  12.589   8.444  0.2806 -0.3403 -0.1603
  322loPI   C1B 5149   8.394  11.838   9.916 -0.1143 -0.1577  0.1132
  322loPI   C2B 5150   8.347  11.881   9.449  0.2648 -0.0037 -0.4437
  322loPI   C3B 5151   8.279  11.766   9.140  0.1406 -0.0724  0.1664
  322loPI   C4B 5152   8.205  11.784   8.706 -0.3956 -0.2526  0.0955
  323loPI    C1 5153  16.498   9.488  10.889  0.1858 -0.0519  0.2899
  323loPI    C2 5154  16.863   9.324  10.895  0.1973 -0.0653 -0.2502
  323loPI    C3 5155  16.541   9.092  10.845  0.1308 -0.0268 -0.0127
  323loPI   PO4 5156  16.485   9.598  10.732 -0.0319 -0.1673  0.2583
  323loPI   GL1 5157  16.676   9.587  10.369  0.3634 -0.2006 -0.0379
  323loPI   GL2 5158  16.777   9.292  10.340 -0.0508  0.1561  0.0317
  323loPI   C1A 5159  16.545   9.536   9.944 -0.2626  0.2202 -0.3850
  323loPI   C2A 5160  16.606   9.547   9.472  0.1886  0.1801 -0.1734
  323loPI   C3A 5161  16.591   9.561   9.004  0.1136  0.1477  0.0401
  323loPI   C4A 5162  16.665   9.728   8.620 -0.1030  0.1613  0.0642
  323loPI   C5A 5163  16.600  10.018   8.331 -0.0078 -0.5338  0.0925
  323loPI   C6A 5164  16.462   9.932   7.964 -0.0061  0.1583  0.1035
  323loPI   C1B 5165  16.624   9.009  10.139 -0.0029 -0.3467  0.0914
  323loPI   C2B 5166  16.577   8.822   9.789  0.2474  0.0655  0.1167
  323loPI   C3B 5167  16.570   8.740   9.394 -0.0587  0.0691  0.2881
  323loPI   C4B 5168  16.495   8.660   8.958 -0.3932  0.1561 -0.0523
  324loPI    C1 5169   4.724  13.294  11.146  0.0539 -0.0837  0.1114
  324loPI    C2 5170   4.468  13.224  11.446 -0.0033  0.2687  0.1487
  324loPI    C3 5171   4.752  13.504  11.485  0.2317  0.0542  0.0131
  324loPI   PO4 5172   4.565  13.222  10.901  0.1548 -0.0561  0.0462
  324loPI   GL1 5173   4.526  13.425  10.449  0.3027 -0.0237 -0.0295
  324loPI   GL2 5174   4.601  13.659  10.333 -0.2142 -0.1000  0.2456
  324loPI   C1A 5175   4.290  13.349  10.067  0.0546  0.0133  0.2378
  324loPI   C2A 5176   4.293  13.497   9.573 -0.2424  0.1677 -0.1713
  324loPI   C3A 5177   4.341  13.421   9.107 -0.1747  0.0676 -0.3332
  324loPI   C4A 5178   4.202  13.269   8.716  0.0424  0.1710  0.0642
  324loPI   C5A 5179   3.878  13.192   8.297 -0.0495  0.1423 -0.0530
  324loPI   C6A 5180   3.494  13.266   8.074 -0.1819 -0.2232  0.0439
  324loPI   C1B 5181   4.583  13.775   9.888 -0.0670 -0.2350  0.1311
  324loPI   C2B 5182   4.672  13.707   9.413 -0.1762 -0.2506 -0.0085
  324loPI   C3B 5183   4.825  13.790   9.084 -0.0369 -0.2041  0.0964
  324loPI   C4B 5184   4.933  13.725   8.722  0.2362  0.0313 -0.0037
  325loPI    C1 5185  16.614  15.142  10.874  0.1302  0.0142 -0.0430
  325loPI    C2 5186  16.825  14.821  10.986 -0.0756 -0.0390  0.2011
  325loPI    C3 5187  16.634  15.041  11.261 -0.4771 -0.0899 -0.0288
  325loPI   PO4 5188  16.733  15.114  10.559 -0.1837  0.2987 -0.1309
  325loPI   GL1 5189  16.738  15.318  10.118  0.0116 -0.0941  0.0527
  325loPI   GL2 5190  16.695  15.535   9.923 -0.3563  0.1290 -0.1906
  325loPI   C1A 5191  16.833  15.017   9.784 -0.2451  0.1041 -0.1600
  325loPI   C2A 5192  16.685  14.687   9.622  0.2386  0.1381 -0.3651
  325loPI   C3A 5193  16.528  14.630   9.210 -0.1244  0.0953  0.0482
  325loPI   C4A 5194  16.518  14.699   8.777 -0.0663  0.1791 -0.1464
  325loPI   C5A 5195  16.415  14.564   8.336 -0.1130  0.0350  0.1787
  325loPI   C6A 5196  16.620  14.519   7.973 -0.2647  0.1491 -0.1337
  325loPI   C1B 5197  16.789  15.418   9.527 -0.3267  0.4463 -0.0297
  325loPI   C2B 5198  16.865  15.511   9.132  0.0437  0.0942 -0.0507
  325loPI   C3B 5199  16.858  15.447   8.671 -0.0427  0.0429  0.0413
  325loPI   C4B 5200  16.801  15.567   8.212  0.2635 -0.1407  0.0718
  326loPI    C1 5201   9.321   5.049  10.849 -0.0376 -0.1298 -0.0277
  326loPI    C2 5202   9.524   5.094  11.191 -0.2252  0.1530  0.0499
  326loPI    C3 5203   9.239   4.815  11.162 -0.0196 -0.0582  0.0308
  326loPI   PO4 5204   9.583   5.179  10.720  0.1124  0.0241 -0.0059
  326loPI   GL1 5205   9.621   5.355  10.324 -0.1044  0.4545  0.1465
  326loPI   GL2 5206   9.600   4.997  10.193  0.3701 -0.1893 -0.0563
  326loPI   C1A 5207   9.539   5.635   9.997 -0.0637 -0.3069  0.2307
  326loPI   C2A 5208   9.388   5.737   9.660 -0.1002  0.0523  0.1902
  326loPI   C3A 5209   9.346   5.776   9.200 -0.0430  0.1005  0.1558
  326loPI   C4A 5210   9.418   5.472   8.863 -0.1275 -0.0461 -0.1274
  326loPI   C5A 5211   9.452   5.481   8.436  0.2128 -0.0500  0.1556
  326loPI   C6A 5212   9.175   5.376   8.135 -0.0141 -0.0799 -0.1281
  326loPI   C1B 5213   9.393   5.076   9.794  0.0970  0.0043  0.0517
  326loPI   C2B 5214   9.415   5.222   9.383 -0.1946  0.5465 -0.0768
  326loPI   C3B 5215   9.344   4.984   8.986 -0.0494  0.2345 -0.0601
  326loPI   C4B 5216   9.073   4.996   8.650 -0.0176  0.0839  0.0860
  327loPI    C1 5217   2.288  15.270  10.401 -0.2712  0.0960  0.0099
  327loPI    C2 5218   2.337  15.368  10.786  0.0263 -0.0276  0.0060
  327loPI    C3 5219   2.100  15.061  10.686  0.0734 -0.0959  0.1023
  327loPI   PO4 5220   2.486  15.252  10.280 -0.1144  0.0002 -0.0999
  327loPI   GL1 5221   2.464  15.091   9.884 -0.1117  0.0390  0.0280
  327loPI   GL2 5222   2.579  14.981   9.555  0.1613 -0.1950 -0.2567
  327loPI   C1A 5223   2.154  15.222   9.493 -0.3036  0.4105 -0.1466
  327loPI   C2A 5224   1.972  15.483   9.180 -0.2618  0.0950  0.0398
  327loPI   C3A 5225   2.154  15.730   8.864  0.2877  0.1002 -0.0761
  327loPI   C4A 5226   2.312  15.788   8.531 -0.1838  0.3111  0.0653
  327loPI   C5A 5227   2.282  15.605   8.150 -0.2482  0.0054  0.0756
  327loPI   C6A 5228   1.967  15.877   7.824  0.3848 -0.2527  0.3008
  327loPI   C1B 5229   2.539  14.916   9.129  0.4322  0.0001  0.1764
  327loPI   C2B 5230   2.368  14.715   8.818  0.4744  0.3386  0.2255
  327loPI   C3B 5231   2.006  14.749   8.462  0.0807 -0.0366  0.0180
  327loPI   C4B 5232   1.768  15.019   8.192  0.4568  0.1693 -0.0174
  328loPI    C1 5233   6.172   9.214  11.380  0.2348  0.2722  0.0505
  328loPI    C2 5234   5.832   9.419  11.432  0.0169 -0.0558 -0.0511
  328loPI    C3 5235   5.827   9.019  11.431  0.4393 -0.0678  0.1647
  328loPI   PO4 5236   6.278   9.338  11.188  0.2976  0.0539  0.4830
  328loPI   GL1 5237   6.344   9.211  10.801 -0.3560  0.0305  0.0566
  328loPI   GL2 5238   6.631   9.223  10.600 -0.2260  0.0378 -0.0295
  328loPI   C1A 5239   6.079   9.134  10.404  0.1396  0.1302 -0.1014
  328loPI   C2A 5240   6.017   9.260   9.992  0.0110  0.3101  0.1322
  328loPI   C3A 5241   6.179   9.282   9.596 -0.0928 -0.1243  0.1683
  328loPI   C4A 5242   6.367   9.260   9.166 -0.0132 -0.2643 -0.0184
  328loPI   C5A 5243   6.582   9.086   8.771 -0.0359 -0.0758 -0.0821
  328loPI   C6A 5244   7.078   8.862   8.804  0.2412 -0.1229  0.1642
  328loPI   C1B 5245   6.588   9.273  10.284  0.0367 -0.2631 -0.1313
  328loPI   C2B 5246   6.493   9.152   9.947  0.1657  0.0443  0.0370
  328loPI   C3B 5247   6.604   8.995   9.534 -0.0402 -0.1596 -0.0871
  328loPI   C4B 5248   6.627   8.849   9.199  0.0079 -0.0143  0.0603
  329loPI    C1 5249  13.368  15.618  10.700 -0.0777 -0.0417  0.3619
  329loPI    C2 5250  13.113  15.918  10.630  0.0337 -0.0265  0.0043
  329loPI    C3 5251  12.982  15.579  10.798 -0.2594 -0.0805 -0.3211
  329loPI   PO4 5252  13.525  15.629  10.490  0.0825 -0.1016  0.3044
  329loPI   GL1 5253  13.693  15.885  10.098  0.0397 -0.0603  0.0638
  329loPI   GL2 5254  13.407  15.859  10.025  0.1473 -0.1293  0.0823
  329loPI   C1A 5255  13.740  15.510   9.923  0.0648 -0.1804 -0.1130
  329loPI   C2A 5256  13.955  15.210   9.709 -0.0036  0.0947  0.2786
  329loPI   C3A 5257  14.073  15.180   9.270  0.0109  0.1967 -0.2949
  329loPI   C4A 5258  14.157  15.153   8.852 -0.0115  0.1060  0.1230
  329loPI   C5A 5259  14.078  15.120   8.496  0.1253 -0.1686  0.1167
  329loPI   C6A 5260  13.942  15.181   8.145 -0.1276 -0.3351  0.0238
  329loPI   C1B 5261  13.572  15.898   9.601  0.1407  0.3151  0.0035
  329loPI   C2B 5262  13.863  15.629   9.421 -0.1981  0.1789  0.1002
  329loPI   C3B 5263  13.774  15.575   9.115 -0.1123  0.1608  0.3455
  329loPI   C4B 5264  13.721  15.420   8.760  0.2239  0.0068 -0.1824
  330loPI    C1 5265   2.749   1.062  11.055  0.1128 -0.2545 -0.1577
  330loPI    C2 5266   2.354   1.057  11.120  0.0978  0.1728 -0.1890
  330loPI    C3 5267   2.602   0.876  11.377 -0.1186 -0.1378 -0.1938
  330loPI   PO4 5268   2.768   1.044  10.862 -0.1995 -0.1377 -0.0297
  330loPI   GL1 5269   2.750   1.159  10.506  0.0728  0.0315  0.0678
  330loPI   GL2 5270   2.617   1.511  10.404 -0.1284  0.0216 -0.0768
  330loPI   C1A 5271   2.750   0.999  10.076  0.1143 -0.1376  0.0842
  330loPI   C2A 5272   2.891   0.876   9.750  0.1023 -0.1812  0.2529
  330loPI   C3A 5273   2.938   0.771   9.353  0.1756  0.0014  0.0507
  330loPI   C4A 5274   2.870   0.904   9.011 -0.0448 -0.1253  0.0786
  330loPI   C5A 5275   2.719   1.164   8.621  0.1947 -0.4929 -0.0655
  330loPI   C6A 5276   2.591   1.400   8.248  0.0572 -0.0508  0.1246
  330loPI   C1B 5277   2.461   1.439   9.929 -0.2221 -0.1326  0.2889
  330loPI   C2B 5278   2.380   1.590   9.448  0.4117 -0.0752 -0.1785
  330loPI   C3B 5279   2.268   1.710   9.118 -0.0891 -0.0571  0.1419
  330loPI   C4B 5280   2.177   2.053   8.791 -0.0748 -0.0848  0.3200
  331loPI    C1 5281  13.950   0.660  10.571  0.0505 -0.0461 -0.1531
  331loPI    C2 5282  13.600   0.674  10.765  0.1140  0.1266 -0.0477
  331loPI    C3 5283  13.813   0.335  10.760 -0.0317  0.0341 -0.0734
  331loPI   PO4 5284  13.965   0.735  10.361  0.3439  0.3229  0.1768
  331loPI   GL1 5285  13.951   0.534   9.938 -0.1934 -0.0252  0.0180
  331loPI   GL2 5286  14.034   0.113   9.826 -0.0955 -0.1994  0.0868
  331loPI   C1A 5287  13.976   0.674   9.542 -0.0116  0.0567 -0.2840
  331loPI   C2A 5288  14.058   0.528   9.137  0.0088 -0.1234 -0.1729
  331loPI   C3A 5289  14.247   0.397   8.713 -0.2572 -0.2978 -0.0281
  331loPI   C4A 5290  14.514   0.253   8.357 -0.0681  0.3047  0.4087
  331loPI   C5A 5291  14.823   0.443   8.083 -0.1412 -0.0389 -0.1310
  331loPI   C6A 5292  15.156   0.670   7.874  0.3122  0.0694  0.1489
  331loPI   C1B 5293  14.111   0.103   9.443  0.2583 -0.3006 -0.1450
  331loPI   C2B 5294  14.130  -0.000   9.007 -0.1059  0.1005  0.1168
  331loPI   C3B 5295  14.174  -0.123   8.621  0.0806  0.0321 -0.0283
  331loPI   C4B 5296  14.360  -0.209   8.267 -0.0061  0.0945  0.2464
  332loPI    C1 5297   6.638  15.314  10.838 -0.0466 -0.0674 -0.1472
  332loPI    C2 5298   6.590  15.283  11.234 -0.0817  0.0840 -0.1391
  332loPI    C3 5299   6.911  15.469  11.086 -0.0796  0.0467 -0.1816
  332loPI   PO4 5300   6.667  15.142  10.733  0.2711 -0.1821 -0.1938
  332loPI   GL1 5301   6.786  15.101  10.271 -0.0079 -0.0360 -0.0032
  332loPI   GL2 5302   6.998  14.734  10.243  0.0123  0.1074  0.0174
  332loPI   C1A 5303   6.733  15.193   9.909  0.0245  0.2710  0.1782
  332loPI   C2A 5304   6.773  15.044   9.477  0.0351  0.1445 -0.3623
  332loPI   C3A 5305   6.888  15.118   9.090 -0.1850  0.0477  0.1040
  332loPI   C4A 5306   7.070  15.322   8.742 -0.2626  0.1536 -0.0052
  332loPI   C5A 5307   6.910  15.569   8.403 -0.1284  0.1529  0.0752
  332loPI   C6A 5308   6.645  15.942   8.406  0.0218  0.4014 -0.0743
  332loPI   C1B 5309   6.678  14.703   9.970  0.0987  0.2886  0.0985
  332loPI   C2B 5310   6.547  14.601   9.609  0.1540 -0.0214 -0.0809
  332loPI   C3B 5311   6.655  14.620   9.142 -0.4247  0.1752 -0.0838
  332loPI   C4B 5312   6.886  14.393   8.794 -0.1481 -0.3095 -0.0532
  333loPI    C1 5313  15.861   6.238  10.615 -0.0782 -0.1697 -0.0042
  333loPI    C2 5314  15.813   6.356  10.994  0.1332 -0.3422  0.0779
  333loPI    C3 5315  15.502   6.208  10.790  0.0286 -0.2877  0.1964
  333loPI   PO4 5316  16.186   6.201  10.667 -0.1490 -0.1492  0.0218
  333loPI   GL1 5317  16.377   6.311  10.260 -0.0644 -0.1007 -0.0218
  333loPI   GL2 5318  16.660   6.360  10.223 -0.0618 -0.3132 -0.2906
  333loPI   C1A 5319  15.961   6.184  10.090  0.2608 -0.1649 -0.0169
  333loPI   C2A 5320  15.828   6.145   9.686 -0.0745  0.0512  0.2143
  333loPI   C3A 5321  15.842   6.234   9.282  0.1894 -0.2661 -0.1482
  333loPI   C4A 5322  15.967   6.434   8.891  0.2785 -0.3171  0.2436
  333loPI   C5A 5323  15.990   6.560   8.420  0.1229  0.2785 -0.0839
  333loPI   C6A 5324  15.814   6.406   8.073  0.0641  0.2328  0.1494
  333loPI   C1B 5325  16.617   6.125   9.829  0.1858 -0.3928 -0.0141
  333loPI   C2B 5326  16.795   6.242   9.490 -0.0400  0.1393 -0.0595
  333loPI   C3B 5327  16.804   6.261   8.961 -0.0821  0.0071  0.0882
  333loPI   C4B 5328  16.841   6.090   8.537 -0.7222  0.0448  0.1524
  334loPI    C1 5329  12.108  14.952  10.823  0.0717  0.0512 -0.0047
  334loPI    C2 5330  12.444  14.847  11.014  0.1104  0.0546 -0.0702
  334loPI    C3 5331  12.098  14.666  11.103  0.1523 -0.0355 -0.0895
  334loPI   PO4 5332  12.198  15.022  10.570 -0.0529  0.1516 -0.3846
  334loPI   GL1 5333  12.375  14.926  10.273 -0.3071  0.0268 -0.3040
  334loPI   GL2 5334  12.377  15.294  10.101  0.2614  0.0753 -0.2614
  334loPI   C1A 5335  12.411  14.733   9.843 -0.3826  0.2138  0.0749
  334loPI   C2A 5336  12.503  14.757   9.415 -0.2033  0.2103 -0.0662
  334loPI   C3A 5337  12.581  14.853   8.952  0.0790  0.2447 -0.1061
  334loPI   C4A 5338  12.731  15.015   8.561  0.3039  0.1610  0.2045
  334loPI   C5A 5339  12.693  15.223   8.191  0.1762 -0.2587  0.0263
  334loPI   C6A 5340  12.493  15.569   7.944  0.3935  0.2197 -0.2545
  334loPI   C1B 5341  12.216  15.165   9.727 -0.0860 -0.0342  0.2770
  334loPI   C2B 5342  12.341  15.237   9.367 -0.2091 -0.0433 -0.0145
  334loPI   C3B 5343  12.466  15.359   8.948 -0.0882  0.1074  0.3235
  334loPI   C4B 5344  12.787  15.547   8.739 -0.1052  0.2617  0.2045
  335loPI    C1 5345  10.457   6.492  10.760  0.0099  0.1103  0.0769
  335loPI    C2 5346  10.304   6.755  11.020  0.0724  0.0665  0.1580
  335loPI    C3 5347  10.649   6.569  11.102  0.2234  0.2410 -0.0700
  335loPI   PO4 5348  10.247   6.579  10.556  0.1192  0.1814 -0.0820
  335loPI   GL1 5349  10.277   6.727  10.118  0.1189  0.0199 -0.1477
  335loPI   GL2 5350  10.389   7.130  10.090  0.0314 -0.0298 -0.3830
  335loPI   C1A 5351  10.270   6.626   9.813  0.2827  0.0728  0.1139
  335loPI   C2A 5352  10.094   6.565   9.437 -0.3337 -0.1173 -0.2003
  335loPI   C3A 5353  10.191   6.284   9.134  0.1198  0.0515 -0.0287
  335loPI   C4A 5354  10.230   5.921   9.100 -0.1206 -0.0090 -0.0335
  335loPI   C5A 5355  10.423   5.786   8.839  0.2675 -0.0605  0.1886
  335loPI   C6A 5356  10.210   6.141   8.609 -0.0842  0.1656 -0.2205
  335loPI   C1B 5357  10.649   7.057   9.694 -0.2940  0.0323  0.1530
  335loPI   C2B 5358  10.776   6.989   9.282  0.1181 -0.1288 -0.0585
  335loPI   C3B 5359  10.797   6.881   8.792  0.4367  0.1502  0.0039
  335loPI   C4B 5360  10.808   7.048   8.461  0.1490  0.2059  0.2633
  336loPI    C1 5361   3.302  16.081  10.753 -0.0879  0.0266 -0.1655
  336loPI    C2 5362   3.077  16.311  10.990  0.2645  0.1927  0.0162
  336loPI    C3 5363   3.242  15.977  11.135  0.0284 -0.0018 -0.1547
  336loPI   PO4 5364   3.418  16.256  10.620  0.3043  0.1482 -0.0032
  336loPI   GL1 5365   3.603  16.159  10.273 -0.1552 -0.2645 -0.2316
  336loPI   GL2 5366   3.825  16.112  10.324  0.1097  0.0704  0.0522
  336loPI   C1A 5367   3.373  16.119   9.919 -0.2652  0.0183  0.0048
  336loPI   C2A 5368   3.264  16.205   9.515 -0.1247 -0.2358  0.1329
  336loPI   C3A 5369   3.432  16.220   9.131 -0.0376 -0.0661 -0.0297
  336loPI   C4A 5370   3.606  16.293   8.770  0.1666 -0.0827 -0.2961
  336loPI   C5A 5371   3.746  16.135   8.391  0.0136 -0.1219  0.0017
  336loPI   C6A 5372   3.830  15.726   8.262  0.0870  0.1074  0.0850
  336loPI   C1B 5373   3.996  16.220   9.900 -0.0986 -0.2030 -0.0035
  336loPI   C2B 5374   4.173  16.483   9.738  0.1280  0.2443  0.1905
  336loPI   C3B 5375   4.143  16.890   9.689  0.0209 -0.3535 -0.1502
  336loPI   C4B 5376   3.939  17.311   9.540  0.1883  0.2434 -0.1248
  337loPI    C1 5377   3.496   1.576  10.828 -0.0028 -0.0656 -0.0507
  337loPI    C2 5378   3.316   1.365  11.116  0.0336  0.0177  0.0339
  337loPI    C3 5379   3.287   1.764  11.114 -0.0805  0.0097 -0.1562
  337loPI   PO4 5380   3.521   1.453  10.634  0.0500 -0.1386 -0.0422
  337loPI   GL1 5381   3.811   1.468  10.409  0.1159  0.2030  0.0652
  337loPI   GL2 5382   4.066   1.223  10.233 -0.1400 -0.0169  0.1849
  337loPI   C1A 5383   3.756   1.574  10.016  0.2286  0.0602 -0.0675
  337loPI   C2A 5384   3.741   1.510   9.621  0.0400 -0.0311 -0.0615
  337loPI   C3A 5385   3.856   1.504   9.176  0.0101  0.1272 -0.1124
  337loPI   C4A 5386   3.805   1.525   8.760 -0.1793  0.2774  0.1960
  337loPI   C5A 5387   3.533   1.706   8.423  0.0575 -0.0863  0.1275
  337loPI   C6A 5388   3.316   1.942   8.036 -0.3141  0.0968  0.0665
  337loPI   C1B 5389   4.194   1.255   9.853 -0.1268  0.0946  0.2619
  337loPI   C2B 5390   4.228   1.312   9.449 -0.0602 -0.0931  0.0505
  337loPI   C3B 5391   4.392   1.346   8.968  0.0201  0.0389  0.0568
  337loPI   C4B 5392   4.219   1.048   8.618  0.2509 -0.0031  0.7577
  338loPI    C1 5393  10.004   8.111  10.690 -0.4809 -0.0542 -0.0721
  338loPI    C2 5394   9.912   7.735  10.790  0.0248 -0.1446  0.0831
  338loPI    C3 5395  10.125   7.962  11.041 -0.1637  0.2058 -0.0663
  338loPI   PO4 5396   9.738   8.238  10.664  0.0502 -0.0347  0.1395
  338loPI   GL1 5397   9.602   8.389  10.218  0.3171 -0.0190 -0.0625
  338loPI   GL2 5398   9.915   8.348  10.156 -0.1113  0.0212  0.1434
  338loPI   C1A 5399   9.517   8.264   9.803 -0.1023  0.2927  0.0124
  338loPI   C2A 5400   9.244   8.021   9.553  0.1692 -0.0799  0.0887
  338loPI   C3A 5401   9.382   7.617   9.346  0.0092  0.2629 -0.2428
  338loPI   C4A 5402   9.713   7.319   9.332 -0.0773  0.1840  0.1478
  338loPI   C5A 5403   9.821   7.057   8.968 -0.0742  0.1655  0.1788
  338loPI   C6A 5404   9.897   6.998   8.454 -0.2673 -0.1759  0.1672
  338loPI   C1B 5405   9.943   8.477   9.672 -0.1575 -0.1744  0.0182
  338loPI   C2B 5406   9.619   8.436   9.300  0.0059  0.0229 -0.4929
  338loPI   C3B 5407   9.491   8.120   9.039  0.1533  0.0654  0.1562
  338loPI   C4B 5408   9.731   8.022   8.708  0.1749 -0.0304  0.2285
  339POPI    C1 5409   9.014   0.763  10.750 -0.1241  0.0677 -0.1237
  339POPI    C2 5410   8.747   0.940  10.990 -0.1342 -0.2842  0.1326
  339POPI    C3 5411   9.136   1.023  11.028 -0.1847  0.0881 -0.1160
  339POPI   PO4 5412   9.031   0.758  10.602 -0.0982 -0.2168 -0.0788
  339POPI   GL1 5413   8.877   0.871  10.245 -0.3309 -0.0896  0.1254
  339POPI   GL2 5414   8.657   0.711  10.073  0.1303 -0.0015 -0.2814
  339POPI   C1A 5415   9.092   0.787   9.839  0.1336 -0.0302  0.2239
  339POPI   D2A 5416   9.012   0.923   9.375 -0.3265 -0.2754 -0.0606
  339POPI   C3A 5417   9.076   1.039   8.976  0.0710 -0.0354  0.0454
  339POPI   C4A 5418   9.124   1.066   8.536  0.1042 -0.0499  0.1540
  339POPI   C1B 5419   8.650   0.740   9.721  0.3882 -0.3497 -0.0564
  339POPI   C2B 5420   8.601   0.662   9.395 -0.1409  0.0893  0.3025
  339POPI   C3B 5421   8.843   0.559   9.098  0.0266  0.1773 -0.1082
  339POPI   C4B 5422   8.945   0.539   8.738  0.1342  0.1158 -0.0386
  340POPI    C1 5423  11.954   9.760  10.703 -0.1959  0.1405 -0.0062
  340POPI    C2 5424  12.334   9.638  10.678 -0.2388  0.0050 -0.0084
  340POPI    C3 5425  12.210   9.843  10.999 -0.2631 -0.3088  0.1868
  340POPI   PO4 5426  11.789   9.505  10.667 -0.0052  0.0178 -0.3100
  340POPI   GL1 5427  11.592   9.403  10.235  0.3307 -0.1911  0.1817
  340POPI   GL2 5428  11.724   9.673  10.191 -0.0455 -0.2245 -0.0020
  340POPI   C1A 5429  11.711   9.237   9.849 -0.2435 -0.1135 -0.1282
  340POPI   D2A 5430  11.669   9.234   9.458 -0.3019 -0.1291 -0.1188
  340POPI   C3A 5431  11.830   9.568   9.249 -0.1525 -0.1108 -0.1093
  340POPI   C4A 5432  11.743   9.757   8.758 -0.1049 -0.1215  0.0641
  340POPI   C1B 5433  12.210   9.766  10.161  0.0483  0.1082 -0.1677
  340POPI   C2B 5434  12.372   9.840   9.857  0.1089  0.1086 -0.0315
  340POPI   C3B 5435  12.291   9.798   9.363  0.0847 -0.0090  0.2593
  340POPI   C4B 5436  12.199   9.776   8.969 -0.0391 -0.1812  0.0302
  341POPI    C1 5437  14.475   9.147  10.929 -0.1937 -0.4870  0.2760
  341POPI    C2 5438  14.780   9.270  11.157 -0.1888  0.0238  0.0075
  341POPI    C3 5439  14.638   8.898  11.197  0.2508 -0.1151  0.3639
  341POPI   PO4 5440  14.573   9.174  10.719  0.0263 -0.0887  0.2152
  341POPI   GL1 5441  14.413   9.033  10.337  0.1860  0.0420  0.1829
  341POPI   GL2 5442  14.252   8.823  10.250 -0.1223  0.0525  0.2711
  341POPI   C1A 5443  14.787   8.979  10.053  0.0640  0.2686  0.2610
  341POPI   D2A 5444  14.884   9.265   9.786  0.2325 -0.2559  0.3759
  341POPI   C3A 5445  15.063   9.157   9.323 -0.0965  0.1514 -0.2143
  341POPI   C4A 5446  15.211   9.055   8.868 -0.0965  0.0404  0.0112
  341POPI   C1B 5447  14.312   8.922   9.787 -0.0816  0.2137 -0.3902
  341POPI   C2B 5448  14.636   8.886   9.503 -0.0493  0.0486  0.2723
  341POPI   C3B 5449  14.730   8.836   9.039 -0.0966 -0.0424  0.2048
  341POPI   C4B 5450  14.807   9.022   8.540  0.1200  0.0969 -0.1803
  342POPI    C1 5451  16.131  10.373  10.689 -0.2217 -0.2940  0.1241
  342POPI    C2 5452  15.786  10.553  10.782 -0.0491  0.0918  0.0369
  342POPI    C3 5453  15.944  10.283  11.031 -0.4802 -0.1936  0.0124
  342POPI   PO4 5454  16.097  10.354  10.455 -0.1579  0.2707 -0.0156
  342POPI   GL1 5455  16.327  10.405  10.049  0.1664  0.1316  0.1984
  342POPI   GL2 5456  15.989  10.634  10.093 -0.0923  0.0413  0.1060
  342POPI   C1A 5457  16.525  10.511   9.710 -0.1300  0.3847  0.2611
  342POPI   D2A 5458  16.541  10.473   9.140  0.3174  0.1791 -0.0497
  342POPI   C3A 5459  16.511  10.631   8.822  0.1720  0.1302 -0.0142
  342POPI   C4A 5460  16.355  10.810   8.391 -0.0084 -0.1699  0.1793
  342POPI   C1B 5461  16.069  10.460   9.660 -0.2334 -0.1131 -0.0232
  342POPI   C2B 5462  15.962  10.499   9.248 -0.1185 -0.2313  0.4038
  342POPI   C3B 5463  15.918  10.564   8.825 -0.0946 -0.1789 -0.3000
  342POPI   C4B 5464  15.849  10.692   8.415  0.1071  0.3155  0.0398
  343POPI    C1 5465  16.189  15.786  10.267 -0.1010 -0.0393 -0.0613
  343POPI    C2 5466  15.920  15.672  10.539 -0.2157 -0.0509 -0.1785
  343POPI    C3 5467  15.907  16.042  10.388 -0.0529  0.0083 -0.0500
  343POPI   PO4 5468  16.218  15.624  10.017 -0.1211 -0.2057  0.1398
  343POPI   GL1 5469  16.223  15.705   9.567 -0.1881 -0.0512 -0.0939
  343POPI   GL2 5470  15.913  15.695   9.587  0.0794  0.1345 -0.1495
  343POPI   C1A 5471  16.393  15.712   9.263 -0.1312 -0.0726 -0.0807
  343POPI   D2A 5472  16.422  15.816   8.872  0.0443 -0.4623  0.2010
  343POPI   C3A 5473  16.380  15.600   8.551 -0.1107  0.3317  0.0658
  343POPI   C4A 5474  16.222  15.485   8.213 -0.0920  0.1477 -0.0550
  343POPI   C1B 5475  15.711  15.638   9.229  0.0964 -0.1690  0.0530
  343POPI   C2B 5476  15.633  15.805   8.831 -0.1085 -0.1243  0.1179
  343POPI   C3B 5477  15.457  15.768   8.419  0.2728 -0.1296 -0.2068
  343POPI   C4B 5478  15.302  15.622   7.945 -0.1045 -0.0771  0.4842
  344POPI    C1 5479   1.964  16.954  10.660  0.1572  0.3357 -0.1671
  344POPI    C2 5480   2.212  16.835  10.950 -0.2948 -0.3329 -0.0329
  344POPI    C3 5481   1.878  17.036  11.042  0.0640  0.3647 -0.1939
  344POPI   PO4 5482   2.035  17.113  10.500 -0.1199  0.0427 -0.0340
  344POPI   GL1 5483   2.251  17.111  10.111 -0.4040  0.0560 -0.0820
  344POPI   GL2 5484   1.996  17.193   9.992 -0.0794 -0.2295  0.0793
  344POPI   C1A 5485   2.401  17.345   9.775  0.3733 -0.2245 -0.1160
  344POPI   D2A 5486   2.582  17.493   9.330  0.6684 -0.0847  0.0175
  344POPI   C3A 5487   2.604  17.259   8.956 -0.0242 -0.3414  0.1717
  344POPI   C4A 5488   2.381  17.165   8.608  0.0072 -0.1053 -0.2448
  344POPI   C1B 5489   1.815  17.264   9.626  0.1191  0.0263  0.1997
  344POPI   C2B 5490   1.628  17.437   9.263  0.0888  0.0589  0.0515
  344POPI   C3B 5491   1.525  17.528   8.891  0.3275  0.0597 -0.0802
  344POPI   C4B 5492   1.517  17.653   8.468  0.0449 -0.0325  0.0207
  345POPI    C1 5493   6.954  17.387  10.925 -0.0761 -0.0962  0.0869
  345POPI    C2 5494   7.125  17.324  11.281 -0.1220  0.0870  0.1429
  345POPI    C3 5495   6.727  17.299  11.242 -0.1482  0.4070  0.1837
  345POPI   PO4 5496   6.967  17.279  10.695  0.2950  0.0358  0.1957
  345POPI   GL1 5497   6.697  17.279  10.350  0.1001 -0.1067  0.1527
  345POPI   GL2 5498   6.349  17.142  10.481 -0.2051  0.0406 -0.0272
  345POPI   C1A 5499   6.871  17.222   9.904  0.3000 -0.0097 -0.1254
  345POPI   D2A 5500   6.968  17.324   9.515 -0.3892 -0.2470  0.2633
  345POPI   C3A 5501   6.795  17.220   9.125  0.1222  0.1184  0.0507
  345POPI   C4A 5502   6.554  17.184   8.777  0.2420 -0.0687 -0.0588
  345POPI   C1B 5503   6.396  17.058  10.040 -0.0456  0.1152 -0.0696
  345POPI   C2B 5504   6.457  17.018   9.598  0.2840  0.0931  0.2069
  345POPI   C3B 5505   6.359  16.911   9.122 -0.0182  0.0123  0.1114
  345POPI   C4B 5506   6.402  16.675   8.706  0.1940  0.0694  0.0840
  346POPI    C1 5507  10.965  10.040  10.892  0.1612  0.0633 -0.0816
  346POPI    C2 5508  11.237   9.837  11.103  0.1169  0.1137  0.0248
  346POPI    C3 5509  10.853   9.828  11.213  0.0878  0.1092 -0.0767
  346POPI   PO4 5510  10.985   9.973  10.607  0.0439  0.0974 -0.1359
  346POPI   GL1 5511  10.987   9.945  10.175  0.0666 -0.0254  0.2873
  346POPI   GL2 5512  11.229   9.688  10.091  0.0315  0.2302 -0.4146
  346POPI   C1A 5513  11.046  10.013   9.730  0.1804  0.0471 -0.0462
  346POPI   D2A 5514  11.121  10.288   9.261 -0.0448 -0.2013  0.0025
  346POPI   C3A 5515  11.475  10.142   8.921 -0.0674  0.2749  0.0473
  346POPI   C4A 5516  11.915  10.219   8.815 -0.1643  0.1012  0.0365
  346POPI   C1B 5517  11.443   9.697   9.700 -0.2679  0.3112 -0.1012
  346POPI   C2B 5518  11.303   9.732   9.309  0.1649  0.0300  0.0241
  346POPI   C3B 5519  11.207   9.730   8.936  0.3333  0.0858  0.4180
  346POPI   C4B 5520  10.822   9.602   8.667  0.2574  0.0029  0.0542
  347POPI    C1 5521  13.953   0.019  10.394  0.0422 -0.2041  0.1721
  347POPI    C2 5522  13.662   0.282  10.316  0.2397 -0.0145  0.0662
  347POPI    C3 5523  13.570  -0.086  10.440 -0.0500 -0.0087 -0.1228
  347POPI   PO4 5524  14.166   0.160  10.379 -0.1512  0.0778 -0.1244
  347POPI   GL1 5525  14.372   0.504  10.148 -0.2318 -0.2187  0.1240
  347POPI   GL2 5526  14.609   0.686  10.034  0.1386 -0.2426 -0.2071
  347POPI   C1A 5527  14.410   0.421   9.624 -0.2453 -0.0548 -0.1999
  347POPI   D2A 5528  14.553   0.326   9.265  0.0034 -0.3080  0.3234
  347POPI   C3A 5529  14.642   0.168   8.865 -0.1240 -0.1788 -0.1929
  347POPI   C4A 5530  14.720  -0.125   8.707  0.0910  0.0894 -0.2019
  347POPI   C1B 5531  14.920   0.642   9.696  0.1137 -0.2427 -0.0018
  347POPI   C2B 5532  15.122   0.628   9.264 -0.3083  0.0256  0.1064
  347POPI   C3B 5533  15.254   0.415   8.852 -0.1721  0.0567  0.0923
  347POPI   C4B 5534  15.109   0.442   8.552 -0.1823 -0.1234 -0.2493
  348POPI    C1 5535  17.193  11.693  10.513 -0.0028  0.0538 -0.0258
  348POPI    C2 5536  17.321  11.489  10.832 -0.0074 -0.0249 -0.0740
  348POPI    C3 5537  17.578  11.712  10.622  0.0196 -0.0630 -0.0818
  348POPI   PO4 5538  16.984  11.523  10.406  0.3134 -0.0960 -0.2264
  348POPI   GL1 5539  16.859  11.554  10.032  0.0732  0.1463 -0.0555
  348POPI   GL2 5540  16.660  11.325   9.851 -0.1421 -0.0206 -0.0757
  348POPI   C1A 5541  16.993  11.774   9.622 -0.0533 -0.0646  0.0575
  348POPI   D2A 5542  17.228  11.891   9.256 -0.1152  0.1924 -0.1262
  348POPI   C3A 5543  17.119  11.943   8.927  0.0358 -0.0805  0.1834
  348POPI   C4A 5544  17.161  11.922   8.453  0.2173 -0.1820  0.2417
  348POPI   C1B 5545  16.593  11.307   9.424 -0.1448 -0.1185 -0.1895
  348POPI   C2B 5546  16.514  11.282   9.010  0.1622 -0.0603 -0.1681
  348POPI   C3B 5547  16.310  11.358   8.616 -0.1535  0.0719 -0.0414
  348POPI   C4B 5548  16.062  11.250   8.274 -0.1195 -0.3383 -0.5336
  349POPI    C1 5549  13.387   7.217  10.578  0.0164 -0.0237  0.2540
  349POPI    C2 5550  13.011   7.243  10.443  0.0692  0.1607  0.1396
  349POPI    C3 5551  13.124   7.454  10.764  0.0884  0.1458  0.1427
  349POPI   PO4 5552  13.519   7.256  10.348  0.1748 -0.2706  0.2048
  349POPI   GL1 5553  13.422   7.235   9.963  0.2561  0.1856 -0.2369
  349POPI   GL2 5554  13.485   7.632   9.732  0.0500  0.0152  0.3730
  349POPI   C1A 5555  13.327   7.075   9.503 -0.2764 -0.0346  0.3283
  349POPI   D2A 5556  13.191   7.050   9.024  0.2471 -0.0130 -0.2267
  349POPI   C3A 5557  12.731   6.816   8.882 -0.0466 -0.0944 -0.0453
  349POPI   C4A 5558  12.502   6.764   8.532 -0.1235 -0.2705 -0.0667
  349POPI   C1B 5559  13.651   7.816   9.323 -0.1372  0.1526  0.2991
  349POPI   C2B 5560  13.675   7.783   8.854  0.1157  0.1240 -0.0714
  349POPI   C3B 5561  13.732   8.115   8.533 -0.0213 -0.1509  0.0206
  349POPI   C4B 5562  14.004   8.557   8.459 -0.0115  0.0473 -0.0845
  350POPI    C1 5563   4.080  14.262  10.976  0.0725  0.1314 -0.1174
  350POPI    C2 5564   3.837  13.945  10.959  0.2154  0.0199 -0.1106
  350POPI    C3 5565   4.037  14.025  11.295  0.1131  0.1690 -0.0839
  350POPI   PO4 5566   4.205  14.325  10.665  0.0565 -0.1420  0.1540
  350POPI   GL1 5567   4.221  14.271  10.288 -0.1014 -0.1955 -0.0192
  350POPI   GL2 5568   3.994  14.417  10.116  0.0648 -0.2563  0.2698
  350POPI   C1A 5569   4.536  14.325   9.976 -0.2575  0.1345  0.0673
  350POPI   D2A 5570   4.726  14.141   9.602 -0.1082  0.0011  0.1105
  350POPI   C3A 5571   4.694  14.238   9.184  0.2490  0.0402 -0.1491
  350POPI   C4A 5572   4.698  14.185   8.673 -0.2401 -0.3076 -0.1308
  350POPI   C1B 5573   3.684  14.259   9.751 -0.0268  0.1065  0.1449
  350POPI   C2B 5574   3.767  14.204   9.389  0.0151 -0.0631 -0.0683
  350POPI   C3B 5575   3.874  14.112   9.058  0.0423 -0.1898  0.0602
  350POPI   C4B 5576   3.666  14.051   8.687  0.1568  0.2323  0.0703
  351POPI    C1 5577   9.752   0.445  10.890 -0.2717 -0.0965 -0.3414
  351POPI    C2 5578   9.422   0.619  11.034 -0.0750  0.0483 -0.0562
  351POPI    C3 5579   9.503   0.237  11.123 -0.0657  0.0720  0.0382
  351POPI   PO4 5580   9.823   0.573  10.630  0.0119  0.2804 -0.0037
  351POPI   GL1 5581   9.658   0.374  10.233  0.2350  0.0326 -0.0388
  351POPI   GL2 5582   9.395   0.644  10.244  0.1331  0.0675 -0.2189
  351POPI   C1A 5583   9.825  -0.035  10.081 -0.2075  0.1118  0.0712
  351POPI   D2A 5584   9.894  -0.181   9.716  0.1553 -0.0037  0.0183
  351POPI   C3A 5585   9.852  -0.668   9.590 -0.0145  0.2623  0.0366
  351POPI   C4A 5586  10.042  -1.009   9.584 -0.1480  0.3042  0.0595
  351POPI   C1B 5587   9.382   0.426   9.787  0.2274 -0.3290  0.2719
  351POPI   C2B 5588   9.277   0.472   9.362  0.1222  0.1414  0.0411
  351POPI   C3B 5589   9.352   0.628   8.956 -0.1464  0.1580  0.0590
  351POPI   C4B 5590   9.397   0.664   8.417  0.0313 -0.0385  0.1346
  352POPI    C1 5591  11.729  13.735  10.725 -0.4472 -0.2531  0.0017
  352POPI    C2 5592  11.463  13.940  10.942 -0.2281  0.0843 -0.0396
  352POPI    C3 5593  11.708  13.679  11.120 -0.0879  0.3175  0.1145
  352POPI   PO4 5594  11.564  13.709  10.529 -0.0709 -0.0257 -0.0759
  352POPI   GL1 5595  11.704  13.833  10.126  0.2856 -0.2130  0.4231
  352POPI   GL2 5596  11.435  14.025  10.085  0.0171 -0.0708  0.0327
  352POPI   C1A 5597  11.666  13.783   9.734  0.0410 -0.0291 -0.1468
  352POPI   D2A 5598  11.734  13.760   9.272 -0.2271  0.2831 -0.6085
  352POPI   C3A 5599  12.181  13.833   9.110  0.0538  0.3118 -0.0333
  352POPI   C4A 5600  12.390  13.929   8.665 -0.3078  0.0842  0.0973
  352POPI   C1B 5601  11.578  14.453  10.092  0.3721 -0.1145  0.1351
  352POPI   C2B 5602  11.878  14.709   9.866 -0.1097  0.0390  0.2574
  352POPI   C3B 5603  12.008  14.729   9.405 -0.2426 -0.0687  0.0380
  352POPI   C4B 5604  12.029  14.711   9.021  0.1483 -0.1517 -0.0762
  353POPI    C1 5605   3.664  10.121  10.760 -0.1290  0.1318 -0.0750
  353POPI    C2 5606   3.549   9.785  10.944  0.2441  0.2343  0.3650
  353POPI    C3 5607   3.301  10.098  10.924 -0.0047  0.0302  0.1909
  353POPI   PO4 5608   3.912   9.999  10.576 -0.2362  0.0746 -0.1508
  353POPI   GL1 5609   4.109   9.633  10.299  0.2077 -0.3111 -0.0503
  353POPI   GL2 5610   4.309   9.312  10.421 -0.0161 -0.0453  0.2120
  353POPI   C1A 5611   3.773   9.470   9.985  0.2026  0.2704  0.1553
  353POPI   D2A 5612   3.980   9.269   9.620  0.1240 -0.0774 -0.3263
  353POPI   C3A 5613   3.979   9.368   9.122  0.2920 -0.2451  0.1583
  353POPI   C4A 5614   4.016   9.383   8.704 -0.1818 -0.0514  0.1937
  353POPI   C1B 5615   4.335   9.411   9.996 -0.1260  0.1588  0.0856
  353POPI   C2B 5616   4.399   9.423   9.411 -0.0843  0.2097 -0.1151
  353POPI   C3B 5617   4.499   9.481   9.011 -0.0119  0.1016  0.0220
  353POPI   C4B 5618   4.621   9.598   8.639 -0.2419  0.2217 -0.0944
  354POPI    C1 5619   4.699  15.903  10.795  0.0224  0.1374  0.0713
  354POPI    C2 5620   4.969  16.113  11.003  0.1700  0.0108  0.0099
  354POPI    C3 5621   4.939  15.718  11.056  0.1115 -0.0007 -0.1068
  354POPI   PO4 5622   4.670  15.935  10.617 -0.2847 -0.0119  0.2201
  354POPI   GL1 5623   4.628  15.854  10.194 -0.1479  0.0205  0.1209
  354POPI   GL2 5624   4.779  16.167  10.173  0.0030 -0.1371 -0.0238
  354POPI   C1A 5625   4.840  15.545   9.942 -0.0979 -0.3016 -0.0331
  354POPI   D2A 5626   4.817  15.350   9.593  0.0396  0.1064 -0.0724
  354POPI   C3A 5627   4.894  15.502   9.189 -0.1698  0.2129 -0.1484
  354POPI   C4A 5628   4.810  15.489   8.675  0.0964 -0.0433  0.1207
  354POPI   C1B 5629   4.584  16.248   9.793 -0.0988  0.0677  0.1551
  354POPI   C2B 5630   4.444  16.173   9.457  0.1351 -0.1091 -0.1056
  354POPI   C3B 5631   4.415  16.083   9.000  0.1983 -0.0890  0.1145
  354POPI   C4B 5632   3.984  15.983   8.770  0.2304  0.1332 -0.3589
  355POPI    C1 5633   9.067   2.253  10.837 -0.0084 -0.0934  0.0035
  355POPI    C2 5634   9.167   2.640  10.845  0.0357 -0.1065  0.1143
  355POPI    C3 5635   8.910   2.494  11.115  0.0017 -0.1500  0.0587
  355POPI   PO4 5636   9.038   2.217  10.573  0.0035  0.0146 -0.0975
  355POPI   GL1 5637   8.967   2.211  10.142 -0.0493  0.1135  0.1018
  355POPI   GL2 5638   8.829   2.516  10.002 -0.0562  0.1903  0.1882
  355POPI   C1A 5639   9.359   2.423   9.908 -0.0888 -0.1723 -0.0175
  355POPI   D2A 5640   9.353   2.328   9.428  0.0262  0.0531  0.1313
  355POPI   C3A 5641   9.310   2.505   8.991 -0.1800 -0.0368 -0.4047
  355POPI   C4A 5642   9.267   2.454   8.606  0.1758 -0.0456 -0.2150
  355POPI   C1B 5643   8.869   2.258   9.604  0.1839  0.1184  0.0053
  355POPI   C2B 5644   8.929   2.162   9.187 -0.1704 -0.0510  0.1997
  355POPI   C3B 5645   8.947   2.142   8.833  0.0049 -0.1567 -0.3002
  355POPI   C4B 5646   8.902   1.947   8.466 -0.3470 -0.0999  0.1407
  356POPI    C1 5647  17.459  12.810  10.429 -0.0617 -0.0127 -0.0054
  356POPI    C2 5648  17.741  12.638  10.655  0.0521 -0.0401 -0.1661
  356POPI    C3 5649  17.366  12.499  10.663  0.0608 -0.0566 -0.0142
  356POPI   PO4 5650  17.689  12.886  10.150  0.1979  0.1433 -0.4232
  356POPI   GL1 5651  17.932  12.840   9.885  0.0921 -0.3376  0.1879
  356POPI   GL2 5652  18.089  12.997   9.805  0.1084 -0.0906 -0.0037
  356POPI   C1A 5653  18.000  12.462   9.633  0.2085 -0.4511 -0.0368
  356POPI   D2A 5654  18.227  12.085   9.512  0.2300 -0.0655  0.1182
  356POPI   C3A 5655  18.398  12.033   9.155  0.1735  0.0842 -0.2749
  356POPI   C4A 5656  18.518  11.983   8.628  0.1787 -0.0603  0.1862
  356POPI   C1B 5657  18.023  12.884   9.321 -0.0516 -0.1949 -0.3826
  356POPI   C2B 5658  17.883  12.744   9.094 -0.2457 -0.0462  0.2429
  356POPI   C3B 5659  17.997  12.715   8.681 -0.0237  0.0321  0.0172
  356POPI   C4B 5660  17.927  12.845   8.313  0.0076  0.0422 -0.1823
  357POPI    C1 5661   8.384   9.532  10.671 -0.1860 -0.1524  0.0768
  357POPI    C2 5662   8.334   9.142  10.744 -0.1834 -0.1437  0.1249
  357POPI    C3 5663   8.235   9.412  11.022 -0.2520 -0.1065  0.0647
  357POPI   PO4 5664   8.596   9.660  10.544 -0.0724 -0.1683 -0.0721
  357POPI   GL1 5665   8.930   9.795  10.350 -0.0837  0.1178  0.0006
  357POPI   GL2 5666   9.151  10.046  10.400 -0.0436 -0.2441 -0.0833
  357POPI   C1A 5667   8.945   9.789   9.923 -0.0331  0.1817  0.0857
  357POPI   D2A 5668   8.929   9.565   9.592  0.1188  0.1619  0.1819
  357POPI   C3A 5669   8.892   9.789   9.305  0.0307 -0.1620  0.0650
  357POPI   C4A 5670   8.787  10.001   8.919  0.0101  0.2443 -0.1151
  357POPI   C1B 5671   9.340  10.073   9.960 -0.0693 -0.1624  0.0443
  357POPI   C2B 5672   9.369   9.960   9.585 -0.0615  0.3793 -0.3202
  357POPI   C3B 5673   9.298   9.965   9.055  0.0994  0.4154  0.3778
  357POPI   C4B 5674   9.136   9.763   8.630 -0.0485 -0.2190 -0.5090
  358POPI    C1 5675   7.949   9.295  10.543  0.1544  0.3463  0.0813
  358POPI    C2 5676   7.575   9.319  10.684  0.0859  0.2526 -0.0814
  358POPI    C3 5677   7.859   9.138  10.899 -0.0305  0.0607 -0.0877
  358POPI   PO4 5678   7.979   9.465  10.402 -0.0524  0.0623  0.0417
  358POPI   GL1 5679   8.383   9.463  10.166 -0.2126 -0.0283  0.2690
  358POPI   GL2 5680   8.478   9.816  10.088 -0.2312 -0.3373 -0.1310
  358POPI   C1A 5681   8.252   9.197   9.891 -0.0467 -0.3497 -0.1652
  358POPI   D2A 5682   8.251   8.942   9.547 -0.1395 -0.0456  0.3086
  358POPI   C3A 5683   8.079   8.594   9.478 -0.1351  0.1462  0.1767
  358POPI   C4A 5684   7.702   8.442   9.374 -0.3535  0.2413  0.0100
  358POPI   C1B 5685   8.443   9.713   9.712  0.0285 -0.1710  0.0226
  358POPI   C2B 5686   8.419   9.438   9.433 -0.2589  0.1017  0.0010
  358POPI   C3B 5687   8.305   9.196   9.099 -0.1844  0.4823  0.0829
  358POPI   C4B 5688   8.404   8.792   8.944 -0.1303  0.0240  0.0927
  359POPI    C1 5689  16.154   2.657  11.307  0.1316 -0.0233  0.1439
  359POPI    C2 5690  15.798   2.534  11.442  0.0630  0.1028  0.0797
  359POPI    C3 5691  16.131   2.343  11.554 -0.0416 -0.1426 -0.0208
  359POPI   PO4 5692  16.062   2.723  11.066 -0.0438 -0.0800  0.1530
  359POPI   GL1 5693  16.069   2.648  10.628  0.0116 -0.0487  0.0228
  359POPI   GL2 5694  16.438   2.520  10.462 -0.2135  0.2538  0.2417
  359POPI   C1A 5695  15.945   2.478  10.314 -0.1359  0.0207  0.2388
  359POPI   D2A 5696  15.764   2.117   9.998 -0.0088 -0.0772  0.1173
  359POPI   C3A 5697  15.828   2.176   9.526 -0.0029  0.1479 -0.0392
  359POPI   C4A 5698  15.914   2.212   9.092  0.0347  0.4269 -0.1012
  359POPI   C1B 5699  16.486   2.620  10.045  0.2221 -0.6032  0.3065
  359POPI   C2B 5700  16.598   2.614   9.697  0.1584 -0.2077  0.3795
  359POPI   C3B 5701  16.582   2.521   9.277  0.1970 -0.2409  0.1848
  359POPI   C4B 5702  16.811   2.564   8.877  0.3137  0.0574  0.0757
  360POPI    C1 5703  16.723   5.576  11.066 -0.1140 -0.0117  0.0925
  360POPI    C2 5704  17.012   5.819  11.195 -0.0069 -0.1587  0.1318
  360POPI    C3 5705  16.629   5.918  11.249  0.0364 -0.0632  0.2685
  360POPI   PO4 5706  16.750   5.564  10.802 -0.0978  0.4024 -0.1394
  360POPI   GL1 5707  16.642   5.511  10.347  0.2118 -0.0176 -0.1089
  360POPI   GL2 5708  16.417   5.302  10.509  0.5046  0.0113 -0.2237
  360POPI   C1A 5709  16.770   5.716  10.077 -0.1542 -0.0236  0.1378
  360POPI   D2A 5710  16.831   5.598   9.595 -0.0061 -0.0926 -0.0653
  360POPI   C3A 5711  16.638   5.839   9.223  0.1403 -0.3929 -0.0095
  360POPI   C4A 5712  16.863   5.665   8.807 -0.2413  0.0233 -0.1359
  360POPI   C1B 5713  16.278   5.090  10.155 -0.0639 -0.1244  0.4475
  360POPI   C2B 5714  16.311   4.765   9.826 -0.1463  0.1248  0.1098
  360POPI   C3B 5715  16.334   4.776   9.368 -0.0648 -0.3175  0.0761
  360POPI   C4B 5716  16.295   4.568   9.031  0.0055 -0.1076  0.2131
  361POPI    C1 5717   4.005   2.745  10.668 -0.0507 -0.0900 -0.0132
  361POPI    C2 5718   4.117   2.703  11.050  0.0509  0.0281 -0.0294
  361POPI    C3 5719   3.741   2.623  10.942  0.0224 -0.0076  0.0951
  361POPI   PO4 5720   4.038   2.913  10.537  0.1600 -0.0530 -0.1526
  361POPI   GL1 5721   3.785   3.013  10.153 -0.0321 -0.1021 -0.1996
  361POPI   GL2 5722   3.460   2.800  10.051 -0.0955 -0.1964  0.0105
  361POPI   C1A 5723   3.836   2.960   9.722 -0.0477  0.1201  0.1153
  361POPI   D2A 5724   3.799   2.895   9.262 -0.1130 -0.1941  0.0167
  361POPI   C3A 5725   3.496   2.984   8.921 -0.0937  0.2296  0.3619
  361POPI   C4A 5726   3.305   3.054   8.532  0.1635  0.3695 -0.5257
  361POPI   C1B 5727   3.328   2.684   9.648 -0.2904 -0.0727 -0.1310
  361POPI   C2B 5728   3.180   2.841   9.263  0.1409 -0.2900 -0.0408
  361POPI   C3B 5729   3.067   2.651   8.861 -0.0156  0.4556  0.1058
  361POPI   C4B 5730   3.071   2.651   8.415  0.1609 -0.0076  0.0585
  362POPI    C1 5731  12.857   4.818  11.087  0.0096 -0.3488  0.1077
  362POPI    C2 5732  13.115   4.805  11.392  0.2450  0.1284 -0.0611
  362POPI    C3 5733  12.800   5.051  11.406  0.2053  0.0841 -0.1647
  362POPI   PO4 5734  12.950   4.780  10.894 -0.0259  0.1464 -0.2282
  362POPI   GL1 5735  12.817   4.525  10.539 -0.1949  0.1544 -0.4036
  362POPI   GL2 5736  13.030   4.522  10.170  0.1835  0.2049  0.0698
  362POPI   C1A 5737  12.557   4.708  10.151 -0.3205  0.0161  0.0465
  362POPI   D2A 5738  12.217   4.784   9.868  0.0190  0.0697 -0.2144
  362POPI   C3A 5739  12.106   5.013   9.455 -0.1904  0.2805 -0.0072
  362POPI   C4A 5740  12.015   5.469   9.311 -0.2042  0.1110 -0.0506
  362POPI   C1B 5741  12.954   4.636   9.846  0.0940  0.1399 -0.2940
  362POPI   C2B 5742  12.659   4.861   9.688  0.0864 -0.0905 -0.1861
  362POPI   C3B 5743  12.592   5.251   9.593  0.1227 -0.0686  0.1176
  362POPI   C4B 5744  12.374   5.526   9.687  0.0472 -0.1573 -0.0602
  363POPI    C1 5745  10.697   7.520  10.770 -0.0568 -0.0796 -0.1091
  363POPI    C2 5746  10.458   7.816  10.647  0.1194 -0.0064 -0.2799
  363POPI    C3 5747  10.611   7.823  11.016 -0.0516  0.0029 -0.2083
  363POPI   PO4 5748  10.894   7.320  10.672  0.1434 -0.2777  0.1061
  363POPI   GL1 5749  10.988   7.512  10.344  0.1988 -0.0554  0.0747
  363POPI   GL2 5750  10.915   7.839  10.197  0.2186 -0.1567 -0.2403
  363POPI   C1A 5751  10.786   7.463   9.940 -0.0847  0.0882 -0.0471
  363POPI   D2A 5752  10.975   7.518   9.604  0.0167  0.0251 -0.1026
  363POPI   C3A 5753  10.782   7.467   9.292 -0.1018 -0.0113 -0.2198
  363POPI   C4A 5754  10.723   7.490   8.815 -0.0230  0.1548 -0.1257
  363POPI   C1B 5755  10.771   7.993   9.819  0.1628  0.1966  0.0100
  363POPI   C2B 5756  10.734   7.979   9.402 -0.1354 -0.0088 -0.1262
  363POPI   C3B 5757  10.622   8.089   8.956 -0.0680 -0.1344  0.1700
  363POPI   C4B 5758  10.233   7.950   8.753  0.0858 -0.1343 -0.0953
  364POPI    C1 5759  17.490   3.124  10.811 -0.0595 -0.1658  0.3943
  364POPI    C2 5760  17.414   2.815  10.569  0.0780  0.1810 -0.1083
  364POPI    C3 5761  17.714   2.793  10.833 -0.1143 -0.2263  0.0858
  364POPI   PO4 5762  17.630   3.356  10.722  0.0818  0.0708 -0.0529
  364POPI   GL1 5763  18.007   3.148  10.536  0.0950  0.1677 -0.1499
  364POPI   GL2 5764  18.103   2.785  10.458 -0.2621 -0.2168  0.0224
  364POPI   C1A 5765  17.800   3.097  10.164 -0.0948  0.2524 -0.0250
  364POPI   D2A 5766  17.596   3.265   9.825 -0.1319 -0.1207 -0.1207
  364POPI   C3A 5767  17.582   3.170   9.314 -0.2361 -0.0311 -0.1700
  364POPI   C4A 5768  17.656   3.096   8.961  0.0252  0.0815 -0.0934
  364POPI   C1B 5769  17.926   2.493  10.037  0.1736 -0.1178 -0.0792
  364POPI   C2B 5770  17.976   2.480   9.612  0.0790 -0.0684  0.2035
  364POPI   C3B 5771  18.199   2.634   9.239  0.0046  0.2655  0.0013
  364POPI   C4B 5772  18.528   3.041   9.032  0.0532 -0.0783 -0.2001
  365POPI    C1 5773   9.860  16.062  10.740 -0.0192 -0.1060 -0.1312
  365POPI    C2 5774  10.100  15.827  10.957  0.0340 -0.0878 -0.1701
  365POPI    C3 5775   9.732  15.703  10.861 -0.0162 -0.0665 -0.0087
  365POPI   PO4 5776  10.046  16.275  10.612  0.0967 -0.1345  0.6037
  365POPI   GL1 5777  10.159  16.262  10.152 -0.2021  0.0681 -0.0541
  365POPI   GL2 5778  10.386  15.990  10.000 -0.2044 -0.0874  0.1656
  365POPI   C1A 5779  10.262  16.451   9.837  0.1536  0.1080  0.0447
  365POPI   D2A 5780  10.153  16.401   9.351 -0.0132 -0.0091  0.0867
  365POPI   C3A 5781  10.029  16.663   9.056 -0.2010  0.2351  0.0571
  365POPI   C4A 5782   9.860  16.932   8.866 -0.3115 -0.1183  0.0096
  365POPI   C1B 5783  10.392  16.019   9.583 -0.4195 -0.0189  0.1263
  365POPI   C2B 5784  10.294  15.941   9.139  0.0709  0.1767  0.1698
  365POPI   C3B 5785  10.246  15.885   8.724 -0.0242  0.0530 -0.0570
  365POPI   C4B 5786  10.181  15.682   8.406  0.0457  0.2141  0.0876
  366POPI    C1 5787  11.052  17.817  10.806  0.1723 -0.0464  0.1964
  366POPI    C2 5788  10.893  18.177  10.878 -0.0871 -0.1049 -0.0666
  366POPI    C3 5789  10.895  17.899  11.165 -0.1380  0.0138  0.0499
  366POPI   PO4 5790  10.980  17.783  10.594  0.0125  0.0786 -0.1919
  366POPI   GL1 5791  10.866  17.823  10.168 -0.0701 -0.0853 -0.0111
  366POPI   GL2 5792  10.908  18.181   9.966 -0.0105  0.0919  0.2891
  366POPI   C1A 5793  10.686  17.597   9.839  0.0256 -0.1233 -0.2158
  366POPI   D2A 5794  10.335  17.366   9.671 -0.3503  0.0551 -0.1965
  366POPI   C3A 5795  10.142  17.396   9.209 -0.0127 -0.0173  0.1627
  366POPI   C4A 5796  10.205  17.339   8.750  0.1991  0.0545 -0.0668
  366POPI   C1B 5797  10.851  18.120   9.595  0.0613  0.1130  0.5045
  366POPI   C2B 5798  10.788  18.160   9.180 -0.0978 -0.0941  0.1889
  366POPI   C3B 5799  10.869  18.245   8.744 -0.1871  0.1452  0.1025
  366POPI   C4B 5800  10.750  18.271   8.290  0.1948 -0.1714 -0.1481
  367POPI    C1 5801  16.818  15.934  10.468  0.2466 -0.2036 -0.0063
  367POPI    C2 5802  16.565  16.044  10.757  0.2121  0.1913 -0.1805
  367POPI    C3 5803  16.888  15.826  10.846  0.0339  0.0381  0.1053
  367POPI   PO4 5804  16.644  15.894  10.239  0.0257 -0.1745 -0.1786
  367POPI   GL1 5805  16.563  16.032   9.903 -0.1461  0.1300  0.2586
  367POPI   GL2 5806  16.770  15.876   9.630 -0.1526  0.1007  0.2851
  367POPI   C1A 5807  16.531  16.230   9.461  0.0681 -0.1331  0.0736
  367POPI   D2A 5808  16.470  16.315   9.032  0.2156  0.6143  0.0926
  367POPI   C3A 5809  16.475  16.485   8.636 -0.0040  0.1471  0.1489
  367POPI   C4A 5810  16.112  16.409   8.297  0.1298  0.1359 -0.1083
  367POPI   C1B 5811  16.896  16.019   9.188  0.0422 -0.1243  0.0071
  367POPI   C2B 5812  16.871  16.094   8.721 -0.2725  0.0766  0.1512
  367POPI   C3B 5813  16.624  16.054   8.363 -0.1222 -0.0095 -0.1204
  367POPI   C4B 5814  16.406  15.924   8.121  0.0868 -0.3350 -0.1481
  368POPI    C1 5815   2.066   6.555  10.837  0.0859 -0.0717 -0.0020
  368POPI    C2 5816   2.037   6.846  11.111  0.0389 -0.0746 -0.0036
  368POPI    C3 5817   2.282   6.535  11.173  0.0014 -0.0932  0.0514
  368POPI   PO4 5818   2.159   6.766  10.607  0.0390 -0.0976 -0.0159
  368POPI   GL1 5819   2.400   6.738  10.270  0.0193 -0.0357  0.2589
  368POPI   GL2 5820   2.665   6.587  10.204  0.1426  0.1002 -0.1112
  368POPI   C1A 5821   2.143   6.957   9.928 -0.0400 -0.3549 -0.0258
  368POPI   D2A 5822   1.882   7.083   9.498  0.3276  0.2805 -0.0784
  368POPI   C3A 5823   2.090   7.275   9.270 -0.0466 -0.4796 -0.1296
  368POPI   C4A 5824   2.071   7.328   8.779 -0.2848  0.1095 -0.1342
  368POPI   C1B 5825   2.654   6.850   9.866 -0.1586  0.0220  0.1582
  368POPI   C2B 5826   2.415   6.944   9.436  0.1503  0.3119 -0.0552
  368POPI   C3B 5827   2.335   6.920   8.965 -0.2113  0.1467 -0.2305
  368POPI   C4B 5828   2.162   6.888   8.511 -0.0990 -0.0337 -0.0148
  369POPI    C1 5829   2.989  17.633  10.842  0.0424 -0.1956  0.0835
  369POPI    C2 5830   2.700  17.489  11.078 -0.0963 -0.1702 -0.0686
  369POPI    C3 5831   3.036  17.279  11.022 -0.2199 -0.3500 -0.1442
  369POPI   PO4 5832   2.839  17.642  10.630  0.1688  0.0229  0.0245
  369POPI   GL1 5833   2.860  17.516  10.192  0.2249  0.2543  0.2078
  369POPI   GL2 5834   2.776  17.863  10.175  0.3214 -0.1012 -0.0674
  369POPI   C1A 5835   2.915  17.424   9.734 -0.1374  0.0499 -0.0187
  369POPI   D2A 5836   3.003  17.706   9.410  0.3642 -0.2900 -0.2118
  369POPI   C3A 5837   2.952  17.668   8.964 -0.2026  0.3720  0.0864
  369POPI   C4A 5838   2.818  17.486   8.526  0.0813  0.0204  0.0414
  369POPI   C1B 5839   2.626  17.766   9.815 -0.1288 -0.0868 -0.1128
  369POPI   C2B 5840   2.465  17.970   9.463  0.4117  0.0953 -0.1148
  369POPI   C3B 5841   2.424  17.896   8.962 -0.0844 -0.1445  0.0957
  369POPI   C4B 5842   2.665  18.034   8.535 -0.3560 -0.0969 -0.1911
  370POPI    C1 5843   4.620   7.307  10.804  0.2232 -0.2192  0.3477
  370POPI    C2 5844   4.230   7.396  10.824  0.1906 -0.2338 -0.1129
  370POPI    C3 5845   4.478   7.518  11.113 -0.1580 -0.2560  0.2038
  370POPI   PO4 5846   4.651   7.368  10.499  0.1564 -0.1232  0.0452
  370POPI   GL1 5847   4.571   7.481  10.095  0.1343 -0.0015 -0.0025
  370POPI   GL2 5848   4.872   7.340   9.958  0.0378 -0.1990  0.1825
  370POPI   C1A 5849   4.430   7.407   9.681 -0.1620  0.2534 -0.2098
  370POPI   D2A 5850   4.445   7.460   9.377  0.3989  0.1580 -0.2775
  370POPI   C3A 5851   4.550   7.523   9.070  0.3866 -0.2921 -0.2196
  370POPI   C4A 5852   4.821   7.642   8.615 -0.0436 -0.2214 -0.2547
  370POPI   C1B 5853   4.949   7.424   9.555  0.0360  0.2331 -0.0459
  370POPI   C2B 5854   5.033   7.533   9.193  0.0314 -0.0190 -0.1336
  370POPI   C3B 5855   5.311   7.750   9.011 -0.3140 -0.1237  0.2293
  370POPI   C4B 5856   5.386   7.973   8.553  0.0506 -0.1079  0.1765
  371POPI    C1 5857   5.392   3.943  10.897  0.1014  0.0211  0.0650
  371POPI    C2 5858   5.157   3.776  11.175 -0.0767  0.1579 -0.0011
  371POPI    C3 5859   5.553   3.725  11.191 -0.0824  0.1892  0.2957
  371POPI   PO4 5860   5.223   3.977  10.727 -0.0503  0.0009 -0.0424
  371POPI   GL1 5861   5.295   3.913  10.299 -0.1348  0.0006 -0.2104
  371POPI   GL2 5862   5.126   3.580  10.342 -0.0544  0.1395  0.2508
  371POPI   C1A 5863   5.384   3.629   9.893 -0.0341  0.2276  0.0588
  371POPI   D2A 5864   5.816   3.605   9.727  0.1090 -0.1332 -0.0637
  371POPI   C3A 5865   5.924   3.461   9.302  0.1423 -0.1240 -0.0614
  371POPI   C4A 5866   5.747   3.418   8.856 -0.1259  0.5840  0.2169
  371POPI   C1B 5867   4.911   3.475   9.964  0.0173 -0.3022  0.0700
  371POPI   C2B 5868   5.127   3.351   9.545  0.1934  0.0856  0.0050
  371POPI   C3B 5869   5.166   3.394   9.039  0.0993  0.1427 -0.2875
  371POPI   C4B 5870   5.329   3.363   8.575  0.0580  0.0786  0.1076
  372POPI    C1 5871   6.835  17.789  11.227 -0.1747 -0.1771  0.1356
  372POPI    C2 5872   6.935  18.164  11.322 -0.1567 -0.0209 -0.4611
  372POPI    C3 5873   7.135  17.857  11.483  0.0502  0.2317 -0.2248
  372POPI   PO4 5874   6.751  17.854  10.980 -0.1650 -0.1001 -0.0126
  372POPI   GL1 5875   6.708  17.979  10.602 -0.0228 -0.0818 -0.0263
  372POPI   GL2 5876   6.887  17.798  10.423 -0.2581  0.1203 -0.0842
  372POPI   C1A 5877   6.534  18.057  10.166 -0.2167  0.0887  0.0251
  372POPI   D2A 5878   6.713  18.143   9.780  0.3374  0.1676  0.3902
  372POPI   C3A 5879   6.689  18.213   9.301 -0.0430  0.0677  0.0882
  372POPI   C4A 5880   6.847  18.552   9.040  0.0293  0.0544  0.1066
  372POPI   C1B 5881   6.967  17.754   9.985 -0.1035  0.3508 -0.0515
  372POPI   C2B 5882   7.051  17.813   9.563 -0.0499  0.1393 -0.4515
  372POPI   C3B 5883   7.065  17.839   9.240 -0.1829 -0.1003 -0.2133
  372POPI   C4B 5884   6.867  18.071   8.836 -0.2472  0.0814 -0.1686
  373POPI    C1 5885  17.572   5.540  10.840  0.1554 -0.1025 -0.0861
  373POPI    C2 5886  17.540   5.830  11.113  0.0077 -0.1613 -0.0397
  373POPI    C3 5887  17.777   5.516  11.183  0.1693 -0.0520 -0.0909
  373POPI   PO4 5888  17.329   5.510  10.829  0.1501 -0.0604  0.1050
  373POPI   GL1 5889  17.096   5.624  10.387 -0.2893  0.0348  0.2368
  373POPI   GL2 5890  17.270   5.667  10.060  0.1486 -0.1561 -0.0933
  373POPI   C1A 5891  17.195   5.216  10.037  0.1181 -0.2127 -0.1025
  373POPI   D2A 5892  17.020   5.096   9.542 -0.1519 -0.1550  0.0226
  373POPI   C3A 5893  17.160   4.720   9.364  0.1724 -0.2713  0.2433
  373POPI   C4A 5894  17.240   4.694   8.960 -0.0475  0.3878  0.2235
  373POPI   C1B 5895  17.356   5.557   9.687 -0.1151 -0.1623 -0.1151
  373POPI   C2B 5896  17.276   5.492   9.330  0.1376  0.0485  0.0157
  373POPI   C3B 5897  17.098   5.203   9.055  0.0653  0.2097  0.2250
  373POPI   C4B 5898  16.759   4.894   9.131 -0.0429 -0.0615 -0.1629
  374POPI    C1 5899   6.261   4.577  11.212 -0.2947  0.0037  0.1715
  374POPI    C2 5900   6.469   4.884  11.063 -0.1110 -0.0647  0.2839
  374POPI    C3 5901   6.172   4.951  11.323 -0.3244  0.0430  0.0175
  374POPI   PO4 5902   6.297   4.359  11.059  0.1892  0.0377 -0.0545
  374POPI   GL1 5903   6.255   4.247  10.620  0.0468  0.2139  0.0128
  374POPI   GL2 5904   6.348   4.434  10.358 -0.1078 -0.0713 -0.0706
  374POPI   C1A 5905   6.047   4.043  10.194 -0.0301 -0.0139  0.0405
  374POPI   D2A 5906   5.840   4.030   9.905 -0.1283 -0.1613  0.0668
  374POPI   C3A 5907   5.933   4.047   9.479 -0.1908  0.0066 -0.0399
  374POPI   C4A 5908   6.206   4.027   9.123  0.0725  0.0198  0.0947
  374POPI   C1B 5909   6.308   4.323   9.818 -0.4252  0.0807 -0.2100
  374POPI   C2B 5910   6.471   4.471   9.399 -0.0754 -0.1022  0.0688
  374POPI   C3B 5911   6.325   4.682   9.002 -0.2739 -0.2577 -0.2001
  374POPI   C4B 5912   6.570   4.853   8.590 -0.1014 -0.4093  0.0967
  375POPI    C1 5913  16.971  12.083  10.026  0.0647  0.1199  0.0144
  375POPI    C2 5914  17.105  12.176  10.392 -0.0316 -0.1081  0.1091
  375POPI    C3 5915  16.741  12.017  10.346 -0.0220 -0.0765 -0.0874
  375POPI   PO4 5916  17.036  12.359   9.899 -0.1062  0.0597 -0.1417
  375POPI   GL1 5917  16.945  12.269   9.478 -0.2207  0.0024  0.1988
  375POPI   GL2 5918  16.625  12.402   9.603 -0.3753 -0.3265 -0.1047
  375POPI   C1A 5919  16.697  12.298   9.059  0.0959  0.0499  0.0662
  375POPI   D2A 5920  16.872  12.301   8.662 -0.1332  0.0711  0.2434
  375POPI   C3A 5921  16.648  12.109   8.329  0.2770 -0.0862  0.2438
  375POPI   C4A 5922  16.582  12.110   7.887  0.1720  0.2035  0.0103
  375POPI   C1B 5923  16.857  12.736   9.301 -0.0779  0.0332  0.0316
  375POPI   C2B 5924  16.916  12.744   8.887  0.1599  0.3738  0.1001
  375POPI   C3B 5925  17.031  12.673   8.448  0.0754 -0.1386 -0.3396
  375POPI   C4B 5926  17.082  12.311   8.169  0.1465 -0.1970  0.1386
  376POPI    C1 5927  17.505  15.392  10.707  0.3163  0.0661 -0.0565
  376POPI    C2 5928  17.866  15.407  10.880  0.1592  0.2418  0.2666
  376POPI    C3 5929  17.543  15.316  11.098  0.0274 -0.0960 -0.0571
  376POPI   PO4 5930  17.575  15.547  10.505  0.1413  0.0450  0.2125
  376POPI   GL1 5931  17.776  15.406  10.209  0.0275 -0.1393 -0.3667
  376POPI   GL2 5932  18.094  15.308  10.168  0.1457 -0.1053 -0.0810
  376POPI   C1A 5933  17.681  15.030   9.915 -0.0551  0.0840  0.1198
  376POPI   D2A 5934  17.626  14.829   9.535  0.1532  0.0546 -0.0642
  376POPI   C3A 5935  17.624  14.827   9.099 -0.0825  0.3346 -0.2935
  376POPI   C4A 5936  17.513  14.881   8.626  0.0605 -0.1223 -0.2291
  376POPI   C1B 5937  18.164  15.131   9.845 -0.0050  0.0391  0.0598
  376POPI   C2B 5938  18.076  15.092   9.411  0.2939 -0.0821 -0.3422
  376POPI   C3B 5939  18.081  15.085   8.958  0.0181 -0.0421 -0.1437
  376POPI   C4B 5940  17.924  15.136   8.517  0.0478  0.4607  0.0118
  377POPI    C1 5941   9.351  17.155  10.694 -0.1623 -0.0328 -0.0282
  377POPI    C2 5942   9.708  17.199  10.868 -0.1845 -0.0779  0.0289
  377POPI    C3 5943   9.607  17.432  10.559  0.0194 -0.2758 -0.1916
  377POPI   PO4 5944   9.368  16.805  10.630 -0.1568 -0.0191  0.0860
  377POPI   GL1 5945   9.565  16.473  10.456  0.1303  0.1077 -0.1163
  377POPI   GL2 5946   9.346  16.391  10.348 -0.1739  0.0690 -0.0733
  377POPI   C1A 5947   9.677  16.188  10.058  0.0447  0.1285  0.4051
  377POPI   D2A 5948   9.918  16.089   9.693 -0.0850  0.2401  0.3493
  377POPI   C3A 5949   9.890  15.820   9.400  0.0142  0.0033 -0.0365
  377POPI   C4A 5950   9.610  15.552   9.265  0.0405  0.0416  0.3401
  377POPI   C1B 5951   9.197  16.502   9.862 -0.0741  0.1037 -0.0054
  377POPI   C2B 5952   9.208  16.466   9.475 -0.1346  0.0934 -0.1240
  377POPI   C3B 5953   9.077  16.432   9.107  0.0928  0.0941  0.1149
  377POPI   C4B 5954   8.993  16.375   8.653  0.0788  0.0704  0.2648
  378POPI    C1 5955   5.591  16.634  10.566  0.1048 -0.0451 -0.0328
  378POPI    C2 5956   5.563  16.746  10.949 -0.1063  0.3041 -0.1458
  378POPI    C3 5957   5.343  16.440  10.813 -0.0067  0.1582  0.0168
  378POPI   PO4 5958   5.646  16.824  10.447 -0.0161  0.0359  0.1702
  378POPI   GL1 5959   5.493  16.821  10.063 -0.1235 -0.1068  0.0863
  378POPI   GL2 5960   5.378  17.162  10.243 -0.1614 -0.0860  0.1322
  378POPI   C1A 5961   5.519  16.898   9.588  0.1153  0.4203  0.1401
  378POPI   D2A 5962   5.401  16.760   9.254  0.0952  0.1029 -0.0651
  378POPI   C3A 5963   5.435  16.861   8.850 -0.1416  0.1150 -0.1621
  378POPI   C4A 5964   5.573  16.999   8.474  0.2727  0.2200  0.0854
  378POPI   C1B 5965   5.346  17.398   9.991  0.0656 -0.0124  0.1259
  378POPI   C2B 5966   5.403  17.432   9.589 -0.1261 -0.1248  0.2225
  378POPI   C3B 5967   5.478  17.298   9.115  0.1542  0.1328 -0.4652
  378POPI   C4B 5968   5.605  17.416   8.717  0.2327 -0.3282 -0.0781
  379POPI    C1 5969   7.037   1.668  11.021 -0.1103 -0.0431  0.1715
  379POPI    C2 5970   7.089   2.063  11.058  0.1014 -0.0671  0.1409
  379POPI    C3 5971   7.394   1.814  11.125 -0.0650 -0.2342  0.2882
  379POPI   PO4 5972   6.785   1.662  10.855  0.2084  0.1734  0.2043
  379POPI   GL1 5973   6.654   1.420  10.375 -0.0506  0.5622  0.1044
  379POPI   GL2 5974   6.469   1.713  10.433 -0.0523  0.0945  0.0398
  379POPI   C1A 5975   6.705   1.524   9.945 -0.0792 -0.4060 -0.0261
  379POPI   D2A 5976   6.821   1.563   9.549 -0.0742  0.0235  0.2265
  379POPI   C3A 5977   6.578   1.468   9.300 -0.3463 -0.1641 -0.0835
  379POPI   C4A 5978   6.282   1.187   9.087  0.0798  0.0520 -0.4918
  379POPI   C1B 5979   6.199   1.670  10.063 -0.2518  0.1500  0.1846
  379POPI   C2B 5980   6.245   1.566   9.692  0.1392  0.2499  0.0815
  379POPI   C3B 5981   6.117   1.674   9.346 -0.0534 -0.0539 -0.2900
  379POPI   C4B 5982   6.217   1.905   9.086  0.3630  0.0618 -0.0762
  380POPI    C1 5983   5.590   4.944  11.241 -0.0821  0.2583  0.1088
  380POPI    C2 5984   5.712   4.599  11.403 -0.1170  0.0937 -0.2078
  380POPI    C3 5985   5.332   4.716  11.444 -0.0960  0.1139 -0.0681
  380POPI   PO4 5986   5.724   4.935  11.002  0.0027  0.0186  0.2431
  380POPI   GL1 5987   5.735   5.065  10.537  0.0825 -0.1289 -0.2202
  380POPI   GL2 5988   5.454   4.865  10.597 -0.0614 -0.0639  0.2272
  380POPI   C1A 5989   5.993   5.005  10.140 -0.0805 -0.2655 -0.1594
  380POPI   D2A 5990   6.230   4.848   9.877  0.2914 -0.0083 -0.0202
  380POPI   C3A 5991   5.965   4.592   9.524  0.2871 -0.3117  0.1346
  380POPI   C4A 5992   5.859   4.419   9.089  0.0208  0.1141 -0.0272
  380POPI   C1B 5993   5.215   4.836  10.251 -0.1713  0.1488  0.1524
  380POPI   C2B 5994   5.087   5.051   9.914 -0.0017  0.0447  0.0453
  380POPI   C3B 5995   5.262   5.256   9.563  0.4272  0.1856  0.0186
  380POPI   C4B 5996   5.088   5.180   9.112  0.0145 -0.1167 -0.1459
  381POPI    C1 5997  17.190  13.439  10.010  0.0822  0.1910  0.3032
  381POPI    C2 5998  17.582  13.384   9.954  0.0365 -0.2122  0.3508
  381POPI    C3 5999  17.419  13.310  10.312 -0.0703  0.0419  0.3569
  381POPI   PO4 6000  17.119  13.298   9.792 -0.2030 -0.0423  0.2940
  381POPI   GL1 6001  16.828  13.237   9.454 -0.0875 -0.1239  0.0785
  381POPI   GL2 6002  17.033  13.449   9.292 -0.1716  0.0855  0.2226
  381POPI   C1A 6003  16.582  13.128   9.074  0.2334  0.1064 -0.2186
  381POPI   D2A 6004  16.715  13.147   8.705 -0.2400 -0.1086  0.1565
  381POPI   C3A 6005  16.498  13.143   8.379  0.1405  0.1832 -0.2223
  381POPI   C4A 6006  16.449  13.109   7.924 -0.1335 -0.1586  0.0291
  381POPI   C1B 6007  17.087  13.364   8.903 -0.0854  0.2012 -0.1935
  381POPI   C2B 6008  17.093  13.337   8.468 -0.0429  0.0029 -0.0277
  381POPI   C3B 6009  17.239  13.564   8.070  0.2351  0.4885 -0.0910
  381POPI   C4B 6010  17.352  13.740   7.757  0.3150 -0.1528 -0.0607
  382POPI    C1 6011   3.632  11.889  10.724 -0.3342  0.1194  0.0340
  382POPI    C2 6012   3.377  11.762  11.004 -0.1124  0.0054  0.1878
  382POPI    C3 6013   3.717  11.942  11.111 -0.0751  0.0566 -0.0121
  382POPI   PO4 6014   3.605  11.729  10.517 -0.3630  0.0583 -0.1792
  382POPI   GL1 6015   3.694  11.761  10.124 -0.0076 -0.1699  0.0786
  382POPI   GL2 6016   3.956  11.664  10.064 -0.0203 -0.1439 -0.0330
  382POPI   C1A 6017   3.663  12.094   9.819 -0.1216  0.0205  0.2390
  382POPI   D2A 6018   3.536  12.177   9.485  0.0474 -0.0142 -0.1356
  382POPI   C3A 6019   3.546  12.160   9.085  0.2175 -0.3612 -0.1008
  382POPI   C4A 6020   3.277  12.101   8.594  0.0246 -0.0144 -0.0878
  382POPI   C1B 6021   3.782  11.653   9.571  0.1824  0.2627 -0.2897
  382POPI   C2B 6022   3.685  11.542   9.203 -0.0418 -0.2186 -0.0394
  382POPI   C3B 6023   3.518  11.707   8.829 -0.1440 -0.1196  0.1101
  382POPI   C4B 6024   3.357  11.604   8.396  0.0472  0.1583 -0.0824
  383POPI    C1 6025   9.667   2.868  10.786  0.0176 -0.1358  0.0784
  383POPI    C2 6026  10.013   2.827  10.983  0.1563 -0.0949 -0.1523
  383POPI    C3 6027   9.729   2.547  11.018  0.1092 -0.0049  0.2376
  383POPI   PO4 6028   9.738   2.922  10.541 -0.1657 -0.0717 -0.2942
  383POPI   GL1 6029   9.775   2.753  10.129 -0.0192  0.1728 -0.0431
  383POPI   GL2 6030   9.884   2.454  10.156  0.1928  0.1687  0.2916
  383POPI   C1A 6031   9.717   2.735   9.717 -0.0078  0.3666  0.1301
  383POPI   D2A 6032   9.846   2.643   9.332 -0.1626 -0.1913 -0.0267
  383POPI   C3A 6033   9.786   2.765   8.990 -0.0371  0.1457  0.1020
  383POPI   C4A 6034   9.626   2.915   8.686 -0.0806 -0.1516  0.0625
  383POPI   C1B 6035  10.142   2.445   9.684 -0.0185  0.0231  0.1306
  383POPI   C2B 6036  10.231   2.333   9.229  0.1045 -0.0755  0.1112
  383POPI   C3B 6037  10.167   2.457   8.809 -0.1526 -0.0395  0.5055
  383POPI   C4B 6038  10.092   2.739   8.518  0.2918 -0.0380  0.3414
  384POPI    C1 6039   3.432   3.634  10.738 -0.1819  0.2076  0.0235
  384POPI    C2 6040   3.245   3.282  10.705 -0.0655  0.1562 -0.0971
  384POPI    C3 6041   3.361   3.413  11.064  0.0189  0.0037 -0.0680
  384POPI   PO4 6042   3.467   3.721  10.528  0.0161 -0.0595  0.0184
  384POPI   GL1 6043   3.595   3.467  10.220  0.0070  0.1568 -0.0832
  384POPI   GL2 6044   3.369   3.282  10.246  0.2470  0.0090 -0.3766
  384POPI   C1A 6045   3.899   3.456   9.839  0.0552  0.3706  0.0552
  384POPI   D2A 6046   3.961   3.637   9.492  0.1162 -0.0644 -0.1966
  384POPI   C3A 6047   3.901   3.577   9.118  0.1373  0.1188  0.0272
  384POPI   C4A 6048   4.185   3.658   8.812 -0.1300  0.1501  0.2434
  384POPI   C1B 6049   3.397   3.314   9.793 -0.0467 -0.1143  0.0960
  384POPI   C2B 6050   3.515   3.332   9.293  0.2028 -0.1617 -0.0968
  384POPI   C3B 6051   3.406   3.597   8.922 -0.1748 -0.1844 -0.1095
  384POPI   C4B 6052   3.444   3.888   8.480 -0.1152  0.1452  0.0511
  385POPI    C1 6053  13.309   5.057  10.716 -0.0401 -0.1153  0.1802
  385POPI    C2 6054  13.146   5.209  11.049  0.0260 -0.0860  0.1991
  385POPI    C3 6055  13.474   4.981  11.072  0.0120 -0.1105  0.1571
  385POPI   PO4 6056  13.118   5.094  10.558  0.2971 -0.1723  0.3765
  385POPI   GL1 6057  12.970   5.086  10.144 -0.2950  0.2458 -0.0671
  385POPI   GL2 6058  12.982   5.267   9.937 -0.1785 -0.1167  0.4202
  385POPI   C1A 6059  12.503   5.207  10.075  0.1779  0.2558 -0.2160
  385POPI   D2A 6060  12.113   5.317  10.044  0.0209 -0.0843  0.1235
  385POPI   C3A 6061  11.894   5.615   9.748  0.0590  0.2164 -0.1086
  385POPI   C4A 6062  11.816   5.916   9.414 -0.0606 -0.1196 -0.1350
  385POPI   C1B 6063  13.138   5.120   9.499  0.3240  0.1296  0.1195
  385POPI   C2B 6064  12.852   5.063   9.220  0.1365 -0.0799  0.3316
  385POPI   C3B 6065  12.745   4.977   8.817  0.1779 -0.0043 -0.1535
  385POPI   C4B 6066  12.751   5.032   8.349 -0.1129  0.1229  0.0232
  386POPI    C1 6067   6.553  12.067  11.013 -0.1084  0.1861 -0.0777
  386POPI    C2 6068   6.951  12.039  10.995 -0.1281 -0.2326  0.0409
  386POPI    C3 6069   6.770  12.098  11.347 -0.1652  0.1486 -0.0371
  386POPI   PO4 6070   6.541  11.892  10.796  0.0845 -0.2949  0.4442
  386POPI   GL1 6071   6.664  11.743  10.451 -0.1566  0.0125 -0.0000
  386POPI   GL2 6072   6.459  11.720  10.291 -0.2117 -0.2442 -0.2020
  386POPI   C1A 6073   7.042  11.848  10.284  0.1592 -0.3798 -0.0098
  386POPI   D2A 6074   7.385  11.982  10.024  0.0733  0.1669  0.1279
  386POPI   C3A 6075   7.436  12.009   9.513  0.4398 -0.0661 -0.0102
  386POPI   C4A 6076   7.373  12.114   9.087  0.0109 -0.0867  0.1301
  386POPI   C1B 6077   6.517  11.860   9.839  0.0635  0.1109 -0.2959
  386POPI   C2B 6078   6.397  11.950   9.466  0.0281 -0.1252 -0.1406
  386POPI   C3B 6079   6.340  11.833   9.118 -0.2077 -0.3046  0.0379
  386POPI   C4B 6080   6.419  11.696   8.747 -0.1366  0.2326  0.3522
  387POPI    C1 6081  11.522   3.314  10.856 -0.0630  0.0198  0.1146
  387POPI    C2 6082  11.740   3.542  11.101 -0.1480  0.1770  0.0452
  387POPI    C3 6083  11.797   3.146  11.094  0.2092  0.2262 -0.0488
  387POPI   PO4 6084  11.414   3.516  10.623  0.2212 -0.1894 -0.2092
  387POPI   GL1 6085  11.154   3.593  10.286 -0.0899 -0.3357 -0.0122
  387POPI   GL2 6086  11.253   3.867  10.240  0.0390 -0.4428  0.1221
  387POPI   C1A 6087  11.020   3.484   9.920 -0.2848 -0.0718  0.0974
  387POPI   D2A 6088  11.097   3.306   9.510 -0.0967  0.0596  0.2614
  387POPI   C3A 6089  11.224   3.394   9.124  0.3752  0.0448 -0.0240
  387POPI   C4A 6090  11.208   3.519   8.679 -0.0301  0.4067  0.3029
  387POPI   C1B 6091  11.261   3.944   9.857  0.3127 -0.0585 -0.0762
  387POPI   C2B 6092  11.264   3.826   9.458  0.1107  0.3051 -0.1928
  387POPI   C3B 6093  11.193   3.914   9.023  0.2535 -0.2141  0.0480
  387POPI   C4B 6094  10.992   4.111   8.663 -0.0439  0.4781 -0.1231
  388POPI    C1 6095  15.911  12.126  10.645 -0.1162  0.1299 -0.1344
  388POPI    C2 6096  16.285  11.992  10.602 -0.1961 -0.1305 -0.0418
  388POPI    C3 6097  16.189  12.217  10.918 -0.0386  0.2357 -0.2479
  388POPI   PO4 6098  15.843  12.239  10.341  0.3329 -0.0328  0.0759
  388POPI   GL1 6099  15.879  12.362   9.951  0.2679 -0.1765  0.3085
  388POPI   GL2 6100  16.204  12.587   9.839  0.0348  0.1211 -0.2231
  388POPI   C1A 6101  15.533  12.391   9.755  0.2060  0.1645 -0.3397
  388POPI   D2A 6102  15.432  12.523   9.424  0.1430  0.2027 -0.0433
  388POPI   C3A 6103  15.180  12.302   9.017  0.3204 -0.4090 -0.0567
  388POPI   C4A 6104  14.891  12.217   8.703 -0.0183  0.1146 -0.0701
  388POPI   C1B 6105  15.933  12.541   9.522 -0.1221  0.4644 -0.0582
  388POPI   C2B 6106  15.847  12.508   9.102 -0.1898 -0.2193 -0.0174
  388POPI   C3B 6107  15.821  12.530   8.682  0.2978  0.0167  0.0842
  388POPI   C4B 6108  15.682  12.652   8.256 -0.2668 -0.0394 -0.2924
  389POPI    C1 6109   7.878   9.745  10.831 -0.0938  0.0047  0.1093
  389POPI    C2 6110   7.910  10.130  10.937  0.3085  0.0245 -0.0658
  389POPI    C3 6111   7.931   9.844  11.215  0.3475  0.1158  0.0258
  389POPI   PO4 6112   7.686   9.806  10.657 -0.2602  0.2655 -0.1918
  389POPI   GL1 6113   7.728   9.833  10.230 -0.2601  0.1362  0.1334
  389POPI   GL2 6114   7.430  10.004  10.155  0.1402 -0.1295 -0.0659
  389POPI   C1A 6115   7.921   9.874   9.891  0.1219  0.2629  0.2917
  389POPI   D2A 6116   7.948   9.977   9.456  0.1531  0.0954  0.2167
  389POPI   C3A 6117   8.337   9.943   9.076  0.1309 -0.0457  0.0958
  389POPI   C4A 6118   8.366   9.564   8.739  0.4038 -0.0934  0.0146
  389POPI   C1B 6119   7.514  10.123   9.787 -0.3112 -0.0133  0.1400
  389POPI   C2B 6120   7.462  10.130   9.430 -0.0154 -0.3794 -0.1206
  389POPI   C3B 6121   7.494   9.911   9.066  0.1349  0.4698  0.1844
  389POPI   C4B 6122   7.567  10.075   8.651  0.0658 -0.2738  0.0654
  390POPI    C1 6123   9.047   1.479  10.836 -0.0339  0.0112 -0.1338
  390POPI    C2 6124   8.712   1.442  11.051 -0.0735  0.0400 -0.1899
  390POPI    C3 6125   8.812   1.797  10.897  0.1318  0.0977  0.0673
  390POPI   PO4 6126   9.018   1.263  10.626 -0.1451  0.1504  0.1295
  390POPI   GL1 6127   9.040   1.364  10.259  0.0730  0.0549  0.0640
  390POPI   GL2 6128   9.296   1.226  10.173 -0.0058  0.1544 -0.1179
  390POPI   C1A 6129   8.727   1.225   9.953 -0.0954 -0.1033 -0.0778
  390POPI   D2A 6130   8.638   1.198   9.544  0.0520 -0.2971  0.1905
  390POPI   C3A 6131   8.608   1.115   9.154 -0.1821  0.2095  0.0334
  390POPI   C4A 6132   8.414   0.759   8.935  0.0643  0.1597  0.1788
  390POPI   C1B 6133   9.189   1.315   9.659 -0.3093  0.2088 -0.0731
  390POPI   C2B 6134   9.384   1.377   9.216 -0.0454 -0.2588  0.1503
  390POPI   C3B 6135   9.352   1.439   8.777  0.0548 -0.1724 -0.0704
  390POPI   C4B 6136   9.798   1.432   8.548 -0.0711  0.1353 -0.0403
  391POPI    C1 6137  15.540  14.529  10.853  0.1024  0.0641 -0.0376
  391POPI    C2 6138  15.805  14.751  11.054  0.0188  0.0462  0.0937
  391POPI    C3 6139  15.592  14.473  11.246  0.0700 -0.0977 -0.0558
  391POPI   PO4 6140  15.293  14.633  10.729  0.2039  0.0682  0.2013
  391POPI   GL1 6141  15.059  14.417  10.327  0.0899 -0.1814 -0.0630
  391POPI   GL2 6142  15.234  14.604  10.140 -0.0579 -0.1302  0.1143
  391POPI   C1A 6143  14.696  14.329  10.178  0.0613 -0.1059  0.3072
  391POPI   D2A 6144  14.457  14.358   9.848 -0.3910 -0.1057 -0.2349
  391POPI   C3A 6145  14.321  14.032   9.642 -0.0884  0.1361  0.0247
  391POPI   C4A 6146  14.052  13.647   9.538  0.2023 -0.0916  0.3317
  391POPI   C1B 6147  15.066  14.435   9.832  0.0914 -0.0633  0.1981
  391POPI   C2B 6148  15.167  14.445   9.414  0.2102  0.0945 -0.2015
  391POPI   C3B 6149  15.023  14.420   8.980 -0.2560  0.0839  0.1017
  391POPI   C4B 6150  14.863  14.464   8.613 -0.0976 -0.0703 -0.2843
  392POPI    C1 6151  12.875  12.921  10.937  0.1744 -0.2605  0.0822
  392POPI    C2 6152  13.057  13.255  10.813 -0.1233 -0.1686 -0.1196
  392POPI    C3 6153  12.840  13.258  11.150  0.0957 -0.2319  0.0246
  392POPI   PO4 6154  12.853  12.830  10.624 -0.1242  0.0875  0.0030
  392POPI   GL1 6155  12.806  12.773  10.261 -0.0421 -0.1740  0.0537
  392POPI   GL2 6156  13.191  12.639  10.042  0.1253 -0.0600  0.2402
  392POPI   C1A 6157  12.866  12.967   9.846 -0.4755  0.0073 -0.1315
  392POPI   D2A 6158  12.717  13.027   9.490 -0.0297  0.2101  0.0509
  392POPI   C3A 6159  12.624  13.075   9.127  0.2094  0.1122  0.1178
  392POPI   C4A 6160  12.524  12.978   8.710 -0.2927 -0.3872  0.0898
  392POPI   C1B 6161  12.953  12.548   9.671  0.0661 -0.0489  0.0391
  392POPI   C2B 6162  12.723  12.565   9.259  0.1077 -0.0253  0.1088
  392POPI   C3B 6163  12.666  12.475   8.774  0.3349 -0.0159  0.0886
  392POPI   C4B 6164  12.559  12.561   8.400 -0.2582 -0.2640  0.1049
  393POPI    C1 6165   3.361  15.667  10.357  0.2623 -0.0593  0.0671
  393POPI    C2 6166   3.333  15.584  10.747  0.1239  0.3873  0.1582
  393POPI    C3 6167   3.689  15.669  10.586  0.2380 -0.1548  0.1032
  393POPI   PO4 6168   3.106  15.826  10.376  0.3659  0.1139  0.0348
  393POPI   GL1 6169   2.885  16.050  10.007 -0.0976 -0.2406  0.1371
  393POPI   GL2 6170   2.983  15.819   9.862  0.0722 -0.1477 -0.1561
  393POPI   C1A 6171   2.789  16.408   9.674  0.1377 -0.1141  0.0513
  393POPI   D2A 6172   2.506  16.550   9.317 -0.0859  0.0638 -0.0265
  393POPI   C3A 6173   2.591  16.770   8.932 -0.0965  0.1063 -0.1383
  393POPI   C4A 6174   2.838  16.984   8.626 -0.1140 -0.1631  0.1173
  393POPI   C1B 6175   3.275  15.716   9.528  0.1242 -0.0376  0.1479
  393POPI   C2B 6176   3.296  15.758   9.125 -0.2733  0.0538  0.1889
  393POPI   C3B 6177   3.168  15.977   8.729  0.0060 -0.0586 -0.0676
  393POPI   C4B 6178   3.185  16.172   8.257  0.0731 -0.1076 -0.2690
  394POPI    C1 6179   7.032   4.875  11.031 -0.0184 -0.0145 -0.0825
  394POPI    C2 6180   7.239   4.925  11.369 -0.1286 -0.2535  0.0223
  394POPI    C3 6181   6.840   4.951  11.374 -0.1126  0.0667 -0.1526
  394POPI   PO4 6182   7.165   4.594  10.910 -0.0905 -0.0394 -0.1082
  394POPI   GL1 6183   7.540   4.497  10.601  0.0115 -0.1093 -0.1029
  394POPI   GL2 6184   7.536   4.278  10.461  0.1867 -0.1542 -0.0861
  394POPI   C1A 6185   7.954   4.481  10.430 -0.0788 -0.1603 -0.0475
  394POPI   D2A 6186   8.293   4.583  10.110  0.0783  0.0078  0.3298
  394POPI   C3A 6187   8.043   4.606   9.690  0.3613  0.0867  0.0343
  394POPI   C4A 6188   8.034   4.729   9.277  0.2769 -0.2445  0.2049
  394POPI   C1B 6189   7.767   4.289  10.031 -0.2005  0.0058  0.1799
  394POPI   C2B 6190   7.622   4.298   9.560 -0.0087  0.0751  0.0646
  394POPI   C3B 6191   7.610   4.587   9.413  0.0723  0.2385 -0.2991
  394POPI   C4B 6192   7.606   4.797   9.059  0.0778  0.0766  0.3409
  395POPI    C1 6193   2.799  16.816  10.400 -0.2738  0.2991 -0.0314
  395POPI    C2 6194   2.428  16.725  10.520 -0.2888  0.1988 -0.1520
  395POPI    C3 6195   2.736  16.684  10.772 -0.3167 -0.0343 -0.1535
  395POPI   PO4 6196   2.765  17.051  10.238  0.3066  0.0789 -0.2788
  395POPI   GL1 6197   2.694  16.923   9.812  0.1825  0.1301 -0.2076
  395POPI   GL2 6198   2.503  16.648  10.005  0.3336  0.0678  0.1573
  395POPI   C1A 6199   2.694  17.034   9.403  0.1069  0.0395 -0.2044
  395POPI   D2A 6200   3.035  17.248   9.245  0.0200 -0.1685  0.0785
  395POPI   C3A 6201   3.174  17.215   8.953  0.2421 -0.0288 -0.2331
  395POPI   C4A 6202   3.567  17.162   8.722 -0.0541  0.0437 -0.0152
  395POPI   C1B 6203   2.236  16.879   9.585  0.0808 -0.0696  0.1167
  395POPI   C2B 6204   2.221  17.096   9.214  0.4990  0.1710  0.4034
  395POPI   C3B 6205   1.887  17.109   8.820  0.2179  0.0072  0.3317
  395POPI   C4B 6206   1.909  17.286   8.468 -0.1304  0.3473 -0.0743
  396POPI    C1 6207   0.707   0.571  10.874  0.0825  0.2253  0.0528
  396POPI    C2 6208   0.806   0.243  11.080  0.1385  0.1738 -0.0553
  396POPI    C3 6209   0.508   0.478  11.208 -0.0850 -0.0669 -0.1246
  396POPI   PO4 6210   0.752   0.485  10.662 -0.0603  0.1340 -0.2532
  396POPI   GL1 6211   1.092   0.533  10.246 -0.0413  0.2123  0.1437
  396POPI   GL2 6212   0.830   0.709  10.183  0.0678 -0.0231 -0.0097
  396POPI   C1A 6213   1.404   0.728  10.029  0.0899 -0.0378 -0.1026
  396POPI   D2A 6214   1.503   0.988   9.773 -0.0968  0.3503 -0.1502
  396POPI   C3A 6215   1.496   1.049   9.435 -0.3494  0.4679  0.1523
  396POPI   C4A 6216   1.191   1.224   9.137  0.1252  0.0905 -0.0011
  396POPI   C1B 6217   0.999   0.728   9.765 -0.0724 -0.4668  0.2323
  396POPI   C2B 6218   1.083   0.746   9.313  0.3866  0.1251  0.0771
  396POPI   C3B 6219   1.192   0.460   8.958  0.0747 -0.1487 -0.1424
  396POPI   C4B 6220   1.217   0.507   8.628  0.1859 -0.3533  0.0344
  397POPI    C1 6221  15.121   8.737  11.098  0.0878 -0.0753 -0.2110
  397POPI    C2 6222  15.378   8.606  11.375 -0.1559 -0.1213 -0.0028
  397POPI    C3 6223  14.998   8.681  11.475 -0.2466 -0.1359 -0.3257
  397POPI   PO4 6224  15.258   8.713  10.842  0.1727 -0.1444 -0.2962
  397POPI   GL1 6225  15.314   8.576  10.454 -0.1071 -0.1174 -0.4194
  397POPI   GL2 6226  15.634   8.607  10.257  0.1055 -0.1435 -0.1635
  397POPI   C1A 6227  14.965   8.449  10.230  0.1690  0.1307  0.2037
  397POPI   D2A 6228  14.841   7.985  10.020 -0.0503  0.1676 -0.0911
  397POPI   C3A 6229  15.069   7.935   9.725 -0.2379  0.1926 -0.1311
  397POPI   C4A 6230  15.257   7.860   9.303 -0.0675 -0.1266 -0.0421
  397POPI   C1B 6231  15.724   8.667   9.934  0.0601 -0.2597  0.0413
  397POPI   C2B 6232  15.691   8.489   9.547 -0.3603 -0.0626  0.1425
  397POPI   C3B 6233  15.577   8.282   9.246  0.0114  0.1723  0.0365
  397POPI   C4B 6234  15.497   8.239   8.845  0.3035 -0.0413 -0.1029
  398POPI    C1 6235   6.399   2.470  10.932 -0.1840  0.0189 -0.0077
  398POPI    C2 6236   6.591   2.793  10.796 -0.1468 -0.0457 -0.1096
  398POPI    C3 6237   6.271   2.654  10.600 -0.2190 -0.0159 -0.0136
  398POPI   PO4 6238   6.566   2.239  10.929 -0.0239 -0.0160  0.2471
  398POPI   GL1 6239   6.891   2.127  10.624  0.0419  0.0407 -0.0307
  398POPI   GL2 6240   7.145   2.263  10.489  0.0544  0.1087 -0.1034
  398POPI   C1A 6241   6.619   2.351  10.283 -0.0354 -0.0268 -0.1899
  398POPI   D2A 6242   6.273   2.658  10.012  0.5898 -0.0290 -0.0672
  398POPI   C3A 6243   6.364   2.692   9.700 -0.1082  0.0177 -0.0662
  398POPI   C4A 6244   6.714   2.629   9.527 -0.0461 -0.0864 -0.2135
  398POPI   C1B 6245   7.066   2.376  10.016 -0.4165 -0.0577 -0.0626
  398POPI   C2B 6246   7.159   2.318   9.600 -0.2893 -0.1362  0.2676
  398POPI   C3B 6247   7.091   2.317   9.116 -0.2015  0.0982 -0.0909
  398POPI   C4B 6248   6.855   2.485   8.943 -0.2653 -0.2162 -0.3335
  399POPI    C1 6249  12.649  13.678  10.818 -0.1379  0.1718  0.0972
  399POPI    C2 6250  12.711  14.034  10.989  0.1999  0.2098 -0.0951
  399POPI    C3 6251  12.939  13.721  11.091  0.0708  0.1098 -0.1110
  399POPI   PO4 6252  12.559  13.676  10.659  0.0946  0.0073  0.3691
  399POPI   GL1 6253  12.614  13.546  10.311  0.0974  0.3904 -0.1472
  399POPI   GL2 6254  12.935  13.299  10.296 -0.2766 -0.3455  0.2424
  399POPI   C1A 6255  12.584  13.468   9.772 -0.0758 -0.2077  0.0237
  399POPI   D2A 6256  12.486  13.511   9.359 -0.2053 -0.0549  0.0376
  399POPI   C3A 6257  12.578  13.547   8.896 -0.0092 -0.0064  0.0611
  399POPI   C4A 6258  12.444  13.472   8.436  0.1227  0.1424 -0.1210
  399POPI   C1B 6259  12.909  13.742   9.996 -0.6801  0.1711 -0.0575
  399POPI   C2B 6260  12.787  13.989   9.654  0.1270 -0.1069  0.0167
  399POPI   C3B 6261  12.727  13.975   9.208 -0.1181  0.1089  0.0490
  399POPI   C4B 6262  12.899  13.898   8.953 -0.2189 -0.2103 -0.0763
  400POPI    C1 6263   8.511  12.501  10.974 -0.0159  0.0125  0.0142
  400POPI    C2 6264   8.452  12.182  10.740 -0.0550  0.1594 -0.1799
  400POPI    C3 6265   8.288  12.197  11.105  0.1922 -0.1704 -0.0494
  400POPI   PO4 6266   8.365  12.692  10.810  0.1317 -0.3621  0.0277
  400POPI   GL1 6267   8.387  12.942  10.493 -0.2108  0.0133 -0.1422
  400POPI   GL2 6268   8.540  12.870  10.318  0.1029 -0.3850 -0.1775
  400POPI   C1A 6269   8.093  13.168  10.180  0.0912 -0.1906 -0.0033
  400POPI   D2A 6270   8.014  13.271   9.771  0.1976  0.2481 -0.0143
  400POPI   C3A 6271   7.752  13.412   9.403 -0.0551  0.1359 -0.0613
  400POPI   C4A 6272   7.415  13.468   9.248  0.1375 -0.0178  0.3452
  400POPI   C1B 6273   8.438  12.990   9.813  0.0427 -0.0978  0.5254
  400POPI   C2B 6274   8.417  13.064   9.316 -0.0981 -0.1208  0.0921
  400POPI   C3B 6275   8.525  12.953   8.848  0.1173  0.0469 -0.0324
  400POPI   C4B 6276   8.802  12.917   8.457  0.0949 -0.2948 -0.2549
  401POPI    C1 6277  13.131   0.163  10.294  0.1992  0.0767  0.2634
  401POPI    C2 6278  13.123  -0.217  10.170  0.3246  0.1139  0.1388
  401POPI    C3 6279  13.018  -0.127  10.546  0.0608 -0.0146  0.0979
  401POPI   PO4 6280  13.215   0.235  10.058  0.0355  0.2699 -0.0479
  401POPI   GL1 6281  13.159   0.137   9.674  0.2574  0.0367  0.1077
  401POPI   GL2 6282  12.954  -0.087   9.745 -0.0143  0.3082  0.1880
  401POPI   C1A 6283  13.155   0.105   9.241 -0.1106  0.0576  0.2238
  401POPI   D2A 6284  13.154  -0.199   8.860 -0.1608  0.0051  0.1466
  401POPI   C3A 6285  13.132   0.002   8.465  0.0809  0.0720 -0.0159
  401POPI   C4A 6286  12.891   0.148   8.123 -0.1681 -0.1777 -0.2330
  401POPI   C1B 6287  12.799  -0.275   9.333 -0.0998  0.0445 -0.1515
  401POPI   C2B 6288  12.586  -0.316   8.927 -0.1125  0.1275 -0.2088
  401POPI   C3B 6289  12.211  -0.320   8.719 -0.0281 -0.0026  0.3444
  401POPI   C4B 6290  12.047  -0.207   8.245  0.1481  0.2902 -0.2363
  402POPI    C1 6291  14.266   8.398  11.139  0.3543 -0.1761 -0.1239
  402POPI    C2 6292  14.487   8.403  11.472  0.1265  0.2579  0.0278
  402POPI    C3 6293  14.099   8.306  11.491  0.1011  0.3329 -0.1032
  402POPI   PO4 6294  14.499   8.301  10.884  0.0308  0.1706  0.1396
  402POPI   GL1 6295  14.497   8.434  10.440 -0.0197 -0.1855  0.0261
  402POPI   GL2 6296  14.389   8.133  10.355  0.1661 -0.0517 -0.0765
  402POPI   C1A 6297  14.529   8.472   9.971 -0.0304  0.0105 -0.0358
  402POPI   D2A 6298  14.607   8.330   9.633 -0.1071  0.1699 -0.1377
  402POPI   C3A 6299  14.490   8.372   9.212 -0.3041  0.0552  0.1567
  402POPI   C4A 6300  14.504   8.458   8.700 -0.2502  0.2483 -0.0865
  402POPI   C1B 6301  14.222   8.043   9.889  0.3107 -0.1815 -0.1964
  402POPI   C2B 6302  14.154   8.093   9.519  0.0819 -0.1662  0.1415
  402POPI   C3B 6303  14.078   8.061   9.109 -0.1624  0.0889  0.1574
  402POPI   C4B 6304  14.191   8.040   8.697 -0.0821  0.0947  0.0690
  403POPI    C1 6305   4.329   0.292  11.157  0.0787 -0.1229 -0.1058
  403POPI    C2 6306   4.487   0.564  10.911  0.1290  0.0277  0.0901
  403POPI    C3 6307   4.316   0.680  11.254 -0.1494 -0.1591  0.0183
  403POPI   PO4 6308   4.354   0.079  11.004 -0.0221 -0.1100  0.2556
  403POPI   GL1 6309   4.399   0.204  10.605 -0.1343  0.3296 -0.1199
  403POPI   GL2 6310   4.131   0.400  10.543 -0.0362 -0.0458 -0.0637
  403POPI   C1A 6311   4.329  -0.151  10.357 -0.1680 -0.0345 -0.2812
  403POPI   D2A 6312   4.484  -0.545  10.324  0.3158 -0.0264  0.1921
  403POPI   C3A 6313   4.497  -0.628   9.846 -0.0996  0.2429 -0.1372
  403POPI   C4A 6314   4.393  -0.630   9.473  0.0835 -0.2162  0.1269
  403POPI   C1B 6315   3.911   0.133  10.178  0.0071 -0.1792 -0.1347
  403POPI   C2B 6316   3.700  -0.036   9.819 -0.0646 -0.0923 -0.0101
  403POPI   C3B 6317   3.680  -0.153   9.459  0.1699 -0.1500 -0.4288
  403POPI   C4B 6318   3.399  -0.300   9.170  0.1388 -0.0175 -0.0045
  404POPI    C1 6319   1.247  13.883  10.522 -0.0992 -0.1400  0.0405
  404POPI    C2 6320   1.472  13.563  10.437 -0.1412 -0.0943 -0.2537
  404POPI    C3 6321   1.155  13.526  10.678 -0.0679 -0.2454 -0.1782
  404POPI   PO4 6322   1.290  14.000  10.232  0.5301  0.0387  0.1359
  404POPI   GL1 6323   1.248  14.293   9.853  0.2281 -0.0578  0.0413
  404POPI   GL2 6324   1.357  14.052   9.745  0.0614 -0.3871 -0.2514
  404POPI   C1A 6325   1.127  14.425   9.473  0.1949  0.2369 -0.1739
  404POPI   D2A 6326   1.083  14.323   9.121  0.1861 -0.1842  0.0296
  404POPI   C3A 6327   0.804  14.378   8.751  0.2023  0.1819 -0.2196
  404POPI   C4A 6328   0.766  14.350   8.403  0.3892 -0.1637  0.1640
  404POPI   C1B 6329   1.301  13.843   9.449 -0.0388  0.0090  0.1129
  404POPI   C2B 6330   1.119  13.851   9.111  0.1094 -0.1785  0.0601
  404POPI   C3B 6331   1.197  13.535   8.747 -0.1495  0.1871 -0.5907
  404POPI   C4B 6332   1.170  13.561   8.311 -0.1923 -0.0491 -0.0926
  405POPI    C1 6333  16.196   2.197  11.016  0.2135 -0.1007  0.1484
  405POPI    C2 6334  15.833   2.296  10.881  0.2717  0.2169  0.2175
  405POPI    C3 6335  15.869   2.056  11.199  0.1299 -0.1508 -0.0371
  405POPI   PO4 6336  16.302   2.179  10.758  0.1334 -0.0801 -0.1728
  405POPI   GL1 6337  16.276   2.057  10.311  0.1463 -0.3527  0.0848
  405POPI   GL2 6338  16.118   1.893  10.294  0.2483  0.1657 -0.1364
  405POPI   C1A 6339  16.214   2.165   9.850 -0.0621 -0.0815 -0.0589
  405POPI   D2A 6340  16.418   2.089   9.439 -0.0608  0.2201 -0.0297
  405POPI   C3A 6341  16.464   2.129   8.995 -0.2174 -0.1046 -0.3639
  405POPI   C4A 6342  16.525   2.146   8.562 -0.0178  0.0243  0.2738
  405POPI   C1B 6343  16.080   1.619   9.903 -0.1480 -0.0306 -0.0119
  405POPI   C2B 6344  16.112   1.700   9.482 -0.0739 -0.1608 -0.0024
  405POPI   C3B 6345  16.142   1.735   9.004  0.0756  0.0754 -0.0125
  405POPI   C4B 6346  16.104   1.813   8.545 -0.1280  0.0722 -0.0624
  406POPI    C1 6347   8.270  14.672  10.890  0.0826  0.2691  0.1949
  406POPI    C2 6348   8.222  14.785  11.271  0.3386  0.2713  0.2285
  406POPI    C3 6349   8.575  14.643  11.148  0.1448 -0.0992  0.0851
  406POPI   PO4 6350   8.132  14.447  10.705  0.1023  0.1429 -0.2371
  406POPI   GL1 6351   8.227  14.177  10.321  0.0058  0.0116  0.1507
  406POPI   GL2 6352   8.553  14.327  10.364  0.2874 -0.1413 -0.0085
  406POPI   C1A 6353   8.081  14.231   9.989 -0.1368 -0.1322 -0.1780
  406POPI   D2A 6354   8.083  14.549   9.639  0.1606 -0.0548  0.0742
  406POPI   C3A 6355   8.116  14.438   9.182  0.0195 -0.0107 -0.3549
  406POPI   C4A 6356   8.120  14.268   8.849 -0.1779 -0.2029  0.1287
  406POPI   C1B 6357   8.523  14.521  10.077 -0.0336  0.0015 -0.0321
  406POPI   C2B 6358   8.585  14.583   9.622  0.0079  0.1798  0.1646
  406POPI   C3B 6359   8.595  14.608   9.239 -0.2060  0.2035  0.1008
  406POPI   C4B 6360   8.441  14.677   8.812 -0.0671  0.0402  0.2255
  407POPI    C1 6361  15.471  12.078  10.712  0.1201 -0.2047  0.1259
  407POPI    C2 6362  15.331  11.913  11.049  0.1506 -0.0526  0.2138
  407POPI    C3 6363  15.634  12.174  11.064  0.0546  0.0683  0.0839
  407POPI   PO4 6364  15.406  11.893  10.518  0.1314  0.2344 -0.0425
  407POPI   GL1 6365  15.023  11.791  10.303 -0.1443  0.3970 -0.0381
  407POPI   GL2 6366  15.231  11.521  10.222  0.1778 -0.4159  0.3389
  407POPI   C1A 6367  15.050  12.059   9.877  0.1558  0.3006  0.2167
  407POPI   D2A 6368  14.968  12.049   9.413  0.0867 -0.1359  0.0317
  407POPI   C3A 6369  14.698  12.076   9.167 -0.0001 -0.1362 -0.0167
  407POPI   C4A 6370  14.447  12.402   8.783 -0.4043 -0.2153  0.1647
  407POPI   C1B 6371  15.110  11.565   9.794 -0.2510 -0.0676 -0.3544
  407POPI   C2B 6372  15.061  11.557   9.334  0.1259  0.3474 -0.0625
  407POPI   C3B 6373  15.083  11.743   9.048  0.2233 -0.1443  0.0437
  407POPI   C4B 6374  15.347  11.824   8.636 -0.0051 -0.0151 -0.0362
  408POPI    C1 6375  13.620   7.509  10.956 -0.2846  0.0155  0.2435
  408POPI    C2 6376  13.725   7.124  10.979 -0.0533  0.0608 -0.0034
  408POPI    C3 6377  13.855   7.383  11.254 -0.1934 -0.0319  0.1522
  408POPI   PO4 6378  13.724   7.648  10.621  0.2284  0.1154 -0.1535
  408POPI   GL1 6379  13.741   7.658  10.164 -0.0857  0.0951  0.0290
  408POPI   GL2 6380  13.866   7.906  10.216  0.0123  0.1794  0.0313
  408POPI   C1A 6381  14.030   7.626   9.833  0.4432  0.2771  0.1293
  408POPI   D2A 6382  14.167   7.649   9.380 -0.0191  0.1025  0.0329
  408POPI   C3A 6383  14.080   7.507   9.071 -0.1852  0.0507 -0.0201
  408POPI   C4A 6384  14.090   7.104   8.866  0.1769 -0.0299 -0.1140
  408POPI   C1B 6385  13.706   8.110   9.819 -0.0308 -0.0306  0.2948
  408POPI   C2B 6386  13.692   8.285   9.470  0.0161  0.2126  0.1282
  408POPI   C3B 6387  13.641   8.294   9.034  0.1234  0.0129  0.1584
  408POPI   C4B 6388  13.374   8.178   8.891 -0.2391 -0.1584  0.1104
  409POPI    C1 6389   7.230  16.304  10.947  0.0878 -0.1140 -0.0033
  409POPI    C2 6390   7.064  15.948  11.022  0.0914 -0.1037  0.0537
  409POPI    C3 6391   7.432  16.029  11.156  0.1535 -0.1360 -0.0957
  409POPI   PO4 6392   7.208  16.369  10.694  0.0337 -0.1794  0.1585
  409POPI   GL1 6393   7.366  16.582  10.346  0.0566 -0.0160 -0.1182
  409POPI   GL2 6394   7.251  16.865  10.553  0.1642  0.1104  0.1137
  409POPI   C1A 6395   7.517  16.528   9.990 -0.4291 -0.0391  0.0815
  409POPI   D2A 6396   7.689  16.438   9.554 -0.4799  0.1808 -0.2264
  409POPI   C3A 6397   7.541  16.557   9.268 -0.2372 -0.0320  0.0918
  409POPI   C4A 6398   7.614  16.744   8.909  0.1591 -0.2088  0.0828
  409POPI   C1B 6399   7.266  17.000  10.125  0.1066 -0.2328  0.0640
  409POPI   C2B 6400   7.487  16.998   9.725  0.4467  0.3778 -0.1177
  409POPI   C3B 6401   7.692  17.056   9.369 -0.0524  0.1763 -0.1522
  409POPI   C4B 6402   7.935  17.188   9.038  0.0621  0.0478 -0.0562
  410POPI    C1 6403   5.524   5.824  11.198 -0.0194 -0.1672  0.0312
  410POPI    C2 6404   5.579   6.168  11.396  0.0985 -0.0425 -0.2143
  410POPI    C3 6405   5.769   5.837  11.515  0.3673  0.0896 -0.2682
  410POPI   PO4 6406   5.286   5.838  11.065 -0.0476 -0.0145 -0.1110
  410POPI   GL1 6407   5.275   5.867  10.662 -0.3835 -0.0651  0.0265
  410POPI   GL2 6408   5.537   5.756  10.564 -0.1503 -0.2338 -0.1300
  410POPI   C1A 6409   5.322   6.161  10.381  0.0765 -0.1519 -0.1111
  410POPI   D2A 6410   5.283   6.136   9.943  0.1651 -0.4461  0.2026
  410POPI   C3A 6411   5.128   6.123   9.567 -0.1146  0.3221 -0.1300
  410POPI   C4A 6412   5.116   6.149   9.113 -0.1385  0.0414 -0.2333
  410POPI   C1B 6413   5.447   5.742  10.199 -0.1952 -0.0961  0.0802
  410POPI   C2B 6414   5.356   5.713   9.749 -0.0727  0.0332 -0.1390
  410POPI   C3B 6415   5.431   5.679   9.337 -0.1657  0.1530 -0.4040
  410POPI   C4B 6416   5.450   5.669   8.905 -0.2392  0.0490 -0.0597
  411POPI    C1 6417  14.718  17.019  10.522  0.2292  0.1875  0.2109
  411POPI    C2 6418  14.986  16.806  10.315 -0.2150 -0.1505 -0.0324
  411POPI    C3 6419  14.963  16.767  10.712  0.0791 -0.1325 -0.0120
  411POPI   PO4 6420  14.760  17.255  10.395 -0.1490  0.2707 -0.1125
  411POPI   GL1 6421  14.587  17.306   9.988 -0.1507 -0.1968 -0.1774
  411POPI   GL2 6422  14.624  16.932  10.019  0.0630 -0.3141 -0.0954
  411POPI   C1A 6423  14.776  17.177   9.585 -0.1933  0.0991 -0.0686
  411POPI   D2A 6424  14.921  17.174   9.208  0.0631  0.2652 -0.2134
  411POPI   C3A 6425  15.049  17.252   8.811  0.2580  0.1707 -0.1153
  411POPI   C4A 6426  15.206  17.493   8.381 -0.0958 -0.1525 -0.0812
  411POPI   C1B 6427  15.089  16.880   9.860 -0.1747 -0.1080 -0.4999
  411POPI   C2B 6428  15.188  16.795   9.419 -0.1116  0.2475  0.1132
  411POPI   C3B 6429  15.190  16.820   8.950  0.4323 -0.1154 -0.4431
  411POPI   C4B 6430  15.185  16.634   8.555 -0.1000 -0.1398  0.3665
  412POPI    C1 6431   5.855   4.154  11.289  0.1436 -0.4151 -0.0401
  412POPI    C2 6432   5.814   3.933  11.620  0.2194 -0.2097  0.1085
  412POPI    C3 6433   6.097   4.215  11.601  0.1120 -0.1118 -0.0717
  412POPI   PO4 6434   5.917   3.996  10.960  0.2123  0.1563  0.1286
  412POPI   GL1 6435   5.749   4.034  10.581 -0.1972  0.1420  0.1428
  412POPI   GL2 6436   5.749   4.271  10.511 -0.0532  0.0475  0.1979
  412POPI   C1A 6437   5.738   3.663  10.281  0.0421 -0.1654 -0.1074
  412POPI   D2A 6438   5.541   3.316  10.357 -0.0204 -0.1102  0.2329
  412POPI   C3A 6439   5.584   3.204   9.884  0.1029  0.2596 -0.0993
  412POPI   C4A 6440   5.547   3.162   9.362  0.0687  0.1159  0.2443
  412POPI   C1B 6441   5.851   4.508  10.175 -0.1012  0.0855  0.0269
  412POPI   C2B 6442   5.619   4.797   9.891 -0.0030  0.0329 -0.0341
  412POPI   C3B 6443   5.556   4.892   9.433 -0.1319  0.2753  0.1694
  412POPI   C4B 6444   5.488   4.830   8.987 -0.0867  0.2158  0.1608
  413POPI    C1 6445  10.969   1.775  10.893  0.0969 -0.0668  0.1075
  413POPI    C2 6446  11.084   2.057  11.153  0.0637 -0.0238  0.0756
  413POPI    C3 6447  10.819   1.779  11.264 -0.1216  0.1284  0.0198
  413POPI   PO4 6448  10.843   1.884  10.738  0.1809  0.0720  0.1853
  413POPI   GL1 6449  10.846   2.072  10.391 -0.1690  0.0135 -0.0172
  413POPI   GL2 6450  10.669   2.278  10.498  0.1312 -0.2986  0.0005
  413POPI   C1A 6451  10.759   2.008  10.050 -0.0948 -0.0019  0.0680
  413POPI   D2A 6452  10.624   2.113   9.658 -0.0174  0.5280 -0.0765
  413POPI   C3A 6453  10.636   2.056   9.256 -0.0350  0.0403  0.0110
  413POPI   C4A 6454  10.496   1.997   8.816  0.1031 -0.0405 -0.3971
  413POPI   C1B 6455  10.509   2.455  10.093  0.1237 -0.2691 -0.0742
  413POPI   C2B 6456  10.606   2.625   9.735 -0.4668 -0.2181  0.0687
  413POPI   C3B 6457  10.649   2.603   9.349  0.1942  0.0193 -0.1340
  413POPI   C4B 6458  10.665   2.456   8.949  0.2454  0.2351  0.2677
  414POPI    C1 6459   7.484   1.902  10.600  0.1090 -0.0506 -0.1363
  414POPI    C2 6460   7.812   1.722  10.456  0.1105 -0.1149 -0.0538
  414POPI    C3 6461   7.820   1.891  10.818 -0.0707 -0.4928  0.1329
  414POPI   PO4 6462   7.299   1.760  10.564 -0.2371 -0.1871 -0.1274
  414POPI   GL1 6463   7.192   1.556  10.167 -0.1028 -0.0359  0.0005
  414POPI   GL2 6464   6.981   1.842  10.213 -0.2349 -0.0115 -0.1291
  414POPI   C1A 6465   7.266   1.404   9.715 -0.2130  0.0864  0.1707
  414POPI   D2A 6466   7.253   1.330   9.277 -0.0548 -0.0353 -0.2012
  414POPI   C3A 6467   7.020   1.594   8.939  0.2387 -0.0456  0.1514
  414POPI   C4A 6468   6.587   1.675   8.747 -0.0191  0.1897  0.0849
  414POPI   C1B 6469   6.726   1.999   9.964  0.0338 -0.0583  0.1022
  414POPI   C2B 6470   6.680   2.003   9.536  0.3229 -0.3123  0.3012
  414POPI   C3B 6471   6.743   1.925   9.158  0.1656  0.0700 -0.1273
  414POPI   C4B 6472   6.932   2.026   8.703  0.1717  0.0170 -0.2626
  415POPI    C1 6473  14.753   7.653  10.477  0.1534 -0.2156  0.1998
  415POPI    C2 6474  14.794   8.048  10.527  0.2256 -0.2020  0.0388
  415POPI    C3 6475  14.641   7.824  10.821 -0.1940  0.0035 -0.0160
  415POPI   PO4 6476  14.959   7.539  10.334 -0.0963  0.2395 -0.3306
  415POPI   GL1 6477  15.104   7.392  10.044  0.1097 -0.0577 -0.0574
  415POPI   GL2 6478  15.388   7.662  10.035  0.0664  0.1233  0.1990
  415POPI   C1A 6479  15.033   7.465   9.656  0.2331 -0.0769 -0.0184
  415POPI   D2A 6480  15.074   7.345   9.196  0.1791 -0.0582  0.2792
  415POPI   C3A 6481  15.395   7.636   8.889  0.3042  0.0940 -0.2539
  415POPI   C4A 6482  15.629   7.841   8.462  0.1010 -0.1864 -0.2497
  415POPI   C1B 6483  15.534   7.825   9.722 -0.2367 -0.0957 -0.2386
  415POPI   C2B 6484  15.753   7.832   9.221 -0.5453 -0.1198  0.2434
  415POPI   C3B 6485  15.835   7.466   8.800  0.0149 -0.4097  0.1667
  415POPI   C4B 6486  15.954   7.311   8.327  0.0220  0.3170 -0.2692
  416POPI    C1 6487  17.823   8.988  11.218 -0.2330 -0.0445  0.2080
  416POPI    C2 6488  17.863   8.830  11.584 -0.1415  0.0791  0.2520
  416POPI    C3 6489  17.514   8.992  11.473 -0.3555 -0.4788  0.0757
  416POPI   PO4 6490  17.941   8.800  11.060 -0.2226 -0.0557 -0.0340
  416POPI   GL1 6491  18.122   8.714  10.619  0.2612 -0.0943 -0.0263
  416POPI   GL2 6492  18.417   8.923  10.592  0.1206 -0.0229  0.1619
  416POPI   C1A 6493  18.007   9.048  10.351 -0.1832 -0.1213  0.4192
  416POPI   D2A 6494  17.990   9.298  10.012  0.0586  0.1224  0.2346
  416POPI   C3A 6495  18.000   9.243   9.633  0.2454  0.2010 -0.2193
  416POPI   C4A 6496  18.121   9.270   9.227  0.1788 -0.0878  0.0954
  416POPI   C1B 6497  18.381   8.776  10.206  0.1749 -0.1472  0.0622
  416POPI   C2B 6498  18.292   8.697   9.769  0.0947  0.3782  0.2139
  416POPI   C3B 6499  18.151   8.628   9.374  0.2427 -0.2519  0.1386
  416POPI   C4B 6500  18.173   8.782   8.936  0.1817 -0.0381  0.0163
  417POPI    C1 6501  12.583   7.979  10.612  0.0291 -0.0570 -0.0161
  417POPI    C2 6502  12.748   7.689  10.391  0.1385  0.0015 -0.0118
  417POPI    C3 6503  12.645   7.617  10.771  0.0444 -0.0696 -0.0504
  417POPI   PO4 6504  12.468   8.107  10.440 -0.0563 -0.1118  0.0520
  417POPI   GL1 6505  12.280   7.937  10.061 -0.2279  0.0544 -0.0860
  417POPI   GL2 6506  12.478   7.830  10.004  0.2330  0.0903  0.1657
  417POPI   C1A 6507  12.200   7.956   9.575 -0.1217 -0.0744  0.1369
  417POPI   D2A 6508  12.149   7.709   9.225 -0.3401 -0.1394  0.0878
  417POPI   C3A 6509  12.312   7.748   8.817  0.0039 -0.0348 -0.1167
  417POPI   C4A 6510  12.490   7.554   8.471 -0.1351 -0.0200  0.0452
  417POPI   C1B 6511  12.651   7.778   9.496 -0.0228 -0.4649 -0.4622
  417POPI   C2B 6512  13.044   7.474   9.345 -0.1224 -0.0370  0.0427
  417POPI   C3B 6513  13.162   7.583   8.868 -0.3660  0.2386 -0.1283
  417POPI   C4B 6514  13.293   7.825   8.528 -0.0155  0.0829 -0.0206
  418POPI    C1 6515   4.813   8.206  10.915  0.2683 -0.0044 -0.0047
  418POPI    C2 6516   4.947   8.034  11.251 -0.1287  0.2829  0.3121
  418POPI    C3 6517   4.560   8.007  11.153  0.0043  0.0974 -0.1951
  418POPI   PO4 6518   4.952   8.087  10.705  0.1767  0.1472  0.2476
  418POPI   GL1 6519   5.123   8.320  10.275 -0.1625 -0.1796  0.2827
  418POPI   GL2 6520   5.361   8.077  10.472  0.2559  0.1589  0.3466
  418POPI   C1A 6521   5.074   8.498   9.949 -0.0552 -0.0768 -0.1514
  418POPI   D2A 6522   5.202   8.384   9.568  0.1114 -0.3287 -0.1540
  418POPI   C3A 6523   5.013   8.572   9.196  0.0420  0.0628  0.0692
  418POPI   C4A 6524   5.178   8.729   8.770  0.0452 -0.1045  0.3184
  418POPI   C1B 6525   5.440   8.055  10.004 -0.0140  0.0508 -0.1249
  418POPI   C2B 6526   5.589   8.127   9.606  0.2992 -0.0111 -0.1585
  418POPI   C3B 6527   5.490   8.086   9.306 -0.0179  0.2460  0.2547
  418POPI   C4B 6528   5.374   8.321   8.980  0.1500  0.0275  0.1496
  419POPI    C1 6529  10.564   4.923  10.730  0.0307 -0.0129 -0.1621
  419POPI    C2 6530  10.389   4.582  10.845 -0.0808  0.0442 -0.1611
  419POPI    C3 6531  10.699   4.727  11.052 -0.1312  0.0237 -0.0707
  419POPI   PO4 6532  10.441   5.069  10.690  0.2219 -0.0804 -0.1123
  419POPI   GL1 6533  10.333   5.090  10.232 -0.1229 -0.3700 -0.0535
  419POPI   GL2 6534  10.166   5.245  10.226  0.0987 -0.4041  0.0291
  419POPI   C1A 6535  10.325   4.997   9.808 -0.2363 -0.0925 -0.1325
  419POPI   D2A 6536  10.275   4.924   9.275  0.3819  0.1846  0.1460
  419POPI   C3A 6537  10.543   5.053   8.961  0.5169  0.3864  0.2029
  419POPI   C4A 6538  10.705   5.423   8.779 -0.1672 -0.1773  0.1619
  419POPI   C1B 6539   9.896   5.317   9.904 -0.0255  0.0719 -0.0996
  419POPI   C2B 6540   9.957   5.226   9.516 -0.1819 -0.0890  0.1038
  419POPI   C3B 6541   9.870   5.156   9.053  0.2914  0.5346 -0.2091
  419POPI   C4B 6542   9.684   5.097   8.616 -0.2464  0.2186  0.1538
  420POPI    C1 6543  14.311  15.614  11.010  0.0616 -0.0734 -0.0561
  420POPI    C2 6544  14.318  15.981  11.171  0.0917  0.0636 -0.3630
  420POPI    C3 6545  14.536  15.687  11.334 -0.0737  0.1328 -0.0067
  420POPI   PO4 6546  14.382  15.667  10.727 -0.1659 -0.0954  0.1516
  420POPI   GL1 6547  14.261  15.516  10.319  0.1820 -0.0943  0.0854
  420POPI   GL2 6548  13.915  15.316  10.391 -0.2965 -0.1614 -0.1424
  420POPI   C1A 6549  14.288  15.594   9.867  0.2057 -0.3490  0.1449
  420POPI   D2A 6550  14.311  15.748   9.482  0.1135 -0.0072  0.0121
  420POPI   C3A 6551  14.354  15.619   9.167  0.0707  0.0812 -0.3166
  420POPI   C4A 6552  14.286  15.606   8.811 -0.2507 -0.1450  0.0351
  420POPI   C1B 6553  13.786  14.985  10.130 -0.0799  0.0052  0.4162
  420POPI   C2B 6554  13.789  14.729   9.789  0.1094  0.1733  0.5444
  420POPI   C3B 6555  13.816  14.750   9.361  0.3297  0.2804  0.0266
  420POPI   C4B 6556  14.106  14.696   9.065  0.2806 -0.0202  0.0363
  421POPI    C1 6557  14.957  10.288  10.978 -0.0485 -0.0754  0.0758
  421POPI    C2 6558  14.681  10.001  11.014 -0.1216 -0.0228 -0.0626
  421POPI    C3 6559  14.569  10.379  10.946 -0.0129 -0.0177 -0.2203
  421POPI   PO4 6560  15.098  10.168  10.815  0.0430 -0.0708  0.0705
  421POPI   GL1 6561  15.095  10.102  10.335  0.2266  0.2492 -0.2234
  421POPI   GL2 6562  15.261  10.070  10.071  0.1098 -0.3378  0.0813
  421POPI   C1A 6563  14.798  10.230  10.046  0.0761  0.0677  0.3507
  421POPI   D2A 6564  14.536  10.332   9.675  0.1862  0.0072  0.0982
  421POPI   C3A 6565  14.382  10.015   9.398  0.0397 -0.0797 -0.0143
  421POPI   C4A 6566  14.153   9.783   9.018  0.2861 -0.0097  0.3086
  421POPI   C1B 6567  15.142  10.118   9.615 -0.0801 -0.0801  0.1862
  421POPI   C2B 6568  15.249  10.108   9.213 -0.0394  0.1434 -0.1524
  421POPI   C3B 6569  15.157   9.968   8.826  0.0032 -0.2071  0.0168
  421POPI   C4B 6570  15.169  10.197   8.411 -0.0137 -0.0110  0.3474
  422POPI    C1 6571  14.241  11.066  11.053  0.0537  0.1381  0.0259
  422POPI    C2 6572  14.540  10.838  11.188 -0.0209 -0.0316 -0.0926
  422POPI    C3 6573  14.337  11.072  11.441  0.0736 -0.0758  0.0250
  422POPI   PO4 6574  14.263  11.071  10.761  0.2641 -0.0292 -0.1935
  422POPI   GL1 6575  14.117  11.376  10.325  0.1971  0.0853 -0.3227
  422POPI   GL2 6576  14.299  11.052  10.206 -0.1404 -0.3382  0.3445
  422POPI   C1A 6577  14.096  11.564   9.974 -0.2049 -0.1821  0.0826
  422POPI   D2A 6578  14.382  11.877   9.713 -0.0343  0.0159 -0.0265
  422POPI   C3A 6579  14.579  11.613   9.342 -0.2707 -0.2378 -0.1474
  422POPI   C4A 6580  14.725  11.287   9.068  0.3531  0.2946 -0.0513
  422POPI   C1B 6581  14.237  10.996   9.748  0.0787 -0.0024  0.1304
  422POPI   C2B 6582  14.164  11.130   9.276 -0.2139 -0.0298  0.2528
  422POPI   C3B 6583  14.256  11.441   8.966  0.0015  0.0152 -0.3128
  422POPI   C4B 6584  14.282  11.395   8.467  0.1100 -0.0843 -0.1101
  423DPPI    C1 6585   7.799  10.646  10.361 -0.1404  0.1834 -0.1176
  423DPPI    C2 6586   7.741  10.623  10.756 -0.1545  0.1568 -0.1212
  423DPPI    C3 6587   7.746  10.290  10.535  0.1643  0.1445 -0.0997
  423DPPI   PO4 6588   7.701  10.859  10.263  0.1066 -0.0275 -0.2075
  423DPPI   GL1 6589   7.707  10.933   9.894 -0.1262 -0.0420 -0.1324
  423DPPI   GL2 6590   7.772  10.569   9.841  0.2220  0.1386  0.1478
  423DPPI   C1A 6591   7.711  11.011   9.492  0.0269 -0.0072 -0.1966
  423DPPI   C2A 6592   7.664  11.008   9.090 -0.0912  0.0881  0.0895
  423DPPI   C3A 6593   7.615  11.041   8.690 -0.1487 -0.1139 -0.1479
  423DPPI   C4A 6594   7.576  11.079   8.350  0.0145  0.0076 -0.3094
  423DPPI   C1B 6595   7.848  10.514   9.369  0.2882  0.2650  0.1605
  423DPPI   C2B 6596   7.915  10.261   9.007 -0.2984 -0.2560 -0.4653
  423DPPI   C3B 6597   8.179  10.072   8.590  0.2541  0.1117 -0.1001
  423DPPI   C4B 6598   8.567   9.929   8.417  0.1893  0.0121 -0.2549
  424DPPI    C1 6599  10.147   5.785  11.368  0.1662  0.3915 -0.0284
  424DPPI    C2 6600  10.293   5.489  11.594 -0.1767  0.0782 -0.2073
  424DPPI    C3 6601  10.288   5.864  11.734 -0.1326 -0.0667  0.1939
  424DPPI   PO4 6602  10.238   5.679  10.939  0.0539 -0.3135 -0.2651
  424DPPI   GL1 6603  10.301   5.721  10.493 -0.3189  0.1718 -0.2263
  424DPPI   GL2 6604  10.552   5.530  10.361 -0.1125  0.0978  0.1986
  424DPPI   C1A 6605  10.086   5.766  10.094 -0.1332  0.1989 -0.0506
  424DPPI   C2A 6606  10.074   5.706   9.630  0.0625  0.0094 -0.0752
  424DPPI   C3A 6607   9.863   5.640   9.279 -0.0914  0.0918  0.2258
  424DPPI   C4A 6608   9.876   5.571   8.745  0.0731 -0.2900  0.0305
  424DPPI   C1B 6609  10.529   5.465   9.880  0.3019  0.0609 -0.1497
  424DPPI   C2B 6610  10.546   5.353   9.560 -0.2928  0.2964  0.1692
  424DPPI   C3B 6611  10.270   5.422   9.208  0.1864 -0.1190  0.1028
  424DPPI   C4B 6612  10.243   5.312   8.669 -0.0411  0.0077  0.2256
  425DPPI    C1 6613  16.482  13.724  10.403 -0.0597 -0.0051  0.0674
  425DPPI    C2 6614  16.257  14.025  10.539 -0.0051  0.0778 -0.0249
  425DPPI    C3 6615  16.537  13.863  10.774  0.1218  0.2529 -0.0534
  425DPPI   PO4 6616  16.304  13.647  10.150  0.1054 -0.1254 -0.0527
  425DPPI   GL1 6617  16.094  13.842   9.765 -0.1913  0.0278 -0.0262
  425DPPI   GL2 6618  15.803  13.666   9.812  0.1141 -0.0136 -0.1307
  425DPPI   C1A 6619  15.982  13.752   9.342 -0.2106 -0.1080 -0.2116
  425DPPI   C2A 6620  16.007  13.762   8.876  0.1424  0.1733 -0.0098
  425DPPI   C3A 6621  16.194  13.754   8.499 -0.1850  0.0917  0.0030
  425DPPI   C4A 6622  16.314  13.546   8.161  0.0833 -0.0116 -0.1131
  425DPPI   C1B 6623  15.522  13.592   9.406  0.1732 -0.0139 -0.0410
  425DPPI   C2B 6624  15.581  13.537   9.034  0.2907 -0.3181  0.1282
  425DPPI   C3B 6625  15.687  13.497   8.578 -0.0029 -0.0560  0.1385
  425DPPI   C4B 6626  15.812  13.543   8.217 -0.1307 -0.0289  0.0124
  426DPPI    C1 6627   9.545  12.774  11.284 -0.1280  0.0107 -0.0845
  426DPPI    C2 6628   9.307  12.896  10.986 -0.0531  0.0995 -0.1084
  426DPPI    C3 6629   9.242  13.025  11.359 -0.1124  0.0329 -0.0955
  426DPPI   PO4 6630   9.766  12.707  11.059  0.2156 -0.3000  0.2376
  426DPPI   GL1 6631   9.819  12.583  10.608  0.0687  0.1280  0.0739
  426DPPI   GL2 6632  10.148  12.493  10.585 -0.2326 -0.1374  0.4374
  426DPPI   C1A 6633   9.941  12.893  10.260 -0.1971  0.1112  0.0499
  426DPPI   C2A 6634   9.916  13.102   9.873  0.1480  0.1556 -0.1925
  426DPPI   C3A 6635   9.795  13.074   9.462  0.0905  0.2848 -0.1692
  426DPPI   C4A 6636   9.825  12.972   9.092 -0.1315  0.1208  0.2386
  426DPPI   C1B 6637  10.165  12.428  10.143 -0.1661 -0.2239  0.0452
  426DPPI   C2B 6638  10.364  12.352   9.757  0.2091 -0.0394  0.1237
  426DPPI   C3B 6639  10.435  12.299   9.318 -0.0670 -0.0705 -0.1526
  426DPPI   C4B 6640  10.284  12.220   8.868 -0.1099 -0.3516  0.0680
  427DPPI    C1 6641  10.268   3.522  11.100  0.1144 -0.0074  0.1492
  427DPPI    C2 6642  10.431   3.776  11.363  0.1619 -0.1002  0.2100
  427DPPI    C3 6643  10.034   3.730  11.350  0.1548 -0.0428  0.2165
  427DPPI   PO4 6644  10.495   3.599  10.903 -0.2740  0.1306 -0.1922
  427DPPI   GL1 6645  10.492   3.490  10.520 -0.1060  0.0162  0.0534
  427DPPI   GL2 6646  10.773   3.307  10.455 -0.3820  0.0181  0.1916
  427DPPI   C1A 6647  10.743   3.767  10.183  0.3028  0.0695  0.2174
  427DPPI   C2A 6648  10.759   3.914   9.737 -0.0656  0.1280  0.0464
  427DPPI   C3A 6649  10.698   3.614   9.438  0.0978 -0.0780  0.1473
  427DPPI   C4A 6650  10.811   3.661   9.038 -0.0336  0.1048 -0.0656
  427DPPI   C1B 6651  10.593   3.252  10.095  0.1161  0.1566  0.4884
  427DPPI   C2B 6652  10.634   3.178   9.638 -0.1789  0.0692 -0.0538
  427DPPI   C3B 6653  10.757   3.099   9.133 -0.0325 -0.0462  0.1310
  427DPPI   C4B 6654  10.924   3.065   8.710  0.0039 -0.2113  0.0179
  428DPPI    C1 6655  11.068   6.246  10.864 -0.0952 -0.0071 -0.0374
  428DPPI    C2 6656  11.106   6.510  11.163 -0.0457 -0.0568  0.0005
  428DPPI    C3 6657  10.894   6.175  11.217  0.0513 -0.1166  0.0139
  428DPPI   PO4 6658  10.929   6.358  10.654 -0.2340 -0.0101 -0.1371
  428DPPI   GL1 6659  10.771   6.636  10.326 -0.0914 -0.0218 -0.2202
  428DPPI   GL2 6660  10.894   7.006  10.223  0.1045  0.1970  0.1116
  428DPPI   C1A 6661  10.777   6.537   9.871 -0.1043  0.0751 -0.2016
  428DPPI   C2A 6662  10.660   6.543   9.420  0.0219 -0.0907  0.1338
  428DPPI   C3A 6663  10.458   6.658   9.029  0.2047  0.0864 -0.0469
  428DPPI   C4A 6664  10.368   6.641   8.602  0.0183  0.1153 -0.1017
  428DPPI   C1B 6665  11.114   7.018   9.903  0.0591  0.0172  0.0217
  428DPPI   C2B 6666  11.143   6.714   9.504  0.0877 -0.0413 -0.3202
  428DPPI   C3B 6667  11.180   6.816   9.095 -0.2948 -0.2899  0.0220
  428DPPI   C4B 6668  11.215   7.266   9.050 -0.0392  0.1781 -0.1296
  429DPPI    C1 6669  11.704  11.014  10.897  0.1338  0.0829 -0.0267
  429DPPI    C2 6670  11.869  11.184  11.219  0.0187  0.0250  0.0638
  429DPPI    C3 6671  11.737  10.806  11.237  0.0188  0.0189 -0.0538
  429DPPI   PO4 6672  11.469  11.213  10.890  0.2181  0.1994  0.1522
  429DPPI   GL1 6673  11.376  11.441  10.507  0.0876  0.1115  0.1153
  429DPPI   GL2 6674  11.498  11.705  10.304 -0.0662 -0.4049  0.1821
  429DPPI   C1A 6675  11.396  11.262  10.100 -0.1873  0.0041  0.0909
  429DPPI   C2A 6676  11.377  11.221   9.711 -0.0431  0.1235  0.1886
  429DPPI   C3A 6677  11.220  11.149   9.331  0.2768 -0.2150 -0.2658
  429DPPI   C4A 6678  11.119  11.204   8.855 -0.2354 -0.1099 -0.0139
  429DPPI   C1B 6679  11.441  11.730   9.862 -0.0149 -0.0644 -0.2368
  429DPPI   C2B 6680  11.401  11.771   9.471 -0.0323  0.0530 -0.0658
  429DPPI   C3B 6681  11.392  12.006   9.086 -0.3068 -0.2823 -0.2045
  429DPPI   C4B 6682  11.385  12.133   8.638  0.1334 -0.1996  0.3862
  430DPPI    C1 6683   1.768   3.898  10.605  0.1928  0.0037 -0.3048
  430DPPI    C2 6684   1.898   3.950  10.979 -0.2144 -0.1422 -0.1375
  430DPPI    C3 6685   2.113   4.088  10.672  0.0581  0.0983  0.1547
  430DPPI   PO4 6686   1.497   4.002  10.590 -0.1628  0.1215 -0.2048
  430DPPI   GL1 6687   1.118   4.026  10.365  0.1727  0.1404 -0.1259
  430DPPI   GL2 6688   1.221   3.668  10.286 -0.2441 -0.0741  0.1531
  430DPPI   C1A 6689   1.391   4.114   9.990  0.2783 -0.3450 -0.0969
  430DPPI   C2A 6690   1.314   4.264   9.564  0.2187 -0.1573  0.0756
  430DPPI   C3A 6691   1.203   4.341   9.238  0.0578 -0.0113  0.1035
  430DPPI   C4A 6692   0.997   4.462   8.884  0.1591 -0.3171 -0.2028
  430DPPI   C1B 6693   1.247   3.477   9.888  0.2114 -0.0381 -0.2492
  430DPPI   C2B 6694   1.133   3.526   9.502 -0.0265  0.2922 -0.0087
  430DPPI   C3B 6695   1.035   3.475   9.117  0.0322  0.0511 -0.1360
  430DPPI   C4B 6696   0.899   3.509   8.818  0.2391 -0.2937 -0.0006
  431DPPI    C1 6697   6.897   7.145  11.136  0.2094 -0.0167  0.0781
  431DPPI    C2 6698   6.787   6.832  11.359  0.0299  0.0487  0.0835
  431DPPI    C3 6699   6.966   7.146  11.529 -0.1159  0.1029  0.1388
  431DPPI   PO4 6700   6.605   7.142  10.919 -0.1339 -0.0097 -0.2858
  431DPPI   GL1 6701   6.519   7.237  10.503 -0.2068  0.2409  0.0191
  431DPPI   GL2 6702   6.263   6.960  10.396  0.0296 -0.0332  0.1026
  431DPPI   C1A 6703   6.571   7.267  10.083 -0.1646 -0.1222  0.0767
  431DPPI   C2A 6704   6.551   7.275   9.645 -0.2570 -0.0046  0.2024
  431DPPI   C3A 6705   6.726   7.457   9.253  0.0125 -0.0795  0.0033
  431DPPI   C4A 6706   6.961   7.769   9.011  0.0769 -0.1303 -0.1020
  431DPPI   C1B 6707   6.258   6.887   9.922  0.0317  0.0165  0.0712
  431DPPI   C2B 6708   6.225   6.948   9.404 -0.0068 -0.4936  0.4754
  431DPPI   C3B 6709   6.530   7.096   8.974 -0.0882  0.0059 -0.0985
  431DPPI   C4B 6710   6.614   7.051   8.561 -0.0872  0.1314 -0.3462
  432DPPI    C1 6711  11.508   8.090  10.594 -0.0316 -0.2680  0.0186
  432DPPI    C2 6712  11.634   7.910  10.928  0.1356  0.0280  0.1183
  432DPPI    C3 6713  11.426   8.251  10.951 -0.0674 -0.0807 -0.0730
  432DPPI   PO4 6714  11.428   7.885  10.438 -0.0893 -0.1213  0.1499
  432DPPI   GL1 6715  11.359   7.858  10.003 -0.2956  0.0726  0.0187
  432DPPI   GL2 6716  11.281   8.242  10.052  0.2186  0.0101 -0.2128
  432DPPI   C1A 6717  11.233   7.953   9.585  0.4694  0.2127  0.3624
  432DPPI   C2A 6718  11.283   7.753   9.263  0.0419 -0.1791 -0.4100
  432DPPI   C3A 6719  11.195   7.800   8.848 -0.2323 -0.1115  0.1150
  432DPPI   C4A 6720  11.365   7.983   8.550 -0.0839 -0.1122  0.1082
  432DPPI   C1B 6721  11.232   8.438   9.622 -0.0665 -0.3601 -0.0611
  432DPPI   C2B 6722  11.130   8.291   9.263  0.0890  0.1979  0.0545
  432DPPI   C3B 6723  11.167   8.627   8.950 -0.0087  0.1490 -0.1058
  432DPPI   C4B 6724  11.366   8.855   8.893 -0.2189 -0.4120 -0.1519
  433DPPI    C1 6725   3.592  15.131  10.618 -0.2262 -0.0467  0.0045
  433DPPI    C2 6726   3.403  15.089  10.969 -0.2609  0.2591  0.0248
  433DPPI    C3 6727   3.752  15.285  10.951 -0.1217  0.0077 -0.0705
  433DPPI   PO4 6728   3.228  15.150  10.488 -0.0995 -0.0877  0.1802
  433DPPI   GL1 6729   3.048  15.400  10.120  0.2064  0.0285  0.1824
  433DPPI   GL2 6730   3.381  15.232  10.057  0.0288  0.1102  0.0001
  433DPPI   C1A 6731   2.924  15.358   9.674  0.1242  0.1140 -0.0966
  433DPPI   C2A 6732   2.920  15.328   9.263  0.0697  0.0249 -0.0942
  433DPPI   C3A 6733   3.018  15.469   8.823  0.0943 -0.1285 -0.1173
  433DPPI   C4A 6734   2.792  15.655   8.570  0.1103 -0.0674  0.1465
  433DPPI   C1B 6735   3.371  15.224   9.727  0.2144  0.0361  0.4496
  433DPPI   C2B 6736   3.446  15.294   9.307 -0.2228  0.3622  0.1604
  433DPPI   C3B 6737   3.433  15.155   8.956  0.1274 -0.0092  0.1068
  433DPPI   C4B 6738   3.409  14.977   8.722 -0.2177  0.4216 -0.0034
  434DPPI    C1 6739  16.868  16.396  10.327  0.0041 -0.0824  0.0122
  434DPPI    C2 6740  16.982  16.746  10.484  0.0917 -0.0758 -0.0659
  434DPPI    C3 6741  16.830  16.461  10.720 -0.1059  0.0646 -0.0221
  434DPPI   PO4 6742  16.712  16.480  10.068 -0.0558 -0.0966 -0.1583
  434DPPI   GL1 6743  16.549  16.709   9.799 -0.0223 -0.2285  0.1890
  434DPPI   GL2 6744  16.836  16.620   9.606 -0.3122  0.1294 -0.1344
  434DPPI   C1A 6745  16.538  16.734   9.278  0.1149  0.3456  0.3141
  434DPPI   C2A 6746  16.420  16.830   8.961  0.1898 -0.3206 -0.1032
  434DPPI   C3A 6747  16.616  16.950   8.537 -0.2093 -0.1298 -0.0426
  434DPPI   C4A 6748  16.424  16.833   8.188  0.0221 -0.0517 -0.1554
  434DPPI   C1B 6749  17.099  16.671   9.195 -0.3423 -0.1456  0.2519
  434DPPI   C2B 6750  16.946  16.687   8.727  0.0092  0.1202 -0.3750
  434DPPI   C3B 6751  16.836  16.553   8.309 -0.0832 -0.1766  0.2171
  434DPPI   C4B 6752  16.541  16.373   7.968 -0.0840 -0.0336 -0.2397
  435DPPI    C1 6753   1.477   4.930  10.719 -0.0886 -0.0092 -0.0938
  435DPPI    C2 6754   1.715   4.877  11.036  0.1016  0.0016 -0.2329
  435DPPI    C3 6755   1.328   4.776  11.056  0.1416 -0.1163 -0.0398
  435DPPI   PO4 6756   1.685   4.899  10.500  0.2400  0.2667  0.0140
  435DPPI   GL1 6757   1.873   4.906  10.141 -0.0529 -0.5609 -0.2596
  435DPPI   GL2 6758   2.020   5.245  10.306 -0.0121 -0.3173  0.0301
  435DPPI   C1A 6759   1.875   4.945   9.727  0.1935 -0.0039  0.2238
  435DPPI   C2A 6760   1.879   5.069   9.300 -0.1471 -0.1148 -0.2331
  435DPPI   C3A 6761   1.910   5.268   8.925  0.1184 -0.2204 -0.0839
  435DPPI   C4A 6762   2.013   5.248   8.423  0.0926  0.3626  0.0779
  435DPPI   C1B 6763   1.813   5.406  10.005  0.1726 -0.0748 -0.0430
  435DPPI   C2B 6764   1.840   5.676   9.697  0.1064  0.3513  0.1573
  435DPPI   C3B 6765   1.785   6.110   9.333 -0.2892  0.0279  0.3407
  435DPPI   C4B 6766   1.721   6.252   8.939 -0.2452  0.0725  0.0388
  436DPPI    C1 6767   6.700  10.977  10.766 -0.0760  0.2115  0.0198
  436DPPI    C2 6768   6.890  11.005  11.117  0.0437  0.0006 -0.0265
  436DPPI    C3 6769   7.042  11.184  10.793  0.1116 -0.0841 -0.0419
  436DPPI   PO4 6770   6.546  10.739  10.731 -0.1657 -0.3708  0.3842
  436DPPI   GL1 6771   6.417  10.575  10.411 -0.0155  0.0379  0.1031
  436DPPI   GL2 6772   6.186  10.665  10.175 -0.0664 -0.1290  0.0127
  436DPPI   C1A 6773   6.651  10.564   9.972 -0.0210  0.1038  0.3139
  436DPPI   C2A 6774   6.700  10.464   9.508  0.0981 -0.6155  0.3158
  436DPPI   C3A 6775   6.631  10.241   9.052 -0.0281 -0.1930  0.2290
  436DPPI   C4A 6776   6.506  10.336   8.587 -0.0397  0.0379 -0.0387
  436DPPI   C1B 6777   6.272  10.743   9.741 -0.2675 -0.1558 -0.1351
  436DPPI   C2B 6778   6.338  10.817   9.347 -0.1478  0.0620  0.1566
  436DPPI   C3B 6779   6.352  10.725   8.842  0.1651  0.0201  0.0686
  436DPPI   C4B 6780   5.975  10.436   8.659 -0.0036  0.2416  0.0648
  437DPPI    C1 6781   1.976   8.216  11.164 -0.1434  0.1414 -0.0654
  437DPPI    C2 6782   1.737   7.956  11.353  0.1005 -0.0396 -0.0017
  437DPPI    C3 6783   2.124   7.982  11.453  0.1230  0.2078 -0.1455
  437DPPI   PO4 6784   1.963   8.041  10.857 -0.0980  0.0590  0.0253
  437DPPI   GL1 6785   1.897   8.040  10.417  0.3232 -0.2251  0.0589
  437DPPI   GL2 6786   2.046   8.360  10.439 -0.0535  0.2033  0.1575
  437DPPI   C1A 6787   1.634   8.237  10.044  0.4542 -0.1230  0.2813
  437DPPI   C2A 6788   1.792   8.091   9.709 -0.0383 -0.2192  0.0335
  437DPPI   C3A 6789   2.118   8.121   9.306 -0.0763 -0.1392 -0.1755
  437DPPI   C4A 6790   2.120   8.268   8.767  0.3067  0.1624 -0.1744
  437DPPI   C1B 6791   2.197   8.201  10.009  0.4079  0.1295 -0.3406
  437DPPI   C2B 6792   2.261   7.798   9.985  0.0783 -0.3222  0.2155
  437DPPI   C3B 6793   2.402   7.374   9.871  0.0180  0.0317  0.2541
  437DPPI   C4B 6794   2.770   7.220   9.521 -0.0438 -0.1613 -0.1918
  438DPPI    C1 6795   7.497  15.276  10.765 -0.1048  0.1524 -0.0985
  438DPPI    C2 6796   7.437  15.522  11.075  0.0299 -0.0220  0.0684
  438DPPI    C3 6797   7.342  15.134  11.105 -0.2407  0.0181 -0.2151
  438DPPI   PO4 6798   7.525  15.366  10.603 -0.2056 -0.0549  0.1994
  438DPPI   GL1 6799   7.259  15.257  10.154 -0.0260 -0.2221  0.1201
  438DPPI   GL2 6800   7.381  15.566  10.179 -0.1832  0.0118 -0.0190
  438DPPI   C1A 6801   7.202  15.006   9.872 -0.0195  0.2173  0.0102
  438DPPI   C2A 6802   7.279  15.081   9.419 -0.0035  0.0936 -0.2078
  438DPPI   C3A 6803   7.506  15.089   9.048  0.1595  0.1462 -0.0488
  438DPPI   C4A 6804   7.662  15.071   8.576 -0.1386 -0.2522  0.2508
  438DPPI   C1B 6805   7.474  15.464   9.695  0.1219  0.3745  0.1282
  438DPPI   C2B 6806   7.683  15.492   9.395  0.2408 -0.1023  0.0842
  438DPPI   C3B 6807   7.684  15.534   8.933 -0.0300 -0.0669  0.0563
  438DPPI   C4B 6808   7.459  15.503   8.509  0.4912 -0.3804 -0.1992
  439DPPI    C1 6809  10.958  11.159  11.183 -0.0274 -0.0696  0.2670
  439DPPI    C2 6810  11.002  10.873  11.459  0.2670 -0.2377  0.0511
  439DPPI    C3 6811  11.301  11.128  11.386  0.0994 -0.0366  0.0603
  439DPPI   PO4 6812  10.829  11.087  10.991  0.0336 -0.0749 -0.1593
  439DPPI   GL1 6813  10.971  11.073  10.638  0.1165 -0.2103 -0.0813
  439DPPI   GL2 6814  10.672  10.801  10.573 -0.1029 -0.0304 -0.0702
  439DPPI   C1A 6815  10.901  11.216  10.330 -0.0426  0.1097  0.0023
  439DPPI   C2A 6816  10.899  11.136   9.916 -0.0060  0.1567 -0.2609
  439DPPI   C3A 6817  10.942  10.904   9.677  0.0281  0.0829  0.2107
  439DPPI   C4A 6818  10.791  10.453   9.566 -0.0531  0.4262  0.0495
  439DPPI   C1B 6819  10.543  10.750  10.079 -0.0265  0.3135 -0.1657
  439DPPI   C2B 6820  10.420  10.789   9.680 -0.0431  0.0907  0.2446
  439DPPI   C3B 6821  10.433  10.804   9.215 -0.1786 -0.0921 -0.0018
  439DPPI   C4B 6822  10.316  10.795   8.743  0.3350 -0.4435 -0.0015
  440DPPI    C1 6823   6.885  13.749  10.868 -0.0265  0.0837 -0.0983
  440DPPI    C2 6824   6.816  14.115  10.723  0.0751  0.1949  0.1278
  440DPPI    C3 6825   6.720  14.029  11.101  0.0377 -0.0183  0.0713
  440DPPI   PO4 6826   6.842  13.605  10.734  0.0300  0.2521  0.2348
  440DPPI   GL1 6827   6.810  13.328  10.396 -0.0452 -0.2568  0.2355
  440DPPI   GL2 6828   7.130  13.316  10.430 -0.0264 -0.1030 -0.0249
  440DPPI   C1A 6829   6.643  13.136   9.982 -0.2312 -0.1373 -0.2428
  440DPPI   C2A 6830   6.587  12.874   9.750  0.0873  0.3297  0.2117
  440DPPI   C3A 6831   6.365  12.825   9.365  0.0752  0.1735  0.3562
  440DPPI   C4A 6832   6.486  13.038   9.054  0.0289 -0.1137 -0.0587
  440DPPI   C1B 6833   7.102  13.033  10.065  0.0758  0.0817 -0.1111
  440DPPI   C2B 6834   7.061  12.714   9.715 -0.0920  0.0412  0.0797
  440DPPI   C3B 6835   7.226  12.525   9.415 -0.0236 -0.3127  0.4154
  440DPPI   C4B 6836   7.205  12.575   8.986 -0.3448  0.0359  0.0675
  441DPPI    C1 6837  16.367   5.209  11.056 -0.2165 -0.0304  0.0403
  441DPPI    C2 6838  16.180   4.905  11.235 -0.2376 -0.1846 -0.2388
  441DPPI    C3 6839  15.984   5.246  11.164 -0.1356  0.0009  0.3239
  441DPPI   PO4 6840  16.584   5.063  10.856  0.1364  0.2197 -0.0100
  441DPPI   GL1 6841  16.555   4.798  10.443 -0.1897  0.0942 -0.0656
  441DPPI   GL2 6842  16.293   4.612  10.412  0.3091  0.1846 -0.1855
  441DPPI   C1A 6843  16.745   5.054  10.071  0.3655 -0.0693 -0.1560
  441DPPI   C2A 6844  16.559   5.194   9.712  0.0172 -0.2984  0.0742
  441DPPI   C3A 6845  16.475   5.321   9.166  0.0194 -0.2827 -0.0277
  441DPPI   C4A 6846  16.280   5.437   8.765 -0.1832  0.0255 -0.1135
  441DPPI   C1B 6847  16.202   4.370  10.043 -0.1607  0.2024 -0.0187
  441DPPI   C2B 6848  16.231   4.318   9.549 -0.2869  0.2619  0.2296
  441DPPI   C3B 6849  16.036   4.179   9.206  0.2314 -0.1165 -0.2786
  441DPPI   C4B 6850  15.955   3.990   8.826 -0.0081 -0.1373  0.0192
  442DPPI    C1 6851  14.112   2.059  10.771 -0.1512  0.2346  0.0963
  442DPPI    C2 6852  14.350   2.127  11.085  0.0562 -0.1555  0.0305
  442DPPI    C3 6853  14.110   1.807  11.082 -0.0714 -0.0602 -0.1373
  442DPPI   PO4 6854  14.150   2.285  10.639  0.0516 -0.1595 -0.4342
  442DPPI   GL1 6855  14.220   2.151  10.196  0.0447  0.1189  0.0291
  442DPPI   GL2 6856  14.256   2.450  10.145 -0.1331  0.2497 -0.0432
  442DPPI   C1A 6857  14.180   1.977   9.834  0.0663  0.0996  0.2656
  442DPPI   C2A 6858  14.327   2.087   9.365  0.2668  0.0145  0.0099
  442DPPI   C3A 6859  14.175   2.067   8.988 -0.3336 -0.0932 -0.2015
  442DPPI   C4A 6860  13.863   1.818   8.668  0.2677 -0.2088 -0.1138
  442DPPI   C1B 6861  14.406   2.474   9.674  0.1438  0.0281  0.1574
  442DPPI   C2B 6862  14.590   2.506   9.394 -0.0922 -0.1786  0.0321
  442DPPI   C3B 6863  14.646   2.276   8.982  0.0082 -0.1651  0.0254
  442DPPI   C4B 6864  14.483   2.249   8.624  0.1923  0.2190 -0.0483
  443DPPI    C1 6865   5.346   9.306  11.194 -0.1031 -0.2593  0.0560
  443DPPI    C2 6866   5.347   9.233  11.587 -0.0117  0.1318  0.1321
  443DPPI    C3 6867   5.379   9.609  11.453  0.2396 -0.0221 -0.2550
  443DPPI   PO4 6868   5.079   9.165  11.038 -0.1531 -0.3874  0.2294
  443DPPI   GL1 6869   5.072   8.964  10.739  0.0322 -0.1796  0.0370
  443DPPI   GL2 6870   5.246   8.701  10.627  0.2502  0.0594 -0.2294
  443DPPI   C1A 6871   4.727   9.005  10.467 -0.0958  0.0721  0.0439
  443DPPI   C2A 6872   4.604   8.988  10.063  0.1044  0.1357  0.3505
  443DPPI   C3A 6873   4.855   8.852   9.755  0.0506 -0.1838 -0.0613
  443DPPI   C4A 6874   5.221   8.940   9.641  0.0935  0.3003  0.1450
  443DPPI   C1B 6875   5.129   8.967  10.195 -0.2179 -0.0592  0.0874
  443DPPI   C2B 6876   5.287   9.304   9.965 -0.0279  0.0125 -0.2008
  443DPPI   C3B 6877   5.558   9.308   9.607 -0.4865 -0.2489  0.0136
  443DPPI   C4B 6878   5.769   9.260   9.217  0.1848  0.0293  0.0302
  444DPPI    C1 6879   1.235  16.227  10.577 -0.0280  0.1233  0.0807
  444DPPI    C2 6880   1.422  15.890  10.683 -0.3831 -0.0812  0.0738
  444DPPI    C3 6881   1.449  16.216  10.914 -0.0348 -0.1100  0.0788
  444DPPI   PO4 6882   1.229  16.223  10.292 -0.0219 -0.0777 -0.0554
  444DPPI   GL1 6883   1.208  16.076   9.962 -0.1645  0.0566 -0.1345
  444DPPI   GL2 6884   1.552  16.197   9.934  0.0984  0.0367 -0.0866
  444DPPI   C1A 6885   1.075  15.882   9.571  0.0421 -0.0382  0.1964
  444DPPI   C2A 6886   1.007  15.778   9.185 -0.4040 -0.0986  0.0727
  444DPPI   C3A 6887   1.179  15.635   8.810 -0.1952 -0.1080  0.0275
  444DPPI   C4A 6888   1.196  15.747   8.386 -0.0108  0.3583 -0.0717
  444DPPI   C1B 6889   1.548  16.329   9.580 -0.0019 -0.2218  0.1857
  444DPPI   C2B 6890   1.379  16.146   9.131 -0.0648 -0.0207  0.2454
  444DPPI   C3B 6891   1.384  16.134   8.678  0.1304  0.1319 -0.0333
  444DPPI   C4B 6892   1.216  16.244   8.320  0.1255  0.0667 -0.0112
  445DPPI    C1 6893   9.774   6.028  10.953  0.0059 -0.0357 -0.1861
  445DPPI    C2 6894   9.934   6.128  10.600  0.0865  0.0733 -0.1190
  445DPPI    C3 6895  10.154   6.153  10.934 -0.0552  0.1786 -0.0323
  445DPPI   PO4 6896   9.508   5.995  10.925  0.0091  0.1165  0.2314
  445DPPI   GL1 6897   9.395   6.147  10.578 -0.0511 -0.4939 -0.0397
  445DPPI   GL2 6898   9.592   5.960  10.329  0.1449 -0.4106  0.3265
  445DPPI   C1A 6899   9.033   6.155  10.313  0.1092  0.1574 -0.3803
  445DPPI   C2A 6900   8.999   5.980   9.971 -0.0381  0.2488 -0.0328
  445DPPI   C3A 6901   8.888   5.927   9.641 -0.0379  0.0570  0.1608
  445DPPI   C4A 6902   8.779   5.938   9.254  0.1135 -0.0266 -0.0341
  445DPPI   C1B 6903   9.436   6.236   9.932 -0.0532 -0.0803 -0.0364
  445DPPI   C2B 6904   9.234   6.278   9.557  0.1314  0.4716  0.1684
  445DPPI   C3B 6905   9.282   6.393   9.155 -0.4107 -0.1560  0.2382
  445DPPI   C4B 6906   9.420   6.372   8.769  0.1833  0.2207  0.1222
  446DPPI    C1 6907   4.119   6.508  10.924  0.2132 -0.1722 -0.2361
  446DPPI    C2 6908   3.774   6.323  10.844  0.0916 -0.0049 -0.1081
  446DPPI    C3 6909   3.861   6.428  11.220  0.3077 -0.0947 -0.1316
  446DPPI   PO4 6910   4.296   6.344  10.822  0.0947  0.1835 -0.0370
  446DPPI   GL1 6911   4.589   6.448  10.492 -0.1765  0.2262  0.1906
  446DPPI   GL2 6912   4.792   6.183  10.423  0.2627  0.2128  0.0965
  446DPPI   C1A 6913   4.448   6.477  10.074 -0.0104 -0.1836 -0.1460
  446DPPI   C2A 6914   4.448   6.512   9.665  0.0122 -0.1734  0.1049
  446DPPI   C3A 6915   4.524   6.413   9.259 -0.2402 -0.1600 -0.2586
  446DPPI   C4A 6916   4.315   6.256   8.881 -0.0660  0.2839 -0.1137
  446DPPI   C1B 6917   4.777   6.073   9.974  0.0802 -0.1361 -0.0202
  446DPPI   C2B 6918   4.608   6.052   9.573 -0.2275  0.1424  0.0225
  446DPPI   C3B 6919   4.219   6.081   9.611 -0.0681 -0.1618  0.0969
  446DPPI   C4B 6920   3.802   6.114   9.620  0.0695 -0.1400  0.0113
  447DPPI    C1 6921   1.016   5.131  10.758 -0.0162  0.1419  0.1770
  447DPPI    C2 6922   0.995   5.493  10.588 -0.0077  0.0256 -0.0768
  447DPPI    C3 6923   1.328   5.381  10.781 -0.0243  0.1657  0.0347
  447DPPI   PO4 6924   0.877   4.866  10.608 -0.0763  0.0319 -0.1801
  447DPPI   GL1 6925   0.738   5.085  10.363  0.1951 -0.1912  0.2250
  447DPPI   GL2 6926   0.651   5.376  10.222  0.2403 -0.3215 -0.0427
  447DPPI   C1A 6927   0.771   5.071   9.892 -0.0559  0.1347  0.0631
  447DPPI   C2A 6928   0.787   5.112   9.429 -0.0136 -0.0387  0.2169
  447DPPI   C3A 6929   1.087   4.951   9.146  0.0384  0.0151  0.1564
  447DPPI   C4A 6930   1.430   5.190   8.973  0.1029  0.1387 -0.0847
  447DPPI   C1B 6931   0.473   5.462   9.766 -0.1589 -0.1375  0.1257
  447DPPI   C2B 6932   0.535   5.496   9.280  0.0981 -0.1185 -0.0701
  447DPPI   C3B 6933   0.697   5.285   8.966 -0.0043 -0.1117  0.1146
  447DPPI   C4B 6934   1.014   5.164   8.576  0.1480 -0.1649 -0.1276
  448DPPI    C1 6935   0.015  17.839  10.683 -0.0903  0.2452  0.0352
  448DPPI    C2 6936  -0.202  17.592  10.911  0.0945  0.0381 -0.0097
  448DPPI    C3 6937  -0.296  17.981  10.891 -0.1629 -0.0158  0.1079
  448DPPI   PO4 6938  -0.010  17.680  10.437 -0.3824 -0.0479 -0.3322
  448DPPI   GL1 6939  -0.111  17.693  10.097  0.1122  0.0518 -0.0988
  448DPPI   GL2 6940  -0.270  17.943   9.978  0.6997 -0.0557 -0.0971
  448DPPI   C1A 6941   0.029  17.562   9.605 -0.1075  0.1218  0.0809
  448DPPI   C2A 6942   0.064  17.669   9.191  0.1457 -0.0860  0.0217
  448DPPI   C3A 6943   0.090  17.564   8.723  0.1238 -0.0706  0.0623
  448DPPI   C4A 6944   0.178  17.349   8.437  0.3739 -0.1390 -0.0529
  448DPPI   C1B 6945  -0.241  17.974   9.540 -0.0713 -0.0370 -0.0519
  448DPPI   C2B 6946  -0.256  18.012   9.109  0.1420 -0.2537  0.1607
  448DPPI   C3B 6947  -0.312  18.105   8.758  0.0391  0.1959  0.0969
  448DPPI   C4B 6948  -0.245  17.846   8.437  0.0288 -0.0573  0.0013
  449DPPI    C1 6949  16.190   7.178  10.987 -0.0408 -0.1071  0.1760
  449DPPI    C2 6950  15.910   7.256  10.714 -0.0025 -0.0226  0.1607
  449DPPI    C3 6951  15.831   7.311  11.102 -0.0643 -0.1636  0.1689
  449DPPI   PO4 6952  16.424   7.104  10.768  0.2271 -0.0534  0.1350
  449DPPI   GL1 6953  16.647   7.102  10.425  0.0447 -0.1905  0.0513
  449DPPI   GL2 6954  16.587   6.910  10.180 -0.1081  0.0120 -0.1017
  449DPPI   C1A 6955  16.794   7.307  10.024 -0.2544  0.0436  0.2368
  449DPPI   C2A 6956  16.984   7.424   9.685 -0.1533  0.0576  0.1108
  449DPPI   C3A 6957  17.147   7.512   9.326 -0.0211  0.1777  0.1320
  449DPPI   C4A 6958  17.326   7.626   8.934  0.0501  0.1237  0.1225
  449DPPI   C1B 6959  16.509   7.020   9.807 -0.1771  0.1606  0.3299
  449DPPI   C2B 6960  16.343   6.870   9.386 -0.0496 -0.2266 -0.1955
  449DPPI   C3B 6961  16.411   6.800   8.969  0.2261 -0.0889 -0.0641
  449DPPI   C4B 6962  16.437   6.482   8.720 -0.2041  0.2099 -0.0206
  450DPPI    C1 6963   9.900  13.167  11.279  0.2265  0.3000  0.0858
  450DPPI    C2 6964  10.045  13.402  11.569 -0.1569  0.4978  0.1228
  450DPPI    C3 6965   9.683  13.235  11.608  0.0195  0.0715  0.0001
  450DPPI   PO4 6966  10.084  13.361  10.921  0.1400  0.0973  0.1505
  450DPPI   GL1 6967   9.761  13.340  10.583  0.1095  0.1385 -0.1756
  450DPPI   GL2 6968   9.612  13.032  10.663  0.1024 -0.1684  0.0020
  450DPPI   C1A 6969   9.805  13.479  10.219 -0.3014 -0.3556 -0.2448
  450DPPI   C2A 6970   9.881  13.657   9.862 -0.0618 -0.0910  0.1076
  450DPPI   C3A 6971   9.931  13.644   9.482  0.0001  0.0881  0.2031
  450DPPI   C4A 6972   9.775  13.509   9.146  0.1673  0.1766 -0.0482
  450DPPI   C1B 6973   9.495  13.101  10.193  0.2464  0.2766  0.1923
  450DPPI   C2B 6974   9.470  13.354   9.771  0.1091  0.0063 -0.1876
  450DPPI   C3B 6975   9.335  13.309   9.376  0.0933 -0.0266  0.2077
  450DPPI   C4B 6976   9.344  12.942   9.151  0.2151 -0.3517  0.1063
  451DPPI    C1 6977   3.900   3.460  10.633  0.2070 -0.1945 -0.0962
  451DPPI    C2 6978   3.750   3.161  10.852 -0.0639  0.0911  0.1189
  451DPPI    C3 6979   3.854   3.504  11.028  0.2490  0.1265 -0.1244
  451DPPI   PO4 6980   4.072   3.413  10.476  0.1482 -0.2137  0.3175
  451DPPI   GL1 6981   4.280   3.246  10.208 -0.3067 -0.1456 -0.1122
  451DPPI   GL2 6982   4.367   2.902  10.148  0.1427 -0.3361  0.2866
  451DPPI   C1A 6983   4.310   3.218   9.811  0.2062  0.1893  0.0387
  451DPPI   C2A 6984   4.243   3.205   9.418 -0.0324  0.1993 -0.2092
  451DPPI   C3A 6985   4.248   3.205   9.079 -0.1629  0.0419 -0.1636
  451DPPI   C4A 6986   4.021   3.101   8.726 -0.0334  0.0596  0.1928
  451DPPI   C1B 6987   4.320   2.769   9.671 -0.1027  0.4487 -0.1842
  451DPPI   C2B 6988   4.334   2.762   9.220  0.0642 -0.0716 -0.1778
  451DPPI   C3B 6989   4.278   2.694   8.728 -0.0941  0.1323  0.0116
  451DPPI   C4B 6990   4.625   2.589   8.460 -0.0547 -0.1401  0.1949
  452DPPI    C1 6991   9.785   9.273  10.906 -0.1927 -0.1024  0.2030
  452DPPI    C2 6992   9.804   9.172  11.293 -0.0049  0.1334  0.2578
  452DPPI    C3 6993  10.121   9.338  11.114 -0.1238  0.1161  0.0273
  452DPPI   PO4 6994   9.627   9.511  10.750 -0.0521 -0.0377  0.2442
  452DPPI   GL1 6995   9.830   9.796  10.432  0.4498 -0.1596  0.0586
  452DPPI   GL2 6996   9.622   9.924  10.360  0.0967 -0.1942  0.4411
  452DPPI   C1A 6997   9.772   9.414  10.092 -0.3672  0.0154 -0.0473
  452DPPI   C2A 6998   9.824   9.486   9.627  0.0853 -0.1620 -0.4187
  452DPPI   C3A 6999   9.706   9.674   9.250  0.3590 -0.0614  0.1116
  452DPPI   C4A 7000   9.908   9.859   8.806  0.1303  0.0539  0.1972
  452DPPI   C1B 7001   9.802   9.861   9.922  0.0647  0.1402  0.0084
  452DPPI   C2B 7002  10.164   9.864   9.699  0.1319 -0.0098 -0.2667
  452DPPI   C3B 7003  10.357  10.266   9.408 -0.3134 -0.0429  0.0126
  452DPPI   C4B 7004  10.599  10.363   9.055 -0.2267  0.0653 -0.1845
  453DPPI    C1 7005  10.445  17.296  10.721  0.3082  0.1540  0.1048
  453DPPI    C2 7006  10.699  17.059  10.919  0.2520  0.1319  0.1509
  453DPPI    C3 7007  10.625  17.428  11.053  0.4622  0.2348 -0.0091
  453DPPI   PO4 7008  10.141  17.115  10.670 -0.2215  0.0883  0.0592
  453DPPI   GL1 7009   9.780  16.979  10.392  0.0149 -0.1376 -0.0709
  453DPPI   GL2 7010   9.433  16.885  10.155  0.2975  0.3587  0.0994
  453DPPI   C1A 7011   9.836  16.662  10.085  0.0974 -0.3386 -0.2060
  453DPPI   C2A 7012   9.690  16.545   9.627 -0.2292 -0.2108  0.2440
  453DPPI   C3A 7013   9.608  16.388   9.247 -0.0544 -0.1256  0.2405
  453DPPI   C4A 7014   9.877  16.195   8.940  0.4890  0.3245  0.0432
  453DPPI   C1B 7015   9.445  17.008   9.754  0.1953 -0.3616 -0.4587
  453DPPI   C2B 7016   9.440  16.930   9.362 -0.1414  0.1654  0.3241
  453DPPI   C3B 7017   9.411  16.732   8.912 -0.1547 -0.0772  0.0579
  453DPPI   C4B 7018   9.489  16.467   8.618 -0.1880  0.1600  0.3815
  454DPPI    C1 7019  12.594   0.044  10.237  0.0346  0.1474 -0.0403
  454DPPI    C2 7020  12.595  -0.350  10.169  0.1121  0.1035  0.2057
  454DPPI    C3 7021  12.277  -0.178  10.340  0.1002  0.1390  0.1481
  454DPPI   PO4 7022  12.645   0.139   9.991  0.1106  0.0779 -0.2113
  454DPPI   GL1 7023  12.701   0.305   9.661  0.2170  0.0116 -0.2429
  454DPPI   GL2 7024  12.553   0.612   9.718  0.1960 -0.0375 -0.0335
  454DPPI   C1A 7025  12.685   0.201   9.329 -0.1469  0.0779  0.1763
  454DPPI   C2A 7026  12.814   0.149   8.864  0.2651 -0.0760 -0.0928
  454DPPI   C3A 7027  12.588  -0.073   8.439  0.0431 -0.0406  0.2076
  454DPPI   C4A 7028  12.451  -0.509   8.340 -0.1780 -0.0799  0.3115
  454DPPI   C1B 7029  12.545   0.673   9.317  0.1776  0.1848  0.0993
  454DPPI   C2B 7030  12.516   0.561   8.880  0.1075  0.0051 -0.2868
  454DPPI   C3B 7031  12.581   0.440   8.410 -0.4238  0.0717 -0.0871
  454DPPI   C4B 7032  12.592   0.503   7.971  0.2234 -0.1094  0.3046
  455DPPI    C1 7033   0.778   3.878  10.767  0.1154 -0.1064  0.0421
  455DPPI    C2 7034   0.777   3.482  10.823  0.3430 -0.0710  0.3172
  455DPPI    C3 7035   1.124   3.677  10.784  0.2266  0.0818  0.0237
  455DPPI   PO4 7036   0.482   3.889  10.719 -0.1666  0.0823  0.1772
  455DPPI   GL1 7037   0.394   3.560  10.512  0.0077 -0.0060  0.3040
  455DPPI   GL2 7038   0.251   3.671  10.311 -0.1509  0.0067  0.0998
  455DPPI   C1A 7039   0.530   3.206  10.223 -0.0979 -0.0426 -0.1419
  455DPPI   C2A 7040   0.345   2.959   9.983  0.1429  0.2532 -0.1819
  455DPPI   C3A 7041   0.097   3.007   9.575 -0.3085  0.1823 -0.1089
  455DPPI   C4A 7042   0.187   3.148   9.192  0.1385  0.2270 -0.1246
  455DPPI   C1B 7043   0.163   3.446   9.947 -0.0391  0.2347 -0.0467
  455DPPI   C2B 7044  -0.019   3.497   9.531 -0.1893 -0.0936  0.0827
  455DPPI   C3B 7045  -0.117   3.604   9.088  0.4295  0.1937  0.1622
  455DPPI   C4B 7046  -0.156   3.500   8.663 -0.0603 -0.0405 -0.4036
  456DPPI    C1 7047  10.110   2.096  10.790 -0.2344  0.1463 -0.0943
  456DPPI    C2 7048   9.836   1.805  10.776 -0.0947 -0.0010  0.1540
  456DPPI    C3 7049   9.837   2.064  11.081 -0.1076  0.1511  0.0263
  456DPPI   PO4 7050  10.305   1.990  10.674 -0.0868 -0.2365  0.0466
  456DPPI   GL1 7051  10.413   1.791  10.391 -0.1071 -0.3280 -0.2529
  456DPPI   GL2 7052  10.590   1.580  10.258  0.0430  0.1273  0.1249
  456DPPI   C1A 7053  10.243   1.972   9.964  0.1383  0.0078 -0.1970
  456DPPI   C2A 7054  10.169   1.867   9.566  0.2592  0.0319 -0.0030
  456DPPI   C3A 7055  10.031   1.928   9.040  0.0826 -0.1443  0.1109
  456DPPI   C4A 7056  10.074   1.837   8.543  0.0352 -0.1770  0.1560
  456DPPI   C1B 7057  10.455   1.488   9.813  0.1279 -0.0534 -0.2887
  456DPPI   C2B 7058  10.435   1.563   9.347 -0.0503  0.1727  0.0621
  456DPPI   C3B 7059  10.275   1.473   8.884  0.2254  0.2120 -0.1215
  456DPPI   C4B 7060  10.520   1.660   8.454 -0.0857 -0.1363  0.0638
  457DPPI    C1 7061   9.574   3.613  10.830 -0.0442 -0.2451  0.0064
  457DPPI    C2 7062   9.793   3.381  11.071 -0.0215 -0.0153  0.2103
  457DPPI    C3 7063   9.518   3.627  11.225 -0.0700  0.0684 -0.0060
  457DPPI   PO4 7064   9.626   3.509  10.599  0.1866  0.2398  0.0722
  457DPPI   GL1 7065   9.402   3.441  10.227 -0.1501  0.0542  0.2245
  457DPPI   GL2 7066   9.647   3.702  10.091 -0.0740  0.0774  0.0645
  457DPPI   C1A 7067   9.380   3.387   9.786  0.2755  0.2443 -0.1456
  457DPPI   C2A 7068   9.322   3.442   9.299  0.1160 -0.3646 -0.0256
  457DPPI   C3A 7069   8.906   3.529   9.048  0.1419  0.0702  0.0177
  457DPPI   C4A 7070   8.740   3.687   8.681  0.2273 -0.1493  0.1366
  457DPPI   C1B 7071   9.819   3.713   9.674  0.3485 -0.1339 -0.1483
  457DPPI   C2B 7072   9.705   3.697   9.285  0.0793 -0.1954  0.1179
  457DPPI   C3B 7073   9.585   3.604   8.794  0.1068 -0.0282  0.2842
  457DPPI   C4B 7074   9.635   3.833   8.428 -0.0141 -0.1791 -0.1844
  458DPPI    C1 7075   9.864   6.511  10.873  0.1325 -0.3121  0.1618
  458DPPI    C2 7076   9.663   6.722  11.147 -0.3113 -0.3314 -0.1368
  458DPPI    C3 7077   9.950   6.468  11.261 -0.3648 -0.2083  0.2913
  458DPPI   PO4 7078   9.690   6.540  10.589  0.2468  0.1740 -0.1618
  458DPPI   GL1 7079   9.776   6.474  10.179  0.0652 -0.1446 -0.2558
  458DPPI   GL2 7080  10.027   6.299  10.155  0.1884  0.0412 -0.1429
  458DPPI   C1A 7081   9.685   6.711   9.783 -0.4088 -0.1540 -0.1286
  458DPPI   C2A 7082   9.604   6.748   9.365 -0.2323 -0.1023 -0.3256
  458DPPI   C3A 7083   9.812   6.579   8.953  0.3325  0.4038 -0.2843
  458DPPI   C4A 7084   9.842   6.503   8.523 -0.0592 -0.0639 -0.1440
  458DPPI   C1B 7085   9.916   6.207   9.736 -0.0606  0.1924 -0.0959
  458DPPI   C2B 7086   9.713   6.161   9.291 -0.3308 -0.1288  0.1322
  458DPPI   C3B 7087   9.759   6.044   8.985  0.0097 -0.0851  0.2718
  458DPPI   C4B 7088   9.680   6.016   8.542 -0.2144 -0.0792  0.0800
  459DPPI    C1 7089   8.529  17.114  11.118 -0.0043 -0.0354  0.0283
  459DPPI    C2 7090   8.474  16.849  11.413 -0.0349 -0.1265 -0.0588
  459DPPI    C3 7091   8.844  16.936  11.289 -0.0210 -0.0745  0.0183
  459DPPI   PO4 7092   8.447  17.040  10.955  0.1701 -0.0528  0.0331
  459DPPI   GL1 7093   8.516  16.953  10.494  0.1058  0.1218  0.1819
  459DPPI   GL2 7094   8.588  17.200  10.234 -0.0588  0.1734 -0.0224
  459DPPI   C1A 7095   8.182  16.831  10.235  0.1720 -0.0392 -0.3948
  459DPPI   C2A 7096   7.952  16.773   9.734 -0.6449  0.0460 -0.1746
  459DPPI   C3A 7097   8.038  16.703   9.239 -0.1069 -0.6012 -0.0385
  459DPPI   C4A 7098   8.098  16.801   8.760 -0.0248  0.1032 -0.5030
  459DPPI   C1B 7099   8.475  17.222   9.815  0.0041  0.1813 -0.1182
  459DPPI   C2B 7100   8.290  17.047   9.551 -0.2672 -0.2149 -0.0271
  459DPPI   C3B 7101   8.466  17.065   9.105  0.2221  0.1171 -0.2412
  459DPPI   C4B 7102   8.418  17.140   8.671 -0.0478  0.1030 -0.3636
  460DPPI    C1 7103  17.356   7.008  10.931  0.0095  0.0103 -0.1325
  460DPPI    C2 7104  16.989   7.142  10.842  0.0640  0.1392 -0.1650
  460DPPI    C3 7105  17.124   7.164  11.218  0.0894  0.2170 -0.1785
  460DPPI   PO4 7106  17.558   7.160  10.784  0.0906 -0.0805 -0.3346
  460DPPI   GL1 7107  17.819   7.261  10.363  0.1431 -0.0165 -0.1836
  460DPPI   GL2 7108  17.848   7.540  10.241 -0.3117  0.1891 -0.0624
  460DPPI   C1A 7109  17.816   6.969  10.058  0.0168  0.0363  0.1471
  460DPPI   C2A 7110  18.220   6.914   9.746 -0.0209  0.0439 -0.1448
  460DPPI   C3A 7111  18.397   6.906   9.341  0.1417 -0.0852  0.1316
  460DPPI   C4A 7112  18.409   6.842   8.821  0.0091 -0.6644  0.0562
  460DPPI   C1B 7113  17.982   7.407   9.912 -0.0714 -0.1451  0.1887
  460DPPI   C2B 7114  17.974   7.232   9.486  0.2641 -0.1203 -0.1082
  460DPPI   C3B 7115  17.794   7.282   9.072  0.0383  0.0576  0.1054
  460DPPI   C4B 7116  18.075   7.390   8.742  0.2033 -0.0197  0.1456
  461DPPI    C1 7117   9.128  15.869  10.910 -0.0277 -0.1330  0.1027
  461DPPI    C2 7118   9.138  16.145  11.199 -0.2698  0.0482 -0.0578
  461DPPI    C3 7119   9.196  15.759  11.288  0.0915  0.1492  0.1660
  461DPPI   PO4 7120   9.311  15.986  10.770  0.1068 -0.1150 -0.0215
  461DPPI   GL1 7121   9.564  15.871  10.440  0.2013 -0.0437  0.3954
  461DPPI   GL2 7122   9.340  15.813  10.264 -0.1923  0.1140 -0.0661
  461DPPI   C1A 7123   9.888  15.784  10.204  0.2018 -0.1705 -0.1425
  461DPPI   C2A 7124  10.067  15.623   9.841  0.1017  0.3285  0.1637
  461DPPI   C3A 7125  10.231  15.513   9.453  0.0049  0.3092  0.1724
  461DPPI   C4A 7126  10.456  15.465   9.033 -0.0306  0.2930  0.2959
  461DPPI   C1B 7127   9.477  15.548   9.914 -0.0670 -0.0322  0.2178
  461DPPI   C2B 7128   9.454  15.351   9.687  0.2006 -0.0526  0.0029
  461DPPI   C3B 7129   9.259  15.099   9.368  0.0376 -0.0698  0.2082
  461DPPI   C4B 7130   9.067  14.991   8.947  0.0897 -0.3333  0.0465
  462DPPI    C1 7131  10.162  12.414  11.161  0.3020  0.0228  0.0366
  462DPPI    C2 7132  10.187  12.305  11.545 -0.0222  0.3231  0.1487
  462DPPI    C3 7133  10.068  12.674  11.450 -0.2495  0.1537 -0.2479
  462DPPI   PO4 7134  10.004  12.151  11.006 -0.1031  0.2246  0.0495
  462DPPI   GL1 7135   9.954  12.056  10.511  0.2023 -0.2064 -0.0192
  462DPPI   GL2 7136   9.609  12.015  10.435 -0.0638  0.0315  0.0043
  462DPPI   C1A 7137  10.116  11.935  10.087  0.1768  0.0678  0.2243
  462DPPI   C2A 7138  10.173  11.845   9.659  0.1938  0.1660 -0.2056
  462DPPI   C3A 7139  10.069  11.801   9.266  0.0057 -0.2973 -0.0861
  462DPPI   C4A 7140   9.960  11.854   8.850 -0.2292 -0.0249  0.2151
  462DPPI   C1B 7141   9.587  11.889  10.111  0.0613  0.0508 -0.1273
  462DPPI   C2B 7142   9.659  11.993   9.755  0.2408 -0.0581 -0.0702
  462DPPI   C3B 7143   9.642  12.059   9.311  0.1432 -0.0224  0.0302
  462DPPI   C4B 7144   9.355  12.366   9.008  0.3329 -0.3395  0.1391
  463DPPI    C1 7145   5.852   9.588  10.578 -0.2570  0.2055 -0.2078
  463DPPI    C2 7146   5.522   9.491  10.783 -0.1448 -0.0419 -0.1404
  463DPPI    C3 7147   5.875   9.332  10.885 -0.0345  0.0798 -0.3268
  463DPPI   PO4 7148   5.892   9.830  10.563  0.2598  0.2055 -0.0272
  463DPPI   GL1 7149   5.939  10.136  10.213 -0.2712 -0.2288 -0.0337
  463DPPI   GL2 7150   5.570  10.152  10.294 -0.2535 -0.0982 -0.1699
  463DPPI   C1A 7151   6.056  10.300   9.816 -0.2858 -0.1364  0.0600
  463DPPI   C2A 7152   6.185  10.338   9.393  0.3760  0.0805  0.2340
  463DPPI   C3A 7153   6.177  10.150   9.045  0.3500 -0.2254 -0.3099
  463DPPI   C4A 7154   6.219   9.944   8.655  0.0455 -0.2401 -0.0469
  463DPPI   C1B 7155   5.542  10.386   9.940  0.1699  0.1618 -0.0229
  463DPPI   C2B 7156   5.414  10.720   9.735 -0.5490 -0.1697  0.0208
  463DPPI   C3B 7157   5.344  10.896   9.283  0.2516  0.0475  0.3258
  463DPPI   C4B 7158   5.282  10.833   8.860  0.1225  0.1681  0.2081
  464DPPI    C1 7159  14.656   0.269  10.472  0.4089  0.0433 -0.1633
  464DPPI    C2 7160  14.815   0.329  10.834  0.1515  0.1804 -0.0704
  464DPPI    C3 7161  14.588   0.006  10.766 -0.2648  0.4384  0.0563
  464DPPI   PO4 7162  14.880   0.343  10.297 -0.0418 -0.1171 -0.2712
  464DPPI   GL1 7163  14.979   0.167   9.875  0.0372 -0.1757  0.4275
  464DPPI   GL2 7164  15.256  -0.031   9.965  0.3130 -0.0326 -0.0214
  464DPPI   C1A 7165  14.981   0.147   9.462  0.1990  0.1336  0.0468
  464DPPI   C2A 7166  14.996   0.019   9.107  0.1403 -0.0544 -0.3430
  464DPPI   C3A 7167  15.274  -0.040   8.726  0.0499  0.2360  0.2664
  464DPPI   C4A 7168  15.334   0.092   8.326 -0.0879  0.0152  0.3382
  464DPPI   C1B 7169  15.550  -0.187   9.882 -0.0467 -0.1256  0.0929
  464DPPI   C2B 7170  15.839  -0.166   9.538 -0.0487  0.1384  0.0382
  464DPPI   C3B 7171  16.147  -0.210   9.127 -0.2963 -0.2262  0.3867
  464DPPI   C4B 7172  16.119  -0.203   8.742 -0.0419 -0.0520  0.1522
  465DPPI    C1 7173   5.961  13.458  10.970 -0.1683 -0.1815 -0.1299
  465DPPI    C2 7174   5.715  13.244  11.203 -0.1768  0.1959  0.2187
  465DPPI    C3 7175   6.092  13.310  11.318 -0.0706  0.0789 -0.0539
  465DPPI   PO4 7176   5.952  13.637  10.910 -0.0932  0.2344  0.0072
  465DPPI   GL1 7177   5.689  13.634  10.527  0.0640 -0.0706 -0.1242
  465DPPI   GL2 7178   5.959  13.867  10.490 -0.0703 -0.2046 -0.0298
  465DPPI   C1A 7179   5.536  13.472  10.159  0.4048  0.2960 -0.0551
  465DPPI   C2A 7180   5.516  13.601   9.736  0.2755  0.1712 -0.0051
  465DPPI   C3A 7181   5.662  13.599   9.362 -0.1348 -0.1208 -0.2315
  465DPPI   C4A 7182   5.739  13.444   8.923  0.2817 -0.0895 -0.2305
  465DPPI   C1B 7183   5.962  13.818  10.070 -0.1307 -0.1749  0.0177
  465DPPI   C2B 7184   6.065  13.726   9.642 -0.0232  0.0192 -0.0545
  465DPPI   C3B 7185   6.266  13.728   9.319 -0.2675  0.2805 -0.0104
  465DPPI   C4B 7186   6.487  13.560   8.973 -0.0213 -0.2243 -0.2270
  466DPPI    C1 7187   3.439   9.321  10.870  0.0427  0.1625 -0.0564
  466DPPI    C2 7188   3.152   9.091  11.027  0.0345  0.1428 -0.1002
  466DPPI    C3 7189   3.070   9.467  10.917  0.0074  0.1142 -0.1794
  466DPPI   PO4 7190   3.615   9.162  10.742 -0.1549 -0.3041 -0.1979
  466DPPI   GL1 7191   3.788   9.091  10.370  0.3481  0.1045  0.3077
  466DPPI   GL2 7192   3.552   9.049  10.200 -0.0202 -0.0692  0.0128
  466DPPI   C1A 7193   4.094   8.958  10.026  0.0845  0.1106  0.0785
  466DPPI   C2A 7194   4.319   8.934   9.562 -0.1151 -0.1221 -0.0324
  466DPPI   C3A 7195   4.596   8.933   9.243 -0.1598 -0.0540  0.0666
  466DPPI   C4A 7196   4.805   9.083   8.900  0.0196  0.0712  0.0844
  466DPPI   C1B 7197   3.620   8.949   9.795 -0.0139 -0.0230  0.0176
  466DPPI   C2B 7198   3.819   8.874   9.330  0.1362 -0.0004  0.0917
  466DPPI   C3B 7199   3.758   8.732   8.936 -0.1876  0.0913  0.1900
  466DPPI   C4B 7200   3.834   8.956   8.580  0.1433  0.2808 -0.1906
  467DPPI    C1 7201  14.789  13.973  10.653  0.0944  0.0904 -0.1490
  467DPPI    C2 7202  14.476  14.023  10.409 -0.1917 -0.1631  0.1560
  467DPPI    C3 7203  14.515  14.253  10.734 -0.1500 -0.2415  0.2069
  467DPPI   PO4 7204  14.868  13.695  10.483 -0.0110 -0.0545 -0.2886
  467DPPI   GL1 7205  14.831  13.523  10.030 -0.1246  0.1027  0.2348
  467DPPI   GL2 7206  14.887  13.126   9.914  0.0075 -0.1405  0.0222
  467DPPI   C1A 7207  15.044  13.433   9.559 -0.1232  0.2659  0.0284
  467DPPI   C2A 7208  15.088  13.428   9.048 -0.2315  0.1238 -0.0802
  467DPPI   C3A 7209  15.194  13.416   8.653 -0.2130 -0.1085 -0.3241
  467DPPI   C4A 7210  15.339  13.583   8.223 -0.0280  0.0195 -0.2507
  467DPPI   C1B 7211  15.219  12.972   9.701  0.0775  0.3168 -0.3158
  467DPPI   C2B 7212  15.249  13.011   9.282  0.0790 -0.0387  0.4888
  467DPPI   C3B 7213  15.434  12.758   8.980  0.1013  0.1823  0.2981
  467DPPI   C4B 7214  15.311  12.489   8.550 -0.1045 -0.0238 -0.0530
  468DPPI    C1 7215  13.660  10.696  10.980 -0.1256 -0.1585 -0.0973
  468DPPI    C2 7216  13.792  10.373  10.786  0.1293 -0.1047 -0.0176
  468DPPI    C3 7217  14.053  10.625  10.955 -0.0841 -0.1061  0.3232
  468DPPI   PO4 7218  13.427  10.801  10.704  0.3613  0.3567  0.0391
  468DPPI   GL1 7219  13.097  10.542  10.518 -0.0567 -0.1700 -0.1785
  468DPPI   GL2 7220  12.996  10.253  10.506 -0.3150  0.2585 -0.1308
  468DPPI   C1A 7221  12.998  10.561  10.113  0.0454  0.0881  0.2018
  468DPPI   C2A 7222  12.922  10.666   9.693  0.1015 -0.0589 -0.4471
  468DPPI   C3A 7223  12.897  10.773   9.213 -0.0374 -0.2649  0.3010
  468DPPI   C4A 7224  12.865  10.801   8.698 -0.1586 -0.3622  0.2465
  468DPPI   C1B 7225  13.136  10.091  10.107  0.0570  0.1781  0.0451
  468DPPI   C2B 7226  13.158  10.148   9.662  0.1785  0.5005 -0.0120
  468DPPI   C3B 7227  13.154  10.058   9.227  0.0565  0.2606  0.2614
  468DPPI   C4B 7228  13.407  10.188   8.993 -0.5599 -0.0654  0.1362
  469DPPI    C1 7229  11.234  13.516  10.978 -0.0704  0.1391 -0.0534
  469DPPI    C2 7230  10.931  13.453  11.231 -0.0649 -0.0571 -0.0948
  469DPPI    C3 7231  11.239  13.682  11.342  0.0525 -0.3362  0.1680
  469DPPI   PO4 7232  11.091  13.506  10.739  0.0157 -0.2330 -0.1580
  469DPPI   GL1 7233  11.300  13.332  10.307  0.1764 -0.0882  0.1726
  469DPPI   GL2 7234  11.145  13.612  10.230 -0.0163 -0.0160 -0.2516
  469DPPI   C1A 7235  11.167  13.136   9.990  0.0133  0.3414 -0.1105
  469DPPI   C2A 7236  10.828  13.005   9.773 -0.0976  0.0648 -0.0518
  469DPPI   C3A 7237  10.697  13.003   9.378  0.1319  0.3246  0.1173
  469DPPI   C4A 7238  10.550  13.059   8.921 -0.1289 -0.2200  0.1154
  469DPPI   C1B 7239  11.205  13.656   9.786 -0.1557 -0.1415 -0.1160
  469DPPI   C2B 7240  11.213  13.797   9.435 -0.1440 -0.1507 -0.0847
  469DPPI   C3B 7241  11.184  13.682   8.948  0.2695 -0.3751 -0.0525
  469DPPI   C4B 7242  11.178  13.808   8.549 -0.2220  0.0528  0.1494
  470DPPI    C1 7243  12.023   7.247  10.455 -0.0783 -0.1256  0.2218
  470DPPI    C2 7244  12.214   7.589  10.537  0.0573 -0.1792  0.1327
  470DPPI    C3 7245  11.833   7.541  10.648 -0.0078  0.0579  0.0160
  470DPPI   PO4 7246  12.044   7.259  10.121 -0.0083 -0.1018  0.1327
  470DPPI   GL1 7247  12.160   7.511   9.801  0.2122  0.0515  0.1025
  470DPPI   GL2 7248  12.421   7.387   9.654 -0.2005 -0.2209 -0.1096
  470DPPI   C1A 7249  11.996   7.270   9.450  0.1171 -0.0528 -0.0936
  470DPPI   C2A 7250  12.147   7.282   9.029  0.1863  0.3427  0.3424
  470DPPI   C3A 7251  12.188   7.236   8.567 -0.1284  0.0988 -0.0430
  470DPPI   C4A 7252  11.963   7.125   8.063 -0.4166  0.0171  0.1439
  470DPPI   C1B 7253  12.563   7.373   9.289 -0.1965  0.1435  0.1941
  470DPPI   C2B 7254  12.750   7.333   8.942 -0.0945 -0.1397  0.2651
  470DPPI   C3B 7255  12.952   7.387   8.476  0.0396 -0.1529 -0.0809
  470DPPI   C4B 7256  13.087   7.098   8.174 -0.3428 -0.2023  0.1631
  471DPPI    C1 7257  10.609  15.278  10.704 -0.0628  0.0399  0.1395
  471DPPI    C2 7258  10.661  15.665  10.789  0.1376  0.0462 -0.0037
  471DPPI    C3 7259  10.934  15.397  10.906  0.2008  0.0006 -0.2509
  471DPPI   PO4 7260  10.597  15.273  10.416  0.2187  0.0406  0.0827
  471DPPI   GL1 7261  10.469  15.213  10.025 -0.0276 -0.2331  0.1674
  471DPPI   GL2 7262  10.211  15.099   9.842  0.1984 -0.2352  0.1126
  471DPPI   C1A 7263  10.674  15.433   9.655  0.3617  0.4553  0.2534
  471DPPI   C2A 7264  10.823  15.264   9.261 -0.3224  0.1278  0.2293
  471DPPI   C3A 7265  10.910  14.906   8.829  0.0606 -0.0877 -0.0588
  471DPPI   C4A 7266  10.807  14.824   8.400  0.0249  0.1149  0.2908
  471DPPI   C1B 7267  10.385  15.073   9.451  0.0062 -0.2106  0.0735
  471DPPI   C2B 7268  10.494  14.937   9.052  0.1930  0.1128 -0.0771
  471DPPI   C3B 7269  10.242  15.110   8.599  0.0739  0.3059 -0.1663
  471DPPI   C4B 7270  10.388  15.215   8.153  0.0924  0.1245 -0.0319
  472DPPI    C1 7271   2.077   0.352  10.617  0.1458 -0.0680  0.0049
  472DPPI    C2 7272   2.059   0.235  11.000  0.0036  0.1268  0.0595
  472DPPI    C3 7273   2.230  -0.001  10.726 -0.2531 -0.1958  0.1713
  472DPPI   PO4 7274   1.803   0.394  10.592  0.0805 -0.3859 -0.2160
  472DPPI   GL1 7275   1.534   0.301  10.314 -0.0650 -0.1362 -0.2150
  472DPPI   GL2 7276   1.446   0.060  10.306 -0.1283  0.1414 -0.0234
  472DPPI   C1A 7277   1.801   0.240   9.875 -0.1549 -0.1756  0.0252
  472DPPI   C2A 7278   1.885   0.172   9.407  0.1786  0.0638  0.2054
  472DPPI   C3A 7279   1.983   0.317   8.979 -0.1524 -0.0895  0.0819
  472DPPI   C4A 7280   2.212   0.444   8.605 -0.1369 -0.2611  0.1903
  472DPPI   C1B 7281   1.287   0.224   9.877  0.0402 -0.0268 -0.2069
  472DPPI   C2B 7282   1.431   0.469   9.512 -0.1312 -0.1055 -0.2726
  472DPPI   C3B 7283   1.593   0.642   9.132 -0.1020  0.2724 -0.0538
  472DPPI   C4B 7284   1.484   0.938   8.838  0.2265  0.2085 -0.0360
  473PYPI    C1 7285  11.939   6.545  10.740 -0.1277 -0.0822  0.0829
  473PYPI    C2 7286  12.176   6.867  10.748 -0.1965 -0.0307  0.0567
  473PYPI    C3 7287  12.127   6.647  11.078  0.0711 -0.1764  0.0027
  473PYPI   PO4 7288  11.922   6.445  10.561 -0.4358 -0.0686 -0.1662
  473PYPI   GL1 7289  11.723   6.405  10.208 -0.0486  0.0923  0.1695
  473PYPI   GL2 7290  11.541   6.060  10.156 -0.2183  0.1010 -0.0373
  473PYPI   C1A 7291  11.556   6.399   9.706 -0.0989  0.2876 -0.0216
  473PYPI   C2A 7292  11.500   6.245   9.249 -0.2693  0.1214  0.0205
  473PYPI   D3A 7293  11.456   6.216   8.802  0.0907  0.1875 -0.3231
  473PYPI   C4A 7294  11.512   5.932   8.434  0.1050  0.1088 -0.2378
  473PYPI   C1B 7295  11.368   5.935   9.725 -0.2470 -0.2602  0.1796
  473PYPI   C2B 7296  11.343   5.795   9.304 -0.1173  0.1786 -0.1314
  473PYPI   C3B 7297  11.549   5.732   9.001  0.0842 -0.1725  0.2247
  473PYPI   C4B 7298  11.502   5.428   8.701  0.1364 -0.0430 -0.1271
  474PYPI    C1 7299   9.970  10.270  10.943 -0.1681 -0.1629 -0.2632
  474PYPI    C2 7300  10.001   9.872  10.971  0.1077 -0.1191  0.1562
  474PYPI    C3 7301  10.033  10.098  11.299  0.0311  0.2569 -0.0890
  474PYPI   PO4 7302   9.995  10.232  10.591  0.1210 -0.0830  0.1159
  474PYPI   GL1 7303  10.097  10.597  10.308  0.1112 -0.0781  0.1330
  474PYPI   GL2 7304   9.961  10.866  10.424  0.1256 -0.1006  0.0174
  474PYPI   C1A 7305  10.225  10.351   9.974 -0.2304  0.0025 -0.1608
  474PYPI   C2A 7306  10.568  10.128   9.898  0.0686 -0.3064  0.0600
  474PYPI   D3A 7307  10.642   9.873   9.557 -0.1400  0.1156 -0.1618
  474PYPI   C4A 7308  10.782   9.896   9.154  0.1242 -0.0525 -0.1930
  474PYPI   C1B 7309   9.957  10.960   9.978  0.3064  0.2318  0.0382
  474PYPI   C2B 7310   9.931  10.713   9.514  0.1718  0.2095 -0.1480
  474PYPI   C3B 7311   9.973  10.721   9.103  0.3297 -0.0119 -0.4093
  474PYPI   C4B 7312   9.829  10.780   8.674  0.1046 -0.2058 -0.2210
  475PYPI    C1 7313  14.207  17.007  10.594  0.0190  0.0431 -0.1673
  475PYPI    C2 7314  14.449  16.739  10.765 -0.0633  0.1331  0.0942
  475PYPI    C3 7315  14.120  16.863  10.957 -0.2320  0.1326 -0.1897
  475PYPI   PO4 7316  14.240  16.996  10.336  0.0367 -0.0920  0.2987
  475PYPI   GL1 7317  14.130  16.729   9.982  0.1203  0.1756  0.0108
  475PYPI   GL2 7318  14.038  17.079   9.889  0.1217 -0.0979 -0.2132
  475PYPI   C1A 7319  14.221  16.650   9.551  0.0263  0.0610  0.1561
  475PYPI   C2A 7320  14.155  16.564   9.076 -0.1066 -0.2390 -0.1021
  475PYPI   D3A 7321  13.910  16.453   8.749 -0.1912 -0.1759 -0.2033
  475PYPI   C4A 7322  14.015  16.453   8.289  0.0719  0.0140  0.1680
  475PYPI   C1B 7323  14.285  17.146   9.644  0.0522  0.0918 -0.1090
  475PYPI   C2B 7324  14.295  17.033   9.169  0.1982  0.1274 -0.2517
  475PYPI   C3B 7325  14.194  16.892   8.696 -0.0750 -0.3399  0.1273
  475PYPI   C4B 7326  14.281  16.880   8.329  0.2640  0.2769 -0.0480
  476PYPI    C1 7327  11.651  16.309  10.665  0.0445  0.0423  0.1118
  476PYPI    C2 7328  11.282  16.287  10.818  0.0393 -0.0431  0.0877
  476PYPI    C3 7329  11.486  16.630  10.837 -0.0386  0.0027  0.1072
  476PYPI   PO4 7330  11.637  16.178  10.424 -0.2228 -0.0334 -0.1021
  476PYPI   GL1 7331  11.816  16.119  10.093 -0.1517 -0.2055 -0.1331
  476PYPI   GL2 7332  12.093  16.427  10.130  0.2681  0.1238 -0.2641
  476PYPI   C1A 7333  11.733  15.962   9.675 -0.0385  0.3350  0.1218
  476PYPI   C2A 7334  11.596  15.959   9.200  0.2817  0.1103  0.1356
  476PYPI   D3A 7335  11.474  15.940   8.796 -0.0576 -0.2429 -0.0505
  476PYPI   C4A 7336  11.151  15.838   8.501  0.0306 -0.0674 -0.2209
  476PYPI   C1B 7337  12.185  16.333   9.708  0.0720 -0.1312  0.3400
  476PYPI   C2B 7338  12.095  16.093   9.395 -0.1259 -0.7434  0.0858
  476PYPI   C3B 7339  11.995  16.142   8.983 -0.2182  0.0588  0.0357
  476PYPI   C4B 7340  11.970  16.066   8.479 -0.0432  0.0025 -0.0440
  477PYPI    C1 7341   4.925  12.205  10.651 -0.0657  0.1256  0.0477
  477PYPI    C2 7342   4.834  12.467  10.939 -0.0156  0.1078  0.0799
  477PYPI    C3 7343   5.213  12.349  10.889 -0.0426  0.0173  0.0862
  477PYPI   PO4 7344   4.763  12.308  10.439 -0.2121 -0.1913 -0.1090
  477PYPI   GL1 7345   4.463  12.177  10.023 -0.5311 -0.2514  0.0535
  477PYPI   GL2 7346   4.450  11.796   9.990 -0.0056  0.0267  0.1520
  477PYPI   C1A 7347   4.103  12.007   9.639  0.0641 -0.0580 -0.0202
  477PYPI   C2A 7348   3.987  12.013   9.303 -0.1462 -0.0111 -0.2537
  477PYPI   D3A 7349   4.077  11.825   8.950  0.0090 -0.0237 -0.0330
  477PYPI   C4A 7350   4.032  11.490   8.680 -0.2625 -0.0491 -0.1098
  477PYPI   C1B 7351   4.612  11.939   9.588 -0.1537  0.0523 -0.0777
  477PYPI   C2B 7352   4.427  12.103   9.226  0.0132  0.0911  0.2022
  477PYPI   C3B 7353   4.540  11.979   8.808  0.2740  0.0237  0.0798
  477PYPI   C4B 7354   4.556  12.344   8.469 -0.0378  0.0336 -0.2770
  478PYPI    C1 7355  13.057  16.851  10.346 -0.1505  0.0583 -0.0046
  478PYPI    C2 7356  13.352  16.838  10.616 -0.0870  0.0757 -0.0728
  478PYPI    C3 7357  12.971  16.810  10.734 -0.0601  0.0970  0.0198
  478PYPI   PO4 7358  13.246  16.755  10.121 -0.0594  0.1695  0.0881
  478PYPI   GL1 7359  13.251  16.848   9.683 -0.0510  0.1069 -0.1597
  478PYPI   GL2 7360  13.591  16.986   9.824 -0.0610 -0.0480  0.1929
  478PYPI   C1A 7361  13.264  16.889   9.222  0.0349  0.1552  0.0341
  478PYPI   C2A 7362  13.224  16.948   8.792 -0.0079  0.0339  0.0795
  478PYPI   D3A 7363  13.089  16.855   8.442  0.1745  0.4297  0.1861
  478PYPI   C4A 7364  12.932  16.996   8.033 -0.0409 -0.0640  0.0812
  478PYPI   C1B 7365  13.809  17.011   9.390  0.0608  0.1451  0.0142
  478PYPI   C2B 7366  13.709  16.847   8.967 -0.1354 -0.0158  0.1068
  478PYPI   C3B 7367  13.728  16.864   8.509  0.2199  0.2606 -0.2092
  478PYPI   C4B 7368  13.522  16.590   8.260  0.2147 -0.1737 -0.0104
  479PYPI    C1 7369   8.974  17.852  10.947 -0.2759 -0.2696  0.1422
  479PYPI    C2 7370   8.745  18.103  10.736  0.2098 -0.1663 -0.2808
  479PYPI    C3 7371   8.969  18.242  11.037  0.0787 -0.1864 -0.1731
  479PYPI   PO4 7372   9.204  17.712  10.763 -0.2948  0.0774  0.0127
  479PYPI   GL1 7373   9.009  17.385  10.441 -0.0895  0.0992  0.0780
  479PYPI   GL2 7374   8.841  17.645  10.324 -0.0533  0.0206  0.0002
  479PYPI   C1A 7375   9.248  17.308  10.162  0.0261 -0.0246  0.1396
  479PYPI   C2A 7376   9.647  17.315  10.038 -0.0387 -0.2580 -0.1108
  479PYPI   D3A 7377  10.073  17.359  10.140 -0.1226 -0.0020 -0.2010
  479PYPI   C4A 7378  10.175  16.969  10.026 -0.3177  0.1790  0.1200
  479PYPI   C1B 7379   8.827  17.533   9.880  0.2141 -0.0439 -0.2306
  479PYPI   C2B 7380   8.671  17.469   9.466 -0.0508 -0.3095 -0.3216
  479PYPI   C3B 7381   8.801  17.459   9.262  0.0885  0.1124  0.3319
  479PYPI   C4B 7382   9.003  17.407   8.864 -0.1765  0.0910 -0.0273
  480PYPI    C1 7383   4.144   0.939  10.857  0.0422  0.1493 -0.0013
  480PYPI    C2 7384   4.004   1.313  10.841 -0.2642  0.0377  0.0115
  480PYPI    C3 7385   4.104   1.152  11.194  0.1970  0.2222 -0.0280
  480PYPI   PO4 7386   4.311   0.936  10.579  0.0010 -0.0105 -0.0692
  480PYPI   GL1 7387   4.468   0.702  10.303  0.0137  0.0467 -0.4056
  480PYPI   GL2 7388   4.704   0.488  10.295  0.1879 -0.3412 -0.3387
  480PYPI   C1A 7389   4.273   0.766   9.904 -0.3282  0.0734 -0.1705
  480PYPI   C2A 7390   4.180   0.838   9.523  0.2226 -0.1595  0.3809
  480PYPI   D3A 7391   4.321   0.773   9.052 -0.0409 -0.2890 -0.1087
  480PYPI   C4A 7392   4.685   0.575   8.806  0.2084 -0.0015 -0.2263
  480PYPI   C1B 7393   4.545   0.277  10.025  0.1164 -0.1359  0.0835
  480PYPI   C2B 7394   4.467   0.392   9.534  0.0474 -0.0559  0.0393
  480PYPI   C3B 7395   4.405   0.283   9.141 -0.4709  0.1053 -0.2187
  480PYPI   C4B 7396   4.336   0.149   8.729  0.0851 -0.2984  0.1625
  481PYPI    C1 7397  11.039   5.711  11.297  0.0286  0.1754 -0.0693
  481PYPI    C2 7398  10.643   5.661  11.277  0.0518  0.0036 -0.1128
  481PYPI    C3 7399  10.861   5.431  11.520  0.1652 -0.1342 -0.3417
  481PYPI   PO4 7400  11.091   5.744  11.007 -0.1531 -0.0963 -0.1178
  481PYPI   GL1 7401  11.022   5.754  10.528  0.1108 -0.0795 -0.2370
  481PYPI   GL2 7402  11.120   5.964  10.408  0.3235  0.2834  0.3356
  481PYPI   C1A 7403  10.927   5.622  10.062  0.1247 -0.0421  0.2095
  481PYPI   C2A 7404  10.988   5.631   9.597  0.2052  0.0814  0.0692
  481PYPI   D3A 7405  10.847   5.623   9.226 -0.2028  0.2406 -0.0197
  481PYPI   C4A 7406  11.066   5.799   8.832  0.2995 -0.1507  0.0541
  481PYPI   C1B 7407  11.052   6.150  10.054  0.1601 -0.1206  0.2455
  481PYPI   C2B 7408  11.056   6.207   9.503 -0.0954  0.0181  0.3411
  481PYPI   C3B 7409  11.057   6.368   9.067  0.0251 -0.0957 -0.1198
  481PYPI   C4B 7410  11.023   6.395   8.605  0.3429  0.2313 -0.1215
  482PYPI    C1 7411   3.183   8.301  10.856 -0.0303 -0.0984  0.0215
  482PYPI    C2 7412   3.183   8.607  11.114  0.1463 -0.0090 -0.0826
  482PYPI    C3 7413   2.908   8.318  11.146  0.1388  0.0247  0.1768
  482PYPI   PO4 7414   3.288   8.440  10.579 -0.1362  0.0557  0.0050
  482PYPI   GL1 7415   3.306   8.480  10.194 -0.3324 -0.2028 -0.0197
  482PYPI   GL2 7416   3.075   8.425  10.113 -0.1284  0.0675 -0.1031
  482PYPI   C1A 7417   3.483   8.464   9.841 -0.2424 -0.0356  0.2764
  482PYPI   C2A 7418   3.528   8.409   9.529 -0.4476  0.1178 -0.0082
  482PYPI   D3A 7419   3.402   8.427   9.043  0.0175  0.2966  0.0148
  482PYPI   C4A 7420   3.470   8.304   8.686 -0.1172 -0.1378  0.0365
  482PYPI   C1B 7421   3.054   8.253   9.737  0.1682  0.1862 -0.1287
  482PYPI   C2B 7422   3.059   8.172   9.297  0.1801  0.1040 -0.0488
  482PYPI   C3B 7423   3.060   8.041   8.799  0.1178 -0.0380  0.0934
  482PYPI   C4B 7424   3.096   8.068   8.363  0.2648  0.2152 -0.1377
  483PYPI    C1 7425   2.915   1.526  10.768 -0.0813  0.1002  0.0296
  483PYPI    C2 7426   2.747   1.849  10.932 -0.2296  0.0591 -0.0391
  483PYPI    C3 7427   2.546   1.504  10.919 -0.0155 -0.0773  0.1685
  483PYPI   PO4 7428   3.083   1.715  10.581 -0.0204 -0.1585  0.3344
  483PYPI   GL1 7429   3.265   1.579  10.210  0.0924  0.3572  0.0395
  483PYPI   GL2 7430   3.144   1.336  10.293  0.1615 -0.0439  0.0329
  483PYPI   C1A 7431   3.313   1.749   9.770  0.0213  0.1017  0.4665
  483PYPI   C2A 7432   3.237   1.685   9.319 -0.2520 -0.1581 -0.0612
  483PYPI   D3A 7433   3.360   1.684   8.915 -0.1276 -0.4492  0.0075
  483PYPI   C4A 7434   3.033   1.634   8.515 -0.1304  0.0589  0.0327
  483PYPI   C1B 7435   3.236   1.272   9.848 -0.0027  0.4610 -0.2278
  483PYPI   C2B 7436   3.239   1.185   9.472  0.0252 -0.0365 -0.1095
  483PYPI   C3B 7437   3.402   1.230   9.094 -0.1074  0.0430  0.4392
  483PYPI   C4B 7438   3.325   1.255   8.693  0.3616  0.1731  0.1089
  484PYPI    C1 7439   9.120  10.896  10.762  0.1502 -0.1296  0.2269
  484PYPI    C2 7440   8.919  11.079  11.056 -0.2490  0.0026 -0.1178
  484PYPI    C3 7441   9.089  11.295  10.765  0.1827 -0.1246  0.0311
  484PYPI   PO4 7442   8.993  10.619  10.893  0.3177 -0.0597  0.3972
  484PYPI   GL1 7443   8.912  10.478  10.495 -0.3067  0.0131 -0.1830
  484PYPI   GL2 7444   8.626  10.245  10.396  0.1650 -0.1900 -0.1267
  484PYPI   C1A 7445   8.688  10.634  10.084  0.0898  0.0484 -0.1079
  484PYPI   C2A 7446   8.829  10.680   9.595 -0.0941 -0.1589  0.0070
  484PYPI   D3A 7447   9.149  10.890   9.376  0.1729 -0.2314  0.0812
  484PYPI   C4A 7448   9.312  10.862   8.871  0.0168  0.1886  0.0410
  484PYPI   C1B 7449   8.823  10.198  10.057  0.1955  0.0288  0.0571
  484PYPI   C2B 7450   8.906  10.200   9.677  0.0185  0.0102  0.3581
  484PYPI   C3B 7451   8.991  10.349   9.279  0.2017  0.2030  0.1812
  484PYPI   C4B 7452   9.085  10.410   8.800 -0.1686  0.1111 -0.0536
  485PYPI    C1 7453  11.294   5.321  10.765 -0.3094  0.2612  0.2175
  485PYPI    C2 7454  11.016   5.035  10.801  0.0253 -0.0775  0.1817
  485PYPI    C3 7455  11.157   5.220  11.127 -0.0789 -0.0622  0.2186
  485PYPI   PO4 7456  11.259   5.370  10.491 -0.0431 -0.1460  0.0317
  485PYPI   GL1 7457  10.854   5.069  10.336  0.0432 -0.1808 -0.2077
  485PYPI   GL2 7458  10.862   4.775  10.099  0.0569  0.0682  0.0268
  485PYPI   C1A 7459  11.003   5.199   9.854  0.2800 -0.0915  0.1187
  485PYPI   C2A 7460  10.973   5.125   9.390 -0.0367 -0.2342  0.2553
  485PYPI   D3A 7461  11.071   5.125   9.012 -0.0592  0.0908  0.0305
  485PYPI   C4A 7462  11.086   5.088   8.588  0.1021 -0.2143 -0.1827
  485PYPI   C1B 7463  10.694   4.773   9.606  0.0127 -0.0196  0.1078
  485PYPI   C2B 7464  10.660   4.634   9.242 -0.0431 -0.0061 -0.0949
  485PYPI   C3B 7465  10.545   4.563   8.865 -0.1954 -0.0194 -0.1033
  485PYPI   C4B 7466  10.608   4.941   8.495 -0.0148 -0.0121 -0.1279
  486PYPI    C1 7467   6.744   3.349  11.125 -0.1210 -0.0731 -0.0846
  486PYPI    C2 7468   6.648   3.596  11.425  0.1975 -0.0514  0.0031
  486PYPI    C3 7469   6.418   3.278  11.346 -0.2102  0.2621 -0.1031
  486PYPI   PO4 7470   6.881   3.575  10.995 -0.2070 -0.0880  0.0716
  486PYPI   GL1 7471   7.116   3.555  10.655 -0.0633  0.2543 -0.0742
  486PYPI   GL2 7472   7.242   3.793  10.480 -0.0301  0.1466  0.1272
  486PYPI   C1A 7473   7.204   3.199  10.320  0.0834 -0.0290  0.0403
  486PYPI   C2A 7474   7.246   2.983  10.023 -0.3294 -0.0380  0.0122
  486PYPI   D3A 7475   7.316   2.777   9.650  0.0360 -0.1163 -0.1307
  486PYPI   C4A 7476   7.148   2.845   9.169  0.0304  0.2402  0.1072
  486PYPI   C1B 7477   7.230   3.655  10.145  0.0875  0.2781 -0.3139
  486PYPI   C2B 7478   7.359   3.424   9.801 -0.0058  0.0024  0.2437
  486PYPI   C3B 7479   7.343   3.349   9.476  0.0346 -0.0581  0.1993
  486PYPI   C4B 7480   7.301   3.561   9.098 -0.0039 -0.1395  0.1467
  487PYPI    C1 7481  11.398   3.902  10.911  0.0579  0.2219 -0.0763
  487PYPI    C2 7482  11.273   4.186  11.164  0.0604 -0.0251  0.2076
  487PYPI    C3 7483  11.396   3.832  11.305 -0.1858 -0.2628 -0.1560
  487PYPI   PO4 7484  11.681   3.969  10.725 -0.4536 -0.1135  0.2627
  487PYPI   GL1 7485  11.608   4.292  10.406 -0.0771 -0.0509 -0.0685
  487PYPI   GL2 7486  11.809   4.568  10.395  0.1808  0.2757 -0.1759
  487PYPI   C1A 7487  11.521   4.336  10.019 -0.4363  0.1544 -0.3927
  487PYPI   C2A 7488  11.428   4.287   9.577  0.0886 -0.1772  0.2668
  487PYPI   D3A 7489  11.564   4.370   9.106  0.0014 -0.0097 -0.0835
  487PYPI   C4A 7490  11.853   4.674   9.132 -0.0314 -0.0140  0.1059
  487PYPI   C1B 7491  11.999   4.331  10.026  0.1645  0.0935  0.0376
  487PYPI   C2B 7492  11.893   4.109   9.785  0.2274 -0.2026 -0.1045
  487PYPI   C3B 7493  11.914   4.062   9.364  0.0235 -0.2044  0.0246
  487PYPI   C4B 7494  12.122   4.195   9.026  0.2465 -0.1495 -0.1550
  488PYPI    C1 7495   8.960   5.405  10.719  0.2168 -0.5147  0.0324
  488PYPI    C2 7496   9.007   5.416  11.116  0.1496  0.0425  0.0329
  488PYPI    C3 7497   9.299   5.548  10.876  0.0241  0.1053 -0.0867
  488PYPI   PO4 7498   8.634   5.476  10.756  0.3216  0.1614 -0.3803
  488PYPI   GL1 7499   8.432   5.659  10.460  0.2216  0.0717 -0.1906
  488PYPI   GL2 7500   8.702   5.734  10.345  0.2432 -0.2082  0.1547
  488PYPI   C1A 7501   8.097   5.408  10.274 -0.2517  0.0954  0.1308
  488PYPI   C2A 7502   7.763   5.303  10.125 -0.1237  0.0793 -0.0871
  488PYPI   D3A 7503   7.512   5.219   9.802  0.3604  0.3045  0.1581
  488PYPI   C4A 7504   7.765   5.031   9.570 -0.0858  0.0294  0.3625
  488PYPI   C1B 7505   8.542   5.592   9.963 -0.1198  0.2668 -0.0983
  488PYPI   C2B 7506   8.518   5.585   9.502  0.0646  0.3367  0.0715
  488PYPI   C3B 7507   8.400   5.578   9.047  0.0094  0.1027  0.0484
  488PYPI   C4B 7508   8.532   5.904   8.764 -0.0356 -0.1345  0.1206
  489PYPI    C1 7509  14.448   7.267  10.694  0.0806 -0.0111  0.0418
  489PYPI    C2 7510  14.590   6.974  10.926  0.1965  0.2013  0.2430
  489PYPI    C3 7511  14.218   7.109  10.980  0.1001  0.0106  0.0694
  489PYPI   PO4 7512  14.526   7.171  10.465 -0.2126  0.0934  0.0743
  489PYPI   GL1 7513  14.683   6.981  10.028  0.2514 -0.1550 -0.0769
  489PYPI   GL2 7514  14.994   6.943   9.903 -0.2081  0.2229  0.0175
  489PYPI   C1A 7515  14.630   7.092   9.569 -0.2404 -0.0041 -0.0417
  489PYPI   C2A 7516  14.439   7.169   9.182  0.0036  0.2451 -0.0284
  489PYPI   D3A 7517  14.536   7.299   8.790 -0.0438 -0.1747  0.0334
  489PYPI   C4A 7518  14.934   7.369   8.661  0.3710 -0.3428 -0.0571
  489PYPI   C1B 7519  15.092   6.943   9.468 -0.0131 -0.2075 -0.2464
  489PYPI   C2B 7520  14.906   6.878   9.093  0.1998  0.0366 -0.1606
  489PYPI   C3B 7521  15.120   6.830   8.734 -0.0933 -0.3240 -0.0508
  489PYPI   C4B 7522  15.028   7.008   8.274  0.0109  0.2528 -0.0575
  490PYPI    C1 7523   8.935  12.561  11.240 -0.0017  0.0056 -0.0530
  490PYPI    C2 7524   9.181  12.526  11.553  0.2215  0.3138 -0.1886
  490PYPI    C3 7525   8.880  12.789  11.564 -0.0503  0.0041 -0.0603
  490PYPI   PO4 7526   9.097  12.471  11.005  0.1070 -0.1276  0.2046
  490PYPI   GL1 7527   8.993  12.218  10.702 -0.0661 -0.1658 -0.1276
  490PYPI   GL2 7528   8.778  12.458  10.594  0.1213  0.3596 -0.2531
  490PYPI   C1A 7529   9.126  12.054  10.305  0.0481  0.4304  0.1161
  490PYPI   C2A 7530   9.242  12.197   9.886  0.3221 -0.1583 -0.1725
  490PYPI   D3A 7531   9.310  12.462   9.506  0.0221  0.0928 -0.1930
  490PYPI   C4A 7532   9.287  12.840   9.618  0.1330 -0.2668  0.2559
  490PYPI   C1B 7533   8.882  12.564  10.156 -0.0369 -0.2775 -0.1514
  490PYPI   C2B 7534   8.810  12.607   9.690  0.0582  0.0870 -0.0677
  490PYPI   C3B 7535   8.725  12.721   9.335  0.1126  0.0122 -0.3968
  490PYPI   C4B 7536   8.967  12.762   9.001  0.2095 -0.1695 -0.2043
  491PYPI    C1 7537   8.218   1.557  10.860  0.0034 -0.0186  0.0944
  491PYPI    C2 7538   8.017   1.315  10.613  0.0500  0.2025 -0.1654
  491PYPI    C3 7539   8.284   1.163  10.870  0.1289 -0.0147 -0.3724
  491PYPI   PO4 7540   8.281   1.799  10.681  0.5802 -0.1687 -0.1083
  491PYPI   GL1 7541   8.212   1.910  10.206  0.0450 -0.0901  0.3654
  491PYPI   GL2 7542   8.312   1.634  10.252  0.1453  0.0015  0.0074
  491PYPI   C1A 7543   7.970   1.961   9.924 -0.0367 -0.0233  0.0033
  491PYPI   C2A 7544   7.901   2.018   9.506  0.1917 -0.0815  0.1500
  491PYPI   D3A 7545   7.805   2.118   9.130  0.0413 -0.5988 -0.2266
  491PYPI   C4A 7546   7.957   2.180   8.659  0.1425  0.3659 -0.2397
  491PYPI   C1B 7547   8.294   1.487   9.837  0.2831  0.0686  0.1192
  491PYPI   C2B 7548   8.238   1.459   9.371 -0.0649  0.1768  0.1441
  491PYPI   C3B 7549   8.333   1.377   8.849  0.1743 -0.0486  0.0997
  491PYPI   C4B 7550   8.392   1.429   8.488  0.1641 -0.1047  0.1040
  492PYPI    C1 7551  17.006  11.122  10.688  0.1198 -0.0893  0.0718
  492PYPI    C2 7552  16.676  10.956  10.840 -0.0687 -0.0767 -0.3096
  492PYPI    C3 7553  16.678  11.343  10.742  0.1289 -0.0270 -0.1175
  492PYPI   PO4 7554  17.079  10.980  10.472  0.1251  0.1396 -0.1786
  492PYPI   GL1 7555  17.076  10.767  10.064  0.1498  0.0680 -0.2824
  492PYPI   GL2 7556  17.013  11.022   9.967  0.0275 -0.0989 -0.1601
  492PYPI   C1A 7557  17.144  10.505   9.717  0.0424  0.3310  0.0721
  492PYPI   C2A 7558  17.100  10.475   9.198 -0.0496 -0.1349 -0.1219
  492PYPI   D3A 7559  17.079  10.612   8.734 -0.0403 -0.0792  0.0443
  492PYPI   C4A 7560  16.818  10.638   8.422 -0.5073 -0.0997 -0.1848
  492PYPI   C1B 7561  16.830  10.842   9.519 -0.2048  0.2493  0.0106
  492PYPI   C2B 7562  16.831  10.890   9.103  0.0892 -0.2889 -0.2158
  492PYPI   C3B 7563  16.817  11.076   8.700 -0.2677 -0.2248 -0.0095
  492PYPI   C4B 7564  16.708  11.197   8.279 -0.1701  0.0279  0.4655
  493PYPI    C1 7565  11.710  16.012  11.074 -0.1387  0.2579 -0.2998
  493PYPI    C2 7566  11.953  16.305  11.197 -0.0532  0.0576  0.0187
  493PYPI    C3 7567  11.556  16.355  11.210 -0.0378  0.1880 -0.0032
  493PYPI   PO4 7568  11.857  15.888  10.889 -0.0123 -0.0572  0.2037
  493PYPI   GL1 7569  11.869  15.712  10.383  0.0004  0.0741  0.1938
  493PYPI   GL2 7570  11.864  15.349  10.361  0.1208 -0.1112 -0.1538
  493PYPI   C1A 7571  11.485  15.701  10.057  0.1085  0.0182 -0.0039
  493PYPI   C2A 7572  11.347  15.665   9.555 -0.0046  0.0410  0.1347
  493PYPI   D3A 7573  11.402  15.531   9.106  0.1465  0.3224 -0.0609
  493PYPI   C4A 7574  11.039  15.437   8.822 -0.0380  0.0454  0.0092
  493PYPI   C1B 7575  11.689  15.252   9.994 -0.0814  0.1499 -0.3276
  493PYPI   C2B 7576  11.748  15.222   9.530 -0.0390 -0.2148 -0.1128
  493PYPI   C3B 7577  11.807  15.189   9.090  0.2574  0.2670  0.0280
  493PYPI   C4B 7578  12.078  15.148   8.717 -0.2026  0.1378 -0.1241
  494PYPI    C1 7579   5.455  14.688  10.850 -0.0557  0.1866 -0.1134
  494PYPI    C2 7580   5.240  14.403  11.030  0.1774  0.0468 -0.0532
  494PYPI    C3 7581   5.323  14.743  11.223 -0.2219  0.2198 -0.1761
  494PYPI   PO4 7582   5.335  14.705  10.572  0.1316 -0.2188  0.2414
  494PYPI   GL1 7583   5.131  14.937  10.220 -0.0023  0.3921 -0.0364
  494PYPI   GL2 7584   5.382  15.134  10.253 -0.2915 -0.0979 -0.0239
  494PYPI   C1A 7585   5.092  14.950   9.749 -0.1133  0.2849 -0.1403
  494PYPI   C2A 7586   5.178  14.928   9.291 -0.0190  0.3524 -0.2054
  494PYPI   D3A 7587   5.166  15.094   8.925 -0.3271  0.2270  0.0332
  494PYPI   C4A 7588   5.511  15.082   8.608  0.0424 -0.3025  0.0158
  494PYPI   C1B 7589   5.753  15.043   9.891 -0.1789  0.3457  0.3232
  494PYPI   C2B 7590   5.740  15.075   9.440  0.2061 -0.3929 -0.2484
  494PYPI   C3B 7591   5.749  15.122   9.078  0.0662  0.2354  0.0628
  494PYPI   C4B 7592   6.006  15.119   8.710 -0.4868 -0.1320  0.4341
  495PYPI    C1 7593   7.473   8.807  10.809 -0.1107 -0.0077 -0.0579
  495PYPI    C2 7594   7.096   8.712  10.713 -0.0910 -0.2977  0.1377
  495PYPI    C3 7595   7.218   8.686  11.093  0.0215  0.1711  0.1404
  495PYPI   PO4 7596   7.664   8.814  10.555  0.1366  0.2092  0.0107
  495PYPI   GL1 7597   7.544   9.021  10.182 -0.0824 -0.1092  0.0218
  495PYPI   GL2 7598   7.756   9.311  10.028  0.0686 -0.0493  0.0270
  495PYPI   C1A 7599   7.717   8.964   9.703 -0.0516 -0.2028  0.3370
  495PYPI   C2A 7600   7.777   9.044   9.223 -0.0718  0.1241  0.3137
  495PYPI   D3A 7601   7.815   9.059   8.810  0.1779  0.2578 -0.1565
  495PYPI   C4A 7602   8.013   9.292   8.418 -0.1213 -0.0862  0.1735
  495PYPI   C1B 7603   7.899   9.423   9.595 -0.1506 -0.0947  0.2185
  495PYPI   C2B 7604   7.923   9.553   9.055  0.1508 -0.1325 -0.0120
  495PYPI   C3B 7605   7.800   9.656   8.697 -0.0579 -0.0171 -0.0389
  495PYPI   C4B 7606   7.517   9.582   8.444  0.2752  0.2802 -0.2092
  496PYPI    C1 7607   2.049  16.030  10.523  0.2068  0.0049  0.1843
  496PYPI    C2 7608   1.741  16.265  10.423  0.2120 -0.0340  0.0763
  496PYPI    C3 7609   2.048  16.414  10.632  0.1664  0.0293  0.0981
  496PYPI   PO4 7610   2.076  15.780  10.365 -0.0094 -0.1025  0.0222
  496PYPI   GL1 7611   2.184  15.538   9.991 -0.0561  0.0359 -0.1393
  496PYPI   GL2 7612   2.488  15.595   9.831  0.0632  0.2007  0.0965
  496PYPI   C1A 7613   1.932  15.772   9.649  0.0588  0.1948 -0.1556
  496PYPI   C2A 7614   1.815  16.005   9.258 -0.2769  0.0195  0.1766
  496PYPI   D3A 7615   1.841  16.156   8.839 -0.0271 -0.1181 -0.0059
  496PYPI   C4A 7616   2.022  16.237   8.496  0.1465  0.1137 -0.2814
  496PYPI   C1B 7617   2.498  15.552   9.466 -0.0639  0.0806 -0.1139
  496PYPI   C2B 7618   2.503  15.404   8.958 -0.1797 -0.4440  0.0520
  496PYPI   C3B 7619   2.446  15.268   8.549  0.0007 -0.0892 -0.3450
  496PYPI   C4B 7620   2.614  14.867   8.341  0.1033  0.0929  0.1188
  497PYPI    C1 7621   5.387   0.251  10.883  0.3112 -0.1976 -0.0743
  497PYPI    C2 7622   5.326   0.115  11.254  0.1232 -0.0332 -0.0426
  497PYPI    C3 7623   5.646   0.342  11.174  0.3150 -0.2994 -0.0454
  497PYPI   PO4 7624   5.273  -0.023  10.773  0.0947 -0.2926  0.0827
  497PYPI   GL1 7625   5.418  -0.055  10.314  0.2133  0.1572 -0.1773
  497PYPI   GL2 7626   5.644  -0.280  10.409 -0.0869 -0.1161 -0.1090
  497PYPI   C1A 7627   5.336  -0.028   9.815 -0.0966 -0.1387  0.0842
  497PYPI   C2A 7628   5.276  -0.037   9.421  0.3900 -0.0028  0.1131
  497PYPI   D3A 7629   5.198  -0.204   8.977  0.0670  0.2206 -0.1211
  497PYPI   C4A 7630   5.046  -0.592   8.821 -0.0795 -0.2250  0.2591
  497PYPI   C1B 7631   5.806  -0.163  10.041  0.0220 -0.1700 -0.1662
  497PYPI   C2B 7632   5.826  -0.083   9.653 -0.0254 -0.2730  0.1503
  497PYPI   C3B 7633   5.707  -0.052   9.235  0.0802 -0.0391  0.5351
  497PYPI   C4B 7634   5.823   0.035   8.782 -0.0794 -0.0569 -0.1013
  498PYPI    C1 7635   3.432   5.641  10.483  0.0015  0.0009  0.3073
  498PYPI    C2 7636   3.438   5.269  10.630  0.0759 -0.0511  0.1750
  498PYPI    C3 7637   3.274   5.566  10.843 -0.2026 -0.2039  0.1782
  498PYPI   PO4 7638   3.636   5.632  10.297 -0.0021 -0.0706  0.0473
  498PYPI   GL1 7639   3.957   5.762  10.034 -0.1815 -0.0892 -0.0321
  498PYPI   GL2 7640   4.214   6.014  10.060 -0.0684 -0.0234 -0.0454
  498PYPI   C1A 7641   3.888   5.613   9.509  0.1993 -0.1169  0.1420
  498PYPI   C2A 7642   4.168   5.849   9.121  0.1633 -0.0393  0.0035
  498PYPI   D3A 7643   4.416   5.776   8.706 -0.3107  0.3956 -0.5878
  498PYPI   C4A 7644   4.148   5.695   8.350  0.1661 -0.1650 -0.2634
  498PYPI   C1B 7645   4.004   6.480   9.885 -0.0425  0.0220 -0.1363
  498PYPI   C2B 7646   3.806   6.764   9.547 -0.2201 -0.3020 -0.2271
  498PYPI   C3B 7647   3.713   6.820   9.177 -0.1698 -0.1321  0.0591
  498PYPI   C4B 7648   3.799   6.945   8.789  0.1525  0.0492 -0.0544
  499PYPI    C1 7649  13.131   5.865  10.486  0.2205  0.0302 -0.1171
  499PYPI    C2 7650  13.238   5.561  10.723 -0.1045  0.1365  0.1749
  499PYPI    C3 7651  13.086   5.895  10.882  0.0820  0.3859 -0.1560
  499PYPI   PO4 7652  13.145   5.843  10.261  0.2681  0.0843 -0.0379
  499PYPI   GL1 7653  13.267   5.745   9.805 -0.1603  0.2331  0.1186
  499PYPI   GL2 7654  13.634   5.687   9.831  0.0662 -0.0417 -0.1228
  499PYPI   C1A 7655  13.420   5.871   9.373  0.2369 -0.0608 -0.0532
  499PYPI   C2A 7656  13.462   5.963   8.941 -0.2622 -0.1169 -0.0460
  499PYPI   D3A 7657  13.443   5.641   8.673 -0.1143  0.0543 -0.0106
  499PYPI   C4A 7658  13.778   5.630   8.385  0.1003  0.1784 -0.1899
  499PYPI   C1B 7659  13.899   5.726   9.572 -0.0140  0.0851  0.0253
  499PYPI   C2B 7660  13.922   5.825   9.147  0.0920  0.1744 -0.1823
  499PYPI   C3B 7661  13.909   5.978   8.754 -0.1108 -0.1291  0.0445
  499PYPI   C4B 7662  13.649   6.328   8.545  0.1076  0.3454  0.2070
  500PYPI    C1 7663  17.832  10.874  10.702  0.0276  0.0621  0.1036
  500PYPI    C2 7664  17.474  11.009  10.820 -0.0668  0.1390 -0.2579
  500PYPI    C3 7665  17.789  11.255  10.814  0.0369  0.0289  0.2220
  500PYPI   PO4 7666  17.857  10.845  10.413 -0.0790  0.2545 -0.2180
  500PYPI   GL1 7667  17.765  10.512  10.251 -0.1239  0.0812 -0.0767
  500PYPI   GL2 7668  17.729  10.556   9.950  0.0404  0.0133 -0.1235
  500PYPI   C1A 7669  18.049  10.208  10.095  0.2240 -0.2464 -0.0321
  500PYPI   C2A 7670  17.961  10.202   9.631  0.2115 -0.0939 -0.0289
  500PYPI   D3A 7671  17.935  10.185   9.197 -0.1095 -0.4215  0.0718
  500PYPI   C4A 7672  18.048  10.128   8.778  0.0432  0.0440 -0.1028
  500PYPI   C1B 7673  17.637  10.546   9.460 -0.0099  0.1644 -0.3478
  500PYPI   C2B 7674  17.651  10.605   9.067  0.0431  0.0714 -0.1146
  500PYPI   C3B 7675  17.720  10.712   8.712  0.1299 -0.2961  0.0296
  500PYPI   C4B 7676  17.922  10.855   8.393  0.3094 -0.0637  0.0570
  501PYPI    C1 7677  15.369   3.435  10.578  0.1350  0.1412 -0.0840
  501PYPI    C2 7678  15.295   3.120  10.814  0.2287 -0.0067 -0.2500
  501PYPI    C3 7679  15.355   3.481  10.975 -0.1398 -0.0207 -0.0722
  501PYPI   PO4 7680  15.121   3.396  10.384  0.2893  0.0722  0.0010
  501PYPI   GL1 7681  14.943   3.353  10.085  0.2172  0.0514  0.2467
  501PYPI   GL2 7682  15.103   3.072   9.978 -0.1800 -0.2327 -0.2198
  501PYPI   C1A 7683  14.817   3.238   9.645 -0.1493 -0.0722 -0.0949
  501PYPI   C2A 7684  14.584   3.025   9.346 -0.0107  0.1456 -0.2090
  501PYPI   D3A 7685  14.634   2.917   8.997  0.0227  0.0358  0.1545
  501PYPI   C4A 7686  14.672   3.185   8.614  0.2240  0.0959 -0.1671
  501PYPI   C1B 7687  15.571   3.055   9.758  0.0158 -0.0532  0.0495
  501PYPI   C2B 7688  15.725   3.158   9.411 -0.1309 -0.1163  0.0563
  501PYPI   C3B 7689  15.597   3.147   9.008 -0.0614 -0.0968 -0.3480
  501PYPI   C4B 7690  15.570   3.032   8.586 -0.1798 -0.0490 -0.2338
  502PYPI    C1 7691   5.004   5.339  11.281 -0.0087  0.2159  0.0869
  502PYPI    C2 7692   5.371   5.369  11.436 -0.1771  0.3729  0.4691
  502PYPI    C3 7693   5.102   5.126  11.605 -0.1466 -0.0231 -0.0258
  502PYPI   PO4 7694   4.961   5.475  10.926 -0.0275 -0.1222 -0.1879
  502PYPI   GL1 7695   5.041   5.441  10.533 -0.0669  0.1530  0.0412
  502PYPI   GL2 7696   5.320   5.323  10.463  0.0979  0.1956  0.3006
  502PYPI   C1A 7697   4.988   5.570  10.110  0.1258  0.1871 -0.0971
  502PYPI   C2A 7698   4.888   5.582   9.721  0.0101  0.3208 -0.0569
  502PYPI   D3A 7699   4.959   5.635   9.288  0.0008  0.3330 -0.2192
  502PYPI   C4A 7700   4.699   5.947   9.054 -0.0979  0.0965 -0.1088
  502PYPI   C1B 7701   5.540   5.276  10.100  0.0836 -0.0359  0.5152
  502PYPI   C2B 7702   5.751   5.375   9.753  0.0623 -0.1458  0.0615
  502PYPI   C3B 7703   5.787   5.345   9.320  0.1526 -0.0940  0.1121
  502PYPI   C4B 7704   5.947   4.967   9.125 -0.1907 -0.0444 -0.0079
  503PYPI    C1 7705  13.531  11.278  10.565 -0.2257 -0.0022  0.2010
  503PYPI    C2 7706  13.812  11.534  10.690 -0.0094 -0.0910 -0.0916
  503PYPI    C3 7707  13.783  11.172  10.858  0.0077 -0.0575 -0.0160
  503PYPI   PO4 7708  13.591  11.155  10.365 -0.1063 -0.1119 -0.2003
  503PYPI   GL1 7709  13.710  11.201  10.059  0.0435 -0.1632 -0.1294
  503PYPI   GL2 7710  13.836  10.924  10.036  0.0635 -0.1392  0.2588
  503PYPI   C1A 7711  13.733  11.415   9.638  0.1126 -0.4556 -0.1116
  503PYPI   C2A 7712  14.032  11.620   9.392 -0.2210 -0.3414  0.2133
  503PYPI   D3A 7713  14.230  11.942   9.220  0.0887 -0.0303  0.0094
  503PYPI   C4A 7714  14.313  11.925   8.847 -0.0615 -0.2124 -0.1941
  503PYPI   C1B 7715  13.734  10.962   9.518 -0.1094 -0.3161 -0.1124
  503PYPI   C2B 7716  13.666  11.238   9.171 -0.1067  0.1988 -0.1913
  503PYPI   C3B 7717  13.676  11.594   9.046 -0.1406 -0.3604  0.0282
  503PYPI   C4B 7718  13.816  11.929   8.874 -0.0828 -0.2085  0.1166
  504PYPI    C1 7719   2.315   3.577  10.802  0.1787 -0.0648  0.1077
  504PYPI    C2 7720   2.349   3.253  11.035  0.1306 -0.0763  0.0990
  504PYPI    C3 7721   2.301   3.614  11.201 -0.0185 -0.0982  0.1053
  504PYPI   PO4 7722   2.135   3.584  10.683 -0.0085 -0.0761  0.0040
  504PYPI   GL1 7723   2.230   3.778  10.284  0.2284  0.0947  0.2031
  504PYPI   GL2 7724   2.500   3.835  10.389  0.1914 -0.0941 -0.0295
  504PYPI   C1A 7725   2.256   3.904   9.908 -0.1668 -0.0668 -0.4236
  504PYPI   C2A 7726   2.243   4.012   9.483  0.1315  0.1352  0.1069
  504PYPI   D3A 7727   2.249   4.159   9.103 -0.0479 -0.3336  0.1233
  504PYPI   C4A 7728   2.711   4.162   9.023  0.1175 -0.0664  0.2772
  504PYPI   C1B 7729   2.733   4.009  10.055 -0.1166 -0.3606 -0.1692
  504PYPI   C2B 7730   2.607   4.204   9.701 -0.2177  0.1135  0.2179
  504PYPI   C3B 7731   2.559   4.410   9.374  0.0384 -0.3412 -0.2413
  504PYPI   C4B 7732   2.606   4.667   9.014 -0.1059  0.1488  0.0485
  505PYPI    C1 7733   2.781   2.946  11.027 -0.2806  0.0379  0.0180
  505PYPI    C2 7734   2.939   2.688  11.289  0.0571  0.0773 -0.1419
  505PYPI    C3 7735   2.929   3.079  11.374 -0.1923  0.0464 -0.0225
  505PYPI   PO4 7736   2.963   2.904  10.755  0.0117 -0.0066  0.0498
  505PYPI   GL1 7737   3.009   2.838  10.338  0.1046 -0.0563 -0.2439
  505PYPI   GL2 7738   2.730   2.584  10.398 -0.0019  0.0957  0.4299
  505PYPI   C1A 7739   2.981   3.090   9.975 -0.2685 -0.2077 -0.0080
  505PYPI   C2A 7740   2.932   3.052   9.626  0.0623  0.3022  0.1122
  505PYPI   D3A 7741   2.858   3.296   9.294  0.0074 -0.0122  0.0954
  505PYPI   C4A 7742   3.040   3.216   8.977  0.3128 -0.2227 -0.1487
  505PYPI   C1B 7743   2.799   2.593   9.946 -0.0274  0.0328 -0.2048
  505PYPI   C2B 7744   2.960   2.276   9.718 -0.1329  0.2436 -0.1360
  505PYPI   C3B 7745   2.773   1.963   9.478  0.1602  0.0462  0.3376
  505PYPI   C4B 7746   2.471   2.162   9.215 -0.0087 -0.0672 -0.1565
  506ERGO   ROH 7747  14.502  11.726  10.273 -0.3036 -0.2287 -0.0276
  506ERGO    R1 7748  14.643  11.601  10.062 -0.1915 -0.0847 -0.0408
  506ERGO    R2 7749  14.709  11.333  10.065 -0.0595 -0.0602 -0.1234
  506ERGO    R3 7750  14.581  11.332   9.825 -0.0072 -0.0308 -0.1499
  506ERGO    R4 7751  14.761  11.101   9.813 -0.1374 -0.1270 -0.0775
  506ERGO    R5 7752  14.749  11.264   9.668 -0.0171 -0.1480 -0.1041
  506ERGO    C1 7753  14.672  10.966   9.442 -0.1336 -0.1382 -0.0757
  506ERGO    C2 7754  14.526  10.753   9.175  0.2778  0.1529 -0.1302
  507ERGO   ROH 7755  12.208   6.918   9.777  0.1229  0.4452 -0.0456
  507ERGO    R1 7756  12.066   6.768   9.583  0.1676  0.3128  0.0226
  507ERGO    R2 7757  11.793   6.795   9.545  0.1398  0.1368  0.0808
  507ERGO    R3 7758  11.867   6.840   9.287  0.0513  0.1239  0.0531
  507ERGO    R4 7759  11.612   6.699   9.267  0.1291 -0.0332  0.1455
  507ERGO    R5 7760  11.798   6.644   9.170  0.1394  0.0563  0.1136
  507ERGO    C1 7761  11.575   6.686   8.863  0.0397 -0.1443  0.1572
  507ERGO    C2 7762  11.315   6.891   8.629  0.0039  0.1982 -0.0018
  508ERGO   ROH 7763   0.667   2.484  10.481  0.1071 -0.1107 -0.0298
  508ERGO    R1 7764   0.709   2.729  10.348 -0.0497 -0.0964 -0.0550
  508ERGO    R2 7765   0.960   2.817  10.274 -0.0900  0.1178  0.0564
  508ERGO    R3 7766   0.846   2.837  10.028  0.0151 -0.0340 -0.0069
  508ERGO    R4 7767   1.111   2.959   9.997 -0.0625  0.1677  0.0965
  508ERGO    R5 7768   0.919   3.050   9.946 -0.1107  0.0052 -0.0220
  508ERGO    C1 7769   1.092   3.061   9.606  0.0522  0.0543  0.0606
  508ERGO    C2 7770   1.224   3.059   9.253  0.0141 -0.2535  0.0895
  509ERGO   ROH 7771  15.757   4.929  10.374 -0.2210 -0.0157 -0.1863
  509ERGO    R1 7772  15.856   4.801  10.142 -0.0401  0.1171 -0.1849
  509ERGO    R2 7773  15.706   4.621   9.996  0.1845 -0.0477 -0.2217
  509ERGO    R3 7774  15.767   4.787   9.789  0.0210  0.0453 -0.1969
  509ERGO    R4 7775  15.680   4.538   9.661  0.0333  0.0687 -0.2397
  509ERGO    R5 7776  15.867   4.643   9.626 -0.0213  0.1393 -0.3031
  509ERGO    C1 7777  15.722   4.645   9.273 -0.2082  0.2239 -0.2271
  509ERGO    C2 7778  15.819   4.569   8.952  0.3271  0.1941 -0.0661
  510ERGO   ROH 7779  12.030  16.856   9.858 -0.0346  0.1054 -0.0954
  510ERGO    R1 7780  12.087  16.875   9.581 -0.0704  0.0804 -0.1052
  510ERGO    R2 7781  12.315  16.767   9.469  0.0177  0.2426 -0.0935
  510ERGO    R3 7782  12.136  16.644   9.305  0.1071  0.0456 -0.0446
  510ERGO    R4 7783  12.380  16.670   9.143  0.0543  0.2455 -0.0865
  510ERGO    R5 7784  12.180  16.737   9.088 -0.0167  0.0475 -0.0670
  510ERGO    C1 7785  12.250  16.497   8.800  0.1595  0.0623 -0.0366
  510ERGO    C2 7786  12.249  16.439   8.387  0.0682  0.1393 -0.1666
  511ERGO   ROH 7787   6.405  13.930  10.719 -0.0104 -0.0421 -0.0652
  511ERGO    R1 7788   6.442  13.918  10.438  0.1858  0.0268 -0.0423
  511ERGO    R2 7789   6.648  13.775  10.321  0.0025 -0.3177  0.0559
  511ERGO    R3 7790   6.444  13.659  10.183 -0.1225  0.1418 -0.1689
  511ERGO    R4 7791   6.667  13.665   9.994  0.1672 -0.4598  0.1109
  511ERGO    R5 7792   6.467  13.743   9.960  0.3829  0.0353 -0.1746
  511ERGO    C1 7793   6.488  13.492   9.674  0.1457 -0.1110 -0.0684
  511ERGO    C2 7794   6.600  13.307   9.475  0.0275 -0.0982 -0.0374
  512ERGO   ROH 7795  17.183   3.235  10.316  0.0318 -0.1282  0.0914
  512ERGO    R1 7796  17.207   3.143  10.050  0.0429  0.0574  0.0270
  512ERGO    R2 7797  16.989   3.060   9.901  0.0742 -0.0296  0.0295
  512ERGO    R3 7798  17.081   3.244   9.723 -0.1206  0.1589  0.1200
  512ERGO    R4 7799  16.992   3.020   9.557  0.1409  0.1333  0.0103
  512ERGO    R5 7800  17.188   3.115   9.553  0.0368  0.3570  0.0648
  512ERGO    C1 7801  17.081   3.170   9.191 -0.0034  0.4051  0.0841
  512ERGO    C2 7802  16.998   2.999   8.890 -0.0751 -0.1483  0.1361
  513ERGO   ROH 7803  14.234  10.062  10.067 -0.0129  0.1336  0.0249
  513ERGO    R1 7804  14.199   9.874   9.859 -0.0547  0.0650  0.0923
  513ERGO    R2 7805  13.966   9.729   9.826 -0.1533  0.2270  0.0441
  513ERGO    R3 7806  13.975   9.833   9.574  0.0508  0.1110  0.0031
  513ERGO    R4 7807  13.732   9.670   9.578 -0.1172  0.3638 -0.0230
  513ERGO    R5 7808  13.895   9.656   9.434 -0.0750  0.1355  0.0469
  513ERGO    C1 7809  13.605   9.732   9.198  0.0953  0.3346 -0.1007
  513ERGO    C2 7810  13.532   9.698   9.000  0.3446 -0.1977  0.3271
  514ERGO   ROH 7811   8.832   1.696   9.805 -0.2063  0.0987 -0.0595
  514ERGO    R1 7812   8.797   1.732   9.527 -0.3843 -0.0231 -0.0546
  514ERGO    R2 7813   9.008   1.720   9.348 -0.4220  0.3557 -0.1313
  514ERGO    R3 7814   8.852   1.534   9.226 -0.1076  0.0176 -0.0340
  514ERGO    R4 7815   8.985   1.676   9.006 -0.4942  0.2687 -0.1156
  514ERGO    R5 7816   8.770   1.645   9.029 -0.4283 -0.1663 -0.0112
  514ERGO    C1 7817   8.825   1.476   8.692 -0.2411 -0.0993 -0.0151
  514ERGO    C2 7818   8.856   1.454   8.410 -0.1336 -0.0522 -0.1467
  515ERGO   ROH 7819   7.725  12.376  10.350  0.1498  0.1056 -0.0515
  515ERGO    R1 7820   7.872  12.291  10.124  0.1980 -0.0734  0.0462
  515ERGO    R2 7821   7.895  12.024  10.052 -0.0844 -0.1014  0.0605
  515ERGO    R3 7822   7.802  12.114   9.814  0.1874  0.0186 -0.0051
  515ERGO    R4 7823   7.930  11.859   9.750 -0.2484 -0.2473  0.1192
  515ERGO    R5 7824   7.969  12.051   9.656  0.1512 -0.3339  0.0864
  515ERGO    C1 7825   7.862  11.848   9.351 -0.0888 -0.2199  0.0919
  515ERGO    C2 7826   7.747  11.819   9.075  0.0347  0.0072 -0.2135
  516ERGO   ROH 7827  17.388  12.043   9.704 -0.1994  0.0623 -0.0547
  516ERGO    R1 7828  17.606  12.112   9.537 -0.1524 -0.0651 -0.0473
  516ERGO    R2 7829  17.723  11.933   9.363 -0.1991 -0.1569  0.0153
  516ERGO    R3 7830  17.672  12.127   9.180 -0.1029 -0.1860 -0.0437
  516ERGO    R4 7831  17.931  12.016   9.099 -0.0341 -0.1614  0.1420
  516ERGO    R5 7832  17.886  12.226   9.136 -0.0865 -0.1629  0.0863
  516ERGO    C1 7833  18.004  12.246   8.774  0.1519 -0.1913  0.1603
  516ERGO    C2 7834  18.074  12.224   8.442 -0.0461 -0.1351 -0.0462
  517ERGO   ROH 7835  14.280   1.068  10.057  0.0592  0.3417 -0.0325
  517ERGO    R1 7836  14.266   0.969   9.792  0.0138  0.1520  0.0388
  517ERGO    R2 7837  14.337   1.120   9.573 -0.0525  0.0082 -0.0880
  517ERGO    R3 7838  14.499   0.908   9.520 -0.0369 -0.0096  0.0311
  517ERGO    R4 7839  14.442   1.026   9.257 -0.0480 -0.1717 -0.0334
  517ERGO    R5 7840  14.413   0.818   9.315 -0.0294 -0.1372  0.0872
  517ERGO    C1 7841  14.655   0.772   9.023 -0.0307 -0.2930  0.1104
  517ERGO    C2 7842  14.691   0.657   8.692  0.1276 -0.1890 -0.3543
  518ERGO   ROH 7843   8.174  14.999   9.975 -0.0016 -0.0015  0.0853
  518ERGO    R1 7844   8.257  15.104   9.725 -0.0088 -0.0021  0.0833
  518ERGO    R2 7845   8.265  14.951   9.495 -0.1781  0.0428  0.0509
  518ERGO    R3 7846   8.109  15.151   9.396 -0.0768  0.1665  0.1356
  518ERGO    R4 7847   8.237  15.031   9.160 -0.2466  0.0947  0.0683
  518ERGO    R5 7848   8.238  15.242   9.216 -0.0749  0.0935  0.0948
  518ERGO    C1 7849   8.075  15.265   8.872 -0.1914  0.2411  0.1579
  518ERGO    C2 7850   8.165  15.073   8.582  0.2450  0.1575 -0.2166
  519ERGO   ROH 7851   8.662   5.192  10.377  0.2102 -0.0614 -0.0038
  519ERGO    R1 7852   8.584   5.031  10.158  0.1074 -0.1123  0.0699
  519ERGO    R2 7853   8.347   5.068  10.022  0.0688 -0.1105  0.1407
  519ERGO    R3 7854   8.510   5.081   9.805 -0.0032 -0.2037  0.0793
  519ERGO    R4 7855   8.239   5.106   9.696 -0.0264  0.1076  0.1952
  519ERGO    R5 7856   8.391   4.963   9.634 -0.1939 -0.0285  0.0855
  519ERGO    C1 7857   8.330   5.141   9.302 -0.1492  0.1471  0.1693
  519ERGO    C2 7858   8.061   5.166   8.998 -0.0531  0.0044  0.2884
  520ERGO   ROH 7859  10.614   6.139  10.330 -0.0221  0.0736  0.0106
  520ERGO    R1 7860  10.550   5.992  10.096 -0.1480  0.1206  0.0151
  520ERGO    R2 7861  10.412   6.103   9.884 -0.0427  0.2363  0.0081
  520ERGO    R3 7862  10.626   6.014   9.741 -0.1180  0.0370  0.0156
  520ERGO    R4 7863  10.445   6.129   9.541  0.0985  0.4388  0.0350
  520ERGO    R5 7864  10.530   5.928   9.539 -0.1802  0.3135 -0.0784
  520ERGO    C1 7865  10.664   6.061   9.207  0.1100  0.3696  0.0577
  520ERGO    C2 7866  10.629   6.212   8.882 -0.0532  0.1919  0.0343
  521ERGO   ROH 7867  14.761   2.484  10.120  0.0118 -0.0403 -0.1296
  521ERGO    R1 7868  14.958   2.598   9.952  0.0836 -0.1565 -0.1263
  521ERGO    R2 7869  15.014   2.500   9.700 -0.0953 -0.0826 -0.1988
  521ERGO    R3 7870  14.967   2.757   9.624  0.1492  0.0112 -0.0441
  521ERGO    R4 7871  15.122   2.641   9.404 -0.1155 -0.0576 -0.1937
  521ERGO    R5 7872  15.168   2.824   9.514  0.1588 -0.1623 -0.1319
  521ERGO    C1 7873  15.140   2.965   9.160  0.1022  0.0450 -0.0456
  521ERGO    C2 7874  15.083   2.987   8.798 -0.0507  0.1876 -0.1006
  522ERGO   ROH 7875   3.524  15.684   9.930 -0.0614  0.2594  0.1578
  522ERGO    R1 7876   3.728  15.819   9.789 -0.0142  0.0933  0.0646
  522ERGO    R2 7877   3.766  15.790   9.517 -0.1904  0.0956  0.0392
  522ERGO    R3 7878   3.747  16.062   9.518  0.0562  0.1147  0.0888
  522ERGO    R4 7879   3.866  15.996   9.258 -0.4334  0.0199 -0.1186
  522ERGO    R5 7880   3.946  16.135   9.406 -0.0588 -0.0581 -0.2389
  522ERGO    C1 7881   3.906  16.371   9.108 -0.3433 -0.0061 -0.1641
  522ERGO    C2 7882   3.930  16.644   8.789 -0.0158  0.0136 -0.3111
  523ERGO   ROH 7883   6.458  13.117  10.766  0.0483 -0.0923 -0.1555
  523ERGO    R1 7884   6.427  12.978  10.521 -0.0297 -0.1636 -0.1047
  523ERGO    R2 7885   6.245  12.772  10.490 -0.2398  0.0158 -0.0671
  523ERGO    R3 7886   6.160  12.923  10.281 -0.0209  0.0177 -0.1586
  523ERGO    R4 7887   6.117  12.646  10.195 -0.3160  0.0163 -0.0350
  523ERGO    R5 7888   6.227  12.800  10.087 -0.1131 -0.1559 -0.0858
  523ERGO    C1 7889   5.962  12.715   9.826 -0.1548  0.0184 -0.1020
  523ERGO    C2 7890   6.016  12.588   9.535  0.0672 -0.1938 -0.1324
  524ERGO   ROH 7891   4.978  12.651  10.097 -0.2060 -0.1220 -0.1975
  524ERGO    R1 7892   5.021  12.807   9.865 -0.0738 -0.0491 -0.1258
  524ERGO    R2 7893   5.196  12.731   9.665 -0.0271 -0.0317 -0.0926
  524ERGO    R3 7894   4.978  12.763   9.506  0.0380  0.0968 -0.1574
  524ERGO    R4 7895   5.205  12.765   9.321  0.0931 -0.0388 -0.0904
  524ERGO    R5 7896   5.049  12.916   9.337  0.1782  0.0535 -0.1379
  524ERGO    C1 7897   5.006  12.815   8.972  0.2242  0.0778 -0.1502
  524ERGO    C2 7898   4.938  12.817   8.647  0.0056 -0.0371  0.1244
  525ERGO   ROH 7899   0.181   5.028  10.267 -0.1288  0.0884 -0.1126
  525ERGO    R1 7900   0.282   5.014  10.003 -0.0649  0.1259 -0.0902
  525ERGO    R2 7901   0.171   4.850   9.809  0.0597  0.0600 -0.1049
  525ERGO    R3 7902   0.157   5.082   9.668 -0.0274  0.0450 -0.1216
  525ERGO    R4 7903   0.206   4.875   9.467  0.2639  0.0670 -0.0849
  525ERGO    R5 7904   0.322   5.057   9.496  0.1072  0.1609 -0.0147
  525ERGO    C1 7905   0.213   5.107   9.134  0.3010  0.0571 -0.0890
  525ERGO    C2 7906   0.180   5.130   8.905 -0.0965 -0.2301 -0.1061
  526ERGO   ROH 7907  14.531   0.007  10.061 -0.1797 -0.0517  0.0786
  526ERGO    R1 7908  14.545  -0.019   9.779 -0.1241  0.0411  0.0721
  526ERGO    R2 7909  14.723  -0.190   9.654 -0.0308  0.1547  0.0458
  526ERGO    R3 7910  14.498  -0.285   9.536  0.0277  0.0951 -0.0179
  526ERGO    R4 7911  14.699  -0.286   9.323  0.0695  0.2148  0.0211
  526ERGO    R5 7912  14.503  -0.193   9.315  0.0362  0.1428  0.0026
  526ERGO    C1 7913  14.474  -0.431   9.019  0.1830  0.1940 -0.0532
  526ERGO    C2 7914  14.463  -0.562   8.725  0.0248  0.2288 -0.1111
  527ERGO   ROH 7915   5.005   7.660  10.394  0.2457 -0.0274  0.2557
  527ERGO    R1 7916   5.177   7.712  10.175  0.1049  0.0124  0.1523
  527ERGO    R2 7917   5.418   7.582  10.142  0.1132  0.0599  0.0030
  527ERGO    R3 7918   5.316   7.522   9.897 -0.0248  0.0460  0.0641
  527ERGO    R4 7919   5.601   7.563   9.849 -0.0480  0.0053 -0.0953
  527ERGO    R5 7920   5.437   7.661   9.745 -0.0903  0.0131 -0.0170
  527ERGO    C1 7921   5.611   7.496   9.449 -0.2714 -0.0394 -0.0952
  527ERGO    C2 7922   5.721   7.506   9.187 -0.2034  0.1809 -0.1285
  528ERGO   ROH 7923  13.556  13.799  10.000  0.0769 -0.2327  0.0004
  528ERGO    R1 7924  13.594  13.690   9.741  0.1094 -0.0869 -0.0563
  528ERGO    R2 7925  13.405  13.714   9.541  0.0418 -0.1596  0.0014
  528ERGO    R3 7926  13.614  13.818   9.401 -0.0795  0.0802 -0.0073
  528ERGO    R4 7927  13.435  13.707   9.196  0.0924 -0.2442  0.0070
  528ERGO    R5 7928  13.648  13.664   9.221  0.1555  0.0559  0.0518
  528ERGO    C1 7929  13.649  13.801   8.865  0.0079 -0.0684  0.0018
  528ERGO    C2 7930  13.694  13.684   8.505 -0.0320  0.1730  0.0825
  529ERGO   ROH 7931   9.802   0.893  10.224  0.1995 -0.3591  0.0014
  529ERGO    R1 7932   9.751   0.806   9.959  0.1408 -0.2064 -0.0382
  529ERGO    R2 7933   9.551   0.916   9.803  0.1285 -0.0930  0.0575
  529ERGO    R3 7934   9.755   0.955   9.627  0.1014 -0.0239  0.0410
  529ERGO    R4 7935   9.513   0.951   9.461  0.0941 -0.2178  0.0481
  529ERGO    R5 7936   9.691   0.829   9.433  0.1686 -0.1215  0.0801
  529ERGO    C1 7937   9.682   1.008   9.097  0.0488 -0.2257  0.0270
  529ERGO    C2 7938   9.638   1.009   8.778  0.2651 -0.0183 -0.1170
  530ERGO   ROH 7939   8.308   8.373  10.336  0.0677  0.2064 -0.1022
  530ERGO    R1 7940   8.298   8.193  10.118  0.2031  0.1107 -0.0308
  530ERGO    R2 7941   8.065   8.144   9.976  0.2469 -0.1053 -0.0236
  530ERGO    R3 7942   8.219   8.213   9.763  0.2096 -0.0886 -0.0456
  530ERGO    R4 7943   7.982   8.087   9.645  0.0696  0.1320 -0.0228
  530ERGO    R5 7944   8.190   8.034   9.607  0.0240  0.0122 -0.1351
  530ERGO    C1 7945   8.078   8.120   9.253 -0.0685  0.2859 -0.0430
  530ERGO    C2 7946   7.940   8.003   8.922  0.0774 -0.1971  0.3746
  531ERGO   ROH 7947  12.941  17.183  10.010 -0.2624  0.0756 -0.1152
  531ERGO    R1 7948  13.031  17.353   9.802  0.0396  0.0946  0.0252
  531ERGO    R2 7949  13.298  17.378   9.734  0.0967 -0.2640  0.1001
  531ERGO    R3 7950  13.207  17.314   9.486  0.0437  0.0529  0.0328
  531ERGO    R4 7951  13.488  17.383   9.445  0.0296  0.1178  0.0569
  531ERGO    R5 7952  13.318  17.467   9.340  0.0023  0.2488  0.2035
  531ERGO    C1 7953  13.514  17.326   9.045 -0.0594  0.6375 -0.0313
  531ERGO    C2 7954  13.551  17.297   8.630 -0.2755 -0.1037  0.0710
  532ERGO   ROH 7955   4.100   4.658  10.247 -0.1496 -0.3630 -0.0934
  532ERGO    R1 7956   4.095   4.771   9.987 -0.0185 -0.2144 -0.0323
  532ERGO    R2 7957   4.309   4.754   9.814  0.0001 -0.2763 -0.0002
  532ERGO    R3 7958   4.123   4.649   9.645 -0.0464 -0.0446 -0.0966
  532ERGO    R4 7959   4.366   4.676   9.482  0.0514 -0.2556  0.0033
  532ERGO    R5 7960   4.168   4.756   9.435  0.1472 -0.0374 -0.0556
  532ERGO    C1 7961   4.224   4.533   9.130  0.0375 -0.0261 -0.0850
  532ERGO    C2 7962   4.108   4.407   8.864  0.0273 -0.3808 -0.1402
  533ERGO   ROH 7963   8.210  12.481  10.417 -0.0599  0.1579 -0.1207
  533ERGO    R1 7964   8.213  12.557  10.144  0.0195  0.0965 -0.1383
  533ERGO    R2 7965   8.388  12.447   9.960  0.0720  0.0481 -0.0681
  533ERGO    R3 7966   8.159  12.394   9.823  0.1059  0.0224 -0.1133
  533ERGO    R4 7967   8.372  12.368   9.624  0.1552 -0.1742 -0.0211
  533ERGO    R5 7968   8.194  12.492   9.608  0.2020 -0.1368 -0.1667
  533ERGO    C1 7969   8.149  12.272   9.300  0.2357 -0.3278 -0.0360
  533ERGO    C2 7970   8.184  12.245   8.855 -0.3712  0.1730 -0.1510
  534ERGO   ROH 7971   4.149  15.762  10.085 -0.0757 -0.0609  0.0342
  534ERGO    R1 7972   4.192  15.790   9.807 -0.0052  0.0054  0.0509
  534ERGO    R2 7973   4.438  15.744   9.689  0.0147 -0.0157  0.0927
  534ERGO    R3 7974   4.294  15.574   9.533  0.0121  0.0571  0.0181
  534ERGO    R4 7975   4.449  15.735   9.344  0.1615 -0.0051  0.0968
  534ERGO    R5 7976   4.233  15.705   9.342  0.1535  0.0890 -0.0020
  534ERGO    C1 7977   4.320  15.570   8.996  0.2444  0.0694  0.0291
  534ERGO    C2 7978   4.293  15.644   8.560  0.1256 -0.0530 -0.1853
  535ERGO   ROH 7979  11.767   2.858  10.012  0.0363 -0.1839 -0.0769
  535ERGO    R1 7980  11.760   2.882   9.730 -0.0770 -0.1076 -0.0679
  535ERGO    R2 7981  11.864   2.689   9.561  0.0006  0.0131 -0.1568
  535ERGO    R3 7982  11.615   2.697   9.452 -0.0436 -0.1295 -0.0715
  535ERGO    R4 7983  11.782   2.568   9.248 -0.0001  0.1084 -0.1942
  535ERGO    R5 7984  11.654   2.742   9.220 -0.1515  0.0235 -0.0628
  535ERGO    C1 7985  11.500   2.506   8.963 -0.0418  0.0301 -0.1360
  535ERGO    C2 7986  11.153   2.602   8.746 -0.2407  0.0817  0.0624
  536ERGO   ROH 7987   3.107   4.069  10.329 -0.0004 -0.1063  0.0771
  536ERGO    R1 7988   3.205   4.246  10.131  0.0532 -0.0388  0.1641
  536ERGO    R2 7989   3.281   4.159   9.879  0.1637  0.0408  0.1740
  536ERGO    R3 7990   3.105   4.349   9.796  0.1723  0.0401  0.1509
  536ERGO    R4 7991   3.217   4.238   9.549  0.1321 -0.0390  0.1601
  536ERGO    R5 7992   3.211   4.449   9.606  0.1627 -0.0197  0.1100
  536ERGO    C1 7993   3.015   4.463   9.279  0.1217 -0.0860  0.1302
  536ERGO    C2 7994   3.065   4.509   9.045 -0.1472 -0.0819  0.1143
  537ERGO   ROH 7995   2.996   8.948  10.140  0.0302  0.0562  0.1205
  537ERGO    R1 7996   3.142   8.895   9.903  0.0382  0.1113  0.1139
  537ERGO    R2 7997   3.041   8.738   9.699  0.0546  0.1434  0.0852
  537ERGO    R3 7998   3.098   8.956   9.547  0.0425  0.1740  0.1230
  537ERGO    R4 7999   3.158   8.726   9.374  0.0977  0.2013  0.0978
  537ERGO    R5 8000   3.292   8.892   9.422  0.0698  0.2164  0.1390
  537ERGO    C1 8001   3.279   8.924   9.042  0.1114  0.2637  0.1406
  537ERGO    C2 8002   3.290   8.817   8.721 -0.2691  0.1361  0.2184
  538ERGO   ROH 8003   0.398  13.490   9.886  0.1325  0.0789  0.0833
  538ERGO    R1 8004   0.537  13.487   9.639  0.0946  0.1732  0.0607
  538ERGO    R2 8005   0.408  13.457   9.396  0.0717  0.1238  0.0804
  538ERGO    R3 8006   0.539  13.687   9.335 -0.0608  0.1994  0.0751
  538ERGO    R4 8007   0.505  13.551   9.078  0.0672  0.1416  0.0842
  538ERGO    R5 8008   0.692  13.624   9.162  0.0093  0.2700  0.1087
  538ERGO    C1 8009   0.685  13.822   8.836 -0.0598  0.2228  0.0812
  538ERGO    C2 8010   0.822  13.818   8.563 -0.2312  0.0395  0.2334
  539ERGO   ROH 8011   0.828   0.129  10.127 -0.0739 -0.1632 -0.1629
  539ERGO    R1 8012   0.758   0.116   9.853 -0.0153 -0.0839 -0.1806
  539ERGO    R2 8013   0.885   0.267   9.660  0.1374 -0.1555 -0.1278
  539ERGO    R3 8014   0.923   0.025   9.542 -0.0056 -0.1680 -0.1533
  539ERGO    R4 8015   0.948   0.219   9.324  0.1626 -0.1408 -0.1262
  539ERGO    R5 8016   0.816   0.046   9.329  0.0392 -0.0590 -0.1720
  539ERGO    C1 8017   1.021  -0.036   9.017  0.0429 -0.1440 -0.1493
  539ERGO    C2 8018   1.079   0.043   8.664 -0.0004  0.2821 -0.0646
  540ERGO   ROH 8019   6.477  11.097  10.251 -0.1742  0.0491 -0.0778
  540ERGO    R1 8020   6.337  11.192  10.024  0.0152  0.3285 -0.0829
  540ERGO    R2 8021   6.430  11.400   9.868  0.4691  0.1103 -0.1202
  540ERGO    R3 8022   6.400  11.219   9.667  0.0585  0.1372 -0.0905
  540ERGO    R4 8023   6.422  11.477   9.531  0.3411  0.0972 -0.1204
  540ERGO    R5 8024   6.263  11.331   9.506  0.1049  0.3276  0.0006
  540ERGO    C1 8025   6.389  11.351   9.147 -0.1190  0.1147 -0.0927
  540ERGO    C2 8026   6.296  11.240   8.920  0.2154 -0.0374 -0.1111
  541ERGO   ROH 8027  16.233   5.766  10.356  0.0481 -0.2279 -0.0825
  541ERGO    R1 8028  16.295   5.782  10.081 -0.0360 -0.1038 -0.0937
  541ERGO    R2 8029  16.262   5.569   9.908 -0.0352 -0.0393 -0.1642
  541ERGO    R3 8030  16.115   5.749   9.766 -0.1171 -0.0202 -0.0588
  541ERGO    R4 8031  16.255   5.590   9.563  0.1592  0.3117 -0.1526
  541ERGO    R5 8032  16.256   5.808   9.581 -0.0498  0.3042  0.0814
  541ERGO    C1 8033  16.113   5.771   9.229  0.1952  0.5338 -0.0470
  541ERGO    C2 8034  15.878   5.895   8.933 -0.0101 -0.2488 -0.2816
  542ERGO   ROH 8035  13.065   1.818  10.008  0.1423 -0.3072  0.0167
  542ERGO    R1 8036  13.154   1.958   9.779  0.0694 -0.1891  0.0599
  542ERGO    R2 8037  13.233   1.830   9.547  0.1968 -0.0794  0.0415
  542ERGO    R3 8038  13.048   1.993   9.432  0.0902 -0.1907  0.0534
  542ERGO    R4 8039  13.166   1.843   9.208  0.3045  0.0170  0.0233
  542ERGO    R5 8040  13.149   2.060   9.225  0.1039 -0.0036  0.1193
  542ERGO    C1 8041  12.953   2.004   8.903  0.2670 -0.0314  0.0237
  542ERGO    C2 8042  12.923   2.024   8.546 -0.0787  0.0227  0.1647
  543ERGO   ROH 8043  15.508   6.463  10.327  0.1642  0.1644  0.0775
  543ERGO    R1 8044  15.513   6.481  10.045  0.3669 -0.1105  0.0603
  543ERGO    R2 8045  15.473   6.719   9.910  0.0092 -0.3163 -0.2073
  543ERGO    R3 8046  15.710   6.656   9.794  0.2410  0.0313  0.0569
  543ERGO    R4 8047  15.572   6.818   9.594  0.0275 -0.5081 -0.2641
  543ERGO    R5 8048  15.657   6.620   9.564  0.4773 -0.3833  0.0532
  543ERGO    C1 8049  15.853   6.817   9.302  0.2557 -0.2935 -0.0491
  543ERGO    C2 8050  16.035   7.208   9.230 -0.1065  0.1636 -0.1355
  544ERGO   ROH 8051   8.060  10.266  10.111 -0.1224  0.1799 -0.0564
  544ERGO    R1 8052   8.240  10.379   9.924  0.0471 -0.0094 -0.0113
  544ERGO    R2 8053   8.391  10.224   9.751 -0.1296 -0.1694 -0.0313
  544ERGO    R3 8054   8.277  10.383   9.562  0.0906  0.0234 -0.0057
  544ERGO    R4 8055   8.507  10.262   9.427 -0.0926 -0.2924 -0.0322
  544ERGO    R5 8056   8.462  10.474   9.441  0.2170 -0.2280 -0.0031
  544ERGO    C1 8057   8.467  10.433   9.062  0.1358 -0.1829 -0.0084
  544ERGO    C2 8058   8.550  10.422   8.733  0.0428  0.0672 -0.0343
  545ERGO   ROH 8059   1.329  12.421   9.751 -0.0311 -0.0965  0.0234
  545ERGO    R1 8060   1.289  12.340   9.482 -0.0279 -0.0390  0.0055
  545ERGO    R2 8061   1.389  12.483   9.268 -0.0382  0.0146  0.0367
  545ERGO    R3 8062   1.500  12.244   9.201 -0.0241  0.0364 -0.0181
  545ERGO    R4 8063   1.600  12.432   8.999  0.0800  0.1213  0.1082
  545ERGO    R5 8064   1.498  12.243   8.961  0.0835  0.1430 -0.0211
  545ERGO    C1 8065   1.827  12.178   8.780  0.1621  0.2038  0.0985
  545ERGO    C2 8066   2.153  12.198   8.725  0.1689 -0.1824  0.3453
  546ERGO   ROH 8067  16.175  16.344   9.906  0.0149 -0.0195 -0.0257
  546ERGO    R1 8068  16.127  16.187   9.675 -0.0669 -0.0521  0.0119
  546ERGO    R2 8069  15.901  16.219   9.518 -0.0500  0.0330 -0.0028
  546ERGO    R3 8070  16.084  16.249   9.319 -0.0261 -0.1148 -0.0029
  546ERGO    R4 8071  15.856  16.120   9.189 -0.1590  0.1483 -0.0220
  546ERGO    R5 8072  16.062  16.051   9.186 -0.2322 -0.0628 -0.0438
  546ERGO    C1 8073  16.001  16.091   8.812 -0.2001  0.0764 -0.0335
  546ERGO    C2 8074  15.946  16.004   8.569 -0.1892 -0.1186  0.4848
  547ERGO   ROH 8075  16.178   0.986  10.210  0.0173  0.0358  0.0453
  547ERGO    R1 8076  16.310   1.139  10.013  0.0425 -0.0309  0.0081
  547ERGO    R2 8077  16.458   1.025   9.809  0.0985 -0.1022  0.0775
  547ERGO    R3 8078  16.296   1.174   9.651  0.1076 -0.1843 -0.0073
  547ERGO    R4 8079  16.485   1.050   9.466  0.0715 -0.3041  0.0600
  547ERGO    R5 8080  16.441   1.262   9.483  0.0949 -0.2990 -0.0690
  547ERGO    C1 8081  16.348   1.205   9.117  0.0647 -0.4987 -0.0297
  547ERGO    C2 8082  16.340   1.370   8.737  0.1408 -0.0861 -0.1784
  548ERGO   ROH 8083   5.024   0.846  10.159 -0.0049 -0.2880 -0.0396
  548ERGO    R1 8084   4.851   0.783   9.944 -0.1476 -0.0496  0.0016
  548ERGO    R2 8085   4.708   0.976   9.807  0.1027  0.1563  0.0184
  548ERGO    R3 8086   4.829   0.864   9.590 -0.1027 -0.0397  0.0018
  548ERGO    R4 8087   4.664   1.081   9.480  0.1200  0.1306  0.0083
  548ERGO    R5 8088   4.662   0.872   9.419 -0.1511  0.1189  0.0568
  548ERGO    C1 8089   4.752   1.037   9.087 -0.0628 -0.0684 -0.0131
  548ERGO    C2 8090   4.745   1.059   8.719 -0.1243 -0.0505  0.1742
  549ERGO   ROH 8091   8.939  16.727  10.294 -0.2039  0.2080  0.0493
  549ERGO    R1 8092   8.830  16.846  10.061 -0.0056  0.5021  0.1016
  549ERGO    R2 8093   8.966  17.038   9.914  0.5298  0.0249 -0.0619
  549ERGO    R3 8094   8.919  16.866   9.709 -0.2057  0.0921  0.0207
  549ERGO    R4 8095   8.985  17.120   9.579  0.5136 -0.1304 -0.1017
  549ERGO    R5 8096   8.808  16.999   9.544  0.0702  0.4169  0.0825
  549ERGO    C1 8097   8.953  17.007   9.191 -0.1862 -0.1576 -0.0473
  549ERGO    C2 8098   8.959  16.869   8.841  0.0920  0.0552  0.0436
  550ERGO   ROH 8099  11.278   1.997  10.043 -0.0427  0.0088 -0.0067
  550ERGO    R1 8100  11.275   1.858   9.796 -0.1075 -0.1116  0.0605
  550ERGO    R2 8101  11.058   1.710   9.711 -0.2592  0.1147  0.0418
  550ERGO    R3 8102  11.078   1.867   9.490  0.0335 -0.0158 -0.0285
  550ERGO    R4 8103  10.971   1.612   9.391 -0.5076  0.1494  0.0965
  550ERGO    R5 8104  11.148   1.717   9.317 -0.2959 -0.2402  0.0247
  550ERGO    C1 8105  10.940   1.702   8.997 -0.3776  0.0470  0.0625
  550ERGO    C2 8106  10.982   1.787   8.672  0.0485  0.0840 -0.0259
  551ERGO   ROH 8107   4.970  12.212   9.966 -0.2032  0.0289 -0.1445
  551ERGO    R1 8108   5.026  12.315   9.708 -0.3059  0.2481 -0.0833
  551ERGO    R2 8109   5.143  12.162   9.508  0.1018  0.5566 -0.1048
  551ERGO    R3 8110   4.925  12.240   9.366 -0.0158  0.1609 -0.1491
  551ERGO    R4 8111   5.140  12.230   9.170 -0.0167  0.4042 -0.1346
  551ERGO    R5 8112   5.008  12.398   9.209 -0.2693  0.2159 -0.2185
  551ERGO    C1 8113   4.933  12.343   8.839 -0.1961 -0.0560 -0.1935
  551ERGO    C2 8114   5.063  12.394   8.490 -0.1558 -0.0407 -0.3379
  552ERGO   ROH 8115   5.012  10.265  10.211  0.2876  0.2637  0.2079
  552ERGO    R1 8116   4.952  10.225   9.937  0.1539  0.1241  0.2556
  552ERGO    R2 8117   5.035  10.399   9.739 -0.0544  0.0954  0.1374
  552ERGO    R3 8118   5.142  10.174   9.630  0.0095  0.1110  0.1683
  552ERGO    R4 8119   5.139  10.368   9.411 -0.0282  0.0825  0.1472
  552ERGO    R5 8120   5.054  10.167   9.408  0.0245  0.0617  0.1651
  552ERGO    C1 8121   5.299  10.138   9.118  0.0469  0.0897  0.1821
  552ERGO    C2 8122   5.646  10.112   8.893 -0.2977  0.0465  0.2190
  553ERGO   ROH 8123  13.122   0.718   9.777  0.1441 -0.2147  0.0340
  553ERGO    R1 8124  13.005   0.656   9.526  0.1338 -0.0340 -0.0070
  553ERGO    R2 8125  12.990   0.840   9.320  0.1274  0.1159  0.1234
  553ERGO    R3 8126  13.116   0.644   9.180  0.1211  0.2138 -0.0208
  553ERGO    R4 8127  12.943   0.775   8.984  0.0122  0.2618  0.1103
  553ERGO    R5 8128  12.950   0.563   9.028  0.0836  0.2436  0.0063
  553ERGO    C1 8129  13.033   0.553   8.657 -0.0609  0.4387 -0.0326
  553ERGO    C2 8130  13.026   0.605   8.237 -0.0992  0.2644  0.0496
  554ERGO   ROH 8131  15.785  10.157  10.174  0.3630  0.0355 -0.1100
  554ERGO    R1 8132  15.827  10.085   9.903  0.3526  0.1882 -0.1533
  554ERGO    R2 8133  15.637   9.950   9.755  0.5249 -0.1491 -0.0792
  554ERGO    R3 8134  15.670  10.158   9.583  0.0198 -0.0282 -0.0437
  554ERGO    R4 8135  15.657   9.921   9.411  0.5765 -0.0341 -0.0866
  554ERGO    R5 8136  15.814  10.072   9.412  0.2223  0.3472 -0.0697
  554ERGO    C1 8137  15.699  10.099   9.050  0.1324  0.1462 -0.0576
  554ERGO    C2 8138  15.650  10.181   8.678 -0.0330  0.1483 -0.4147
  555ERGO   ROH 8139   2.622  12.437   9.857  0.0096  0.3416  0.0679
  555ERGO    R1 8140   2.676  12.459   9.580 -0.0441  0.0759  0.0351
  555ERGO    R2 8141   2.538  12.313   9.389 -0.2875  0.1135  0.1825
  555ERGO    R3 8142   2.493  12.558   9.282 -0.0071  0.0993  0.0194
  555ERGO    R4 8143   2.456  12.371   9.059 -0.2803 -0.0175  0.1561
  555ERGO    R5 8144   2.587  12.545   9.062 -0.0627 -0.1721  0.0069
  555ERGO    C1 8145   2.365  12.636   8.765 -0.0129 -0.1072 -0.0124
  555ERGO    C2 8146   2.286  12.757   8.446  0.1506 -0.0908 -0.2119
  556ERGO   ROH 8147  12.300   9.293  10.309  0.0012  0.0339  0.0633
  556ERGO    R1 8148  12.311   9.219  10.036 -0.2066  0.0687  0.0446
  556ERGO    R2 8149  12.192   9.367   9.836  0.0272  0.3436  0.1110
  556ERGO    R3 8150  12.441   9.362   9.728 -0.0009 -0.1107  0.0431
  556ERGO    R4 8151  12.259   9.354   9.498 -0.0973  0.2155  0.0890
  556ERGO    R5 8152  12.421   9.214   9.540 -0.3287 -0.0874  0.0470
  556ERGO    C1 8153  12.532   9.342   9.198 -0.1961 -0.2855  0.0124
  556ERGO    C2 8154  12.556   9.238   8.941  0.2925 -0.2132 -0.3572
  557ERGO   ROH 8155   1.494  10.259   9.568  0.2686 -0.0461  0.0535
  557ERGO    R1 8156   1.567  10.072   9.368 -0.0328 -0.0024 -0.1027
  557ERGO    R2 8157   1.520  10.117   9.099  0.0343  0.3009 -0.0680
  557ERGO    R3 8158   1.787  10.069   9.078 -0.0357 -0.1140 -0.1041
  557ERGO    R4 8159   1.703  10.145   8.807  0.1159  0.4659 -0.0028
  557ERGO    R5 8160   1.812   9.965   8.864 -0.1892  0.1831 -0.2739
  557ERGO    C1 8161   2.060  10.116   8.617  0.0976  0.1725  0.0015
  557ERGO    C2 8162   2.317  10.102   8.389 -0.2013 -0.2314  0.1749
  558ERGO   ROH 8163   2.598   0.281  10.527 -0.0475 -0.0840 -0.0027
  558ERGO    R1 8164   2.420   0.331  10.312 -0.0277 -0.0330 -0.0078
  558ERGO    R2 8165   2.424   0.566  10.167  0.0411 -0.0309 -0.0062
  558ERGO    R3 8166   2.449   0.397   9.955  0.0028 -0.0369 -0.0057
  558ERGO    R4 8167   2.374   0.655   9.837 -0.1634 -0.0801  0.0100
  558ERGO    R5 8168   2.274   0.464   9.805 -0.1001 -0.1226  0.0767
  558ERGO    C1 8169   2.369   0.549   9.446 -0.3184 -0.1145  0.0198
  558ERGO    C2 8170   2.456   0.522   9.126 -0.0804 -0.0634 -0.0157
  559ERGO   ROH 8171  14.726  15.434   9.988 -0.1454  0.1251 -0.1474
  559ERGO    R1 8172  14.768  15.297   9.744  0.0858  0.1139 -0.1025
  559ERGO    R2 8173  14.560  15.217   9.580  0.2296 -0.1273 -0.1641
  559ERGO    R3 8174  14.698  15.356   9.392  0.1635 -0.0333 -0.1450
  559ERGO    R4 8175  14.550  15.152   9.241  0.0970  0.0386 -0.1940
  559ERGO    R5 8176  14.765  15.189   9.233  0.1003  0.0386 -0.2540
  559ERGO    C1 8177  14.673  15.244   8.866 -0.0421  0.2235 -0.1936
  559ERGO    C2 8178  14.603  15.311   8.495 -0.0518 -0.2528  0.0380
  560ERGO   ROH 8179   3.155   6.735  10.136  0.0336 -0.0576 -0.0640
  560ERGO    R1 8180   3.132   6.856   9.881  0.0587 -0.0623 -0.0685
  560ERGO    R2 8181   3.199   7.119   9.835  0.0929 -0.0714 -0.0736
  560ERGO    R3 8182   3.356   7.012   9.641  0.0877 -0.0970 -0.0638
  560ERGO    R4 8183   3.335   7.296   9.571  0.1051 -0.1029 -0.0886
  560ERGO    R5 8184   3.291   7.127   9.441  0.0961 -0.1110 -0.0741
  560ERGO    C1 8185   3.563   7.298   9.236  0.1073 -0.1453 -0.0880
  560ERGO    C2 8186   3.687   7.452   8.945  0.1300  0.0503  0.0622
  561ERGO   ROH 8187  12.870  15.005  10.053 -0.0398 -0.0965  0.0045
  561ERGO    R1 8188  12.864  14.947   9.777 -0.2409  0.0805 -0.0316
  561ERGO    R2 8189  12.768  15.125   9.589 -0.0766  0.3341  0.1183
  561ERGO    R3 8190  13.011  15.085   9.474 -0.1767  0.0653 -0.0074
  561ERGO    R4 8191  12.842  15.190   9.258 -0.1622  0.2964  0.0917
  561ERGO    R5 8192  12.959  15.006   9.253 -0.3782  0.1570  0.0051
  561ERGO    C1 8193  13.113  15.190   8.956 -0.3060  0.0224 -0.0417
  561ERGO    C2 8194  13.173  15.206   8.529  0.1812  0.2626 -0.0659
  562ERGO   ROH 8195   2.040   8.852  10.358 -0.2194 -0.0076 -0.0815
  562ERGO    R1 8196   2.109   8.737  10.109 -0.1606  0.0249 -0.0797
  562ERGO    R2 8197   1.923   8.618   9.943 -0.1226  0.0631 -0.1450
  562ERGO    R3 8198   2.023   8.792   9.759 -0.0622  0.0812 -0.0962
  562ERGO    R4 8199   2.028   8.530   9.626 -0.1163  0.1044 -0.1550
  562ERGO    R5 8200   2.196   8.667   9.649 -0.0816  0.0593 -0.1074
  562ERGO    C1 8201   2.184   8.642   9.269 -0.0559  0.1453 -0.1149
  562ERGO    C2 8202   2.334   8.675   8.977 -0.2759  0.1331  0.0342
  563ERGO   ROH 8203   5.199  11.339  10.441  0.0982 -0.0493 -0.0515
  563ERGO    R1 8204   5.303  11.254  10.192 -0.0425 -0.0230 -0.1199
  563ERGO    R2 8205   5.148  11.237   9.964 -0.1148  0.2370 -0.0902
  563ERGO    R3 8206   5.342  11.396   9.859  0.0099  0.1073 -0.0598
  563ERGO    R4 8207   5.251  11.230   9.634 -0.0922  0.1823 -0.0823
  563ERGO    R5 8208   5.457  11.254   9.703 -0.0773  0.0310 -0.0594
  563ERGO    C1 8209   5.493  11.375   9.343  0.0381  0.0288 -0.0490
  563ERGO    C2 8210   5.542  11.324   9.003 -0.1188 -0.1959  0.3186
  564ERGO   ROH 8211   6.886  15.620  10.101  0.1991 -0.1875  0.1527
  564ERGO    R1 8212   7.040  15.654   9.865  0.1701 -0.2521  0.1246
  564ERGO    R2 8213   6.999  15.503   9.638 -0.0578 -0.1129  0.0713
  564ERGO    R3 8214   6.976  15.746   9.519  0.1698 -0.0348  0.1809
  564ERGO    R4 8215   7.122  15.582   9.324 -0.1591 -0.1481  0.0218
  564ERGO    R5 8216   7.184  15.776   9.403  0.1361 -0.2520  0.0592
  564ERGO    C1 8217   7.172  15.856   9.031 -0.0044 -0.0952  0.0959
  564ERGO    C2 8218   7.216  15.864   8.667  0.0734 -0.1518 -0.3535
  565ERGO   ROH 8219   9.377  17.807  10.276  0.1139 -0.0555  0.1205
  565ERGO    R1 8220   9.270  17.791  10.015  0.0164  0.0370  0.1518
  565ERGO    R2 8221   9.426  17.822   9.788 -0.0771  0.2000  0.0955
  565ERGO    R3 8222   9.319  17.581   9.722 -0.0214  0.1941  0.0347
  565ERGO    R4 8223   9.421  17.687   9.470 -0.0621  0.2669  0.0685
  565ERGO    R5 8224   9.219  17.616   9.508 -0.0341  0.2133  0.0529
  565ERGO    C1 8225   9.318  17.382   9.223 -0.0013  0.3001 -0.0043
  565ERGO    C2 8226   9.538  17.298   9.038  0.2588  0.0863  0.3462
  566ERGO   ROH 8227   2.261  10.729  10.016  0.2278  0.3166  0.1108
  566ERGO    R1 8228   2.308  10.740   9.738  0.1269  0.1586  0.0865
  566ERGO    R2 8229   2.494  10.911   9.626  0.0813  0.0999 -0.0770
  566ERGO    R3 8230   2.590  10.683   9.515  0.0479  0.0388  0.0165
  566ERGO    R4 8231   2.684  10.896   9.338  0.1321 -0.0464 -0.0381
  566ERGO    R5 8232   2.573  10.719   9.279  0.1011 -0.0383  0.0008
  566ERGO    C1 8233   2.886  10.673   9.066  0.1304 -0.1889  0.0726
  566ERGO    C2 8234   3.280  10.787   8.818  0.2470  0.1529 -0.0100
  567ERGO   ROH 8235   0.191  17.137  10.058 -0.0684 -0.1472  0.0368
  567ERGO    R1 8236   0.309  17.051   9.816 -0.0562 -0.1663  0.0494
  567ERGO    R2 8237   0.168  16.914   9.622 -0.0427 -0.1957  0.0595
  567ERGO    R3 8238   0.260  17.113   9.461 -0.0497 -0.2071  0.0415
  567ERGO    R4 8239   0.116  16.931   9.281 -0.0880 -0.1990  0.0662
  567ERGO    R5 8240   0.322  17.000   9.258 -0.0865 -0.2159  0.0359
  567ERGO    C1 8241   0.173  17.126   8.930 -0.1209 -0.2120  0.0531
  567ERGO    C2 8242   0.026  16.958   8.672 -0.2219 -0.1651 -0.4156
  568ERGO   ROH 8243   8.017  11.355  10.315  0.1561 -0.2727  0.1066
  568ERGO    R1 8244   8.023  11.442  10.046  0.2444 -0.1451  0.1500
  568ERGO    R2 8245   8.229  11.378   9.873  0.1517 -0.3165  0.1057
  568ERGO    R3 8246   8.026  11.287   9.717  0.0239  0.0138  0.0693
  568ERGO    R4 8247   8.213  11.411   9.529  0.2381 -0.2271  0.1095
  568ERGO    R5 8248   8.000  11.454   9.548  0.2928  0.0902  0.0964
  568ERGO    C1 8249   8.013  11.345   9.183  0.1685  0.1350  0.0774
  568ERGO    C2 8250   8.060  11.294   8.823  0.2119 -0.0301 -0.0462
  569ERGO   ROH 8251   1.273  11.940   9.915 -0.1693 -0.0780 -0.0475
  569ERGO    R1 8252   1.180  11.806   9.684 -0.1350 -0.0057 -0.1027
  569ERGO    R2 8253   1.229  11.900   9.428  0.0882 -0.0409 -0.0715
  569ERGO    R3 8254   1.330  11.651   9.391 -0.0811 -0.1200 -0.0164
  569ERGO    R4 8255   1.271  11.748   9.121  0.1771 -0.0475 -0.0567
  569ERGO    R5 8256   1.202  11.561   9.209 -0.0329 -0.0045 -0.1128
  569ERGO    C1 8257   1.390  11.425   8.907  0.0699 -0.1257  0.0035
  569ERGO    C2 8258   1.372  11.380   8.499 -0.1468 -0.0731 -0.2010
  570ERGO   ROH 8259  16.956  16.981   9.969  0.0086  0.3665  0.1652
  570ERGO    R1 8260  16.973  17.148   9.741 -0.0474  0.2140  0.0477
  570ERGO    R2 8261  17.161  17.110   9.542  0.0048  0.1738  0.1047
  570ERGO    R3 8262  16.942  17.108   9.381  0.0306 -0.0609  0.0696
  570ERGO    R4 8263  17.169  17.154   9.200  0.0020  0.3304  0.1241
  570ERGO    R5 8264  16.988  17.276   9.216 -0.1734  0.0763  0.1482
  570ERGO    C1 8265  16.968  17.178   8.848  0.0244  0.2012  0.1023
  570ERGO    C2 8266  17.127  17.231   8.565 -0.0053  0.1907 -0.0074
  571ERGO   ROH 8267   5.535   2.020  10.430 -0.1677  0.0936 -0.0498
  571ERGO    R1 8268   5.684   1.939  10.203 -0.1373  0.0854 -0.0271
  571ERGO    R2 8269   5.576   1.779  10.005 -0.0791 -0.0071  0.0154
  571ERGO    R3 8270   5.659   1.981   9.843 -0.1510 -0.0209 -0.0389
  571ERGO    R4 8271   5.604   1.758   9.661  0.0115 -0.1196  0.0291
  571ERGO    R5 8272   5.789   1.872   9.674 -0.0523 -0.0140  0.0310
  571ERGO    C1 8273   5.698   1.935   9.309 -0.0032 -0.1980 -0.0141
  571ERGO    C2 8274   5.620   2.079   9.024 -0.1231 -0.5038 -0.0218
  572ERGO   ROH 8275   3.903  10.005  10.067  0.0774  0.0645 -0.0256
  572ERGO    R1 8276   4.099   9.994   9.863  0.0737 -0.0613 -0.0231
  572ERGO    R2 8277   4.096   9.802   9.664 -0.0539 -0.0529 -0.0307
  572ERGO    R3 8278   4.104  10.018   9.500  0.0956 -0.0513 -0.0223
  572ERGO    R4 8279   4.134   9.788   9.321 -0.1500 -0.0724 -0.0407
  572ERGO    R5 8280   4.267   9.961   9.334  0.0058 -0.1877 -0.0648
  572ERGO    C1 8281   4.164   9.984   8.967 -0.0656 -0.0825 -0.0386
  572ERGO    C2 8282   4.176   9.829   8.647 -0.1541  0.3674 -0.0253
  573ERGO   ROH 8283   6.160   2.161  10.580 -0.0843  0.0740  0.0256
  573ERGO    R1 8284   6.117   2.066  10.317 -0.0823  0.1023  0.0124
  573ERGO    R2 8285   5.999   2.220  10.121 -0.1781  0.0962  0.0460
  573ERGO    R3 8286   6.224   2.157   9.982 -0.1632  0.2139  0.0204
  573ERGO    R4 8287   6.042   2.272   9.782 -0.3634 -0.2298 -0.0301
  573ERGO    R5 8288   6.143   2.078   9.770 -0.1438 -0.1133  0.1410
  573ERGO    C1 8289   6.278   2.243   9.454 -0.4573 -0.3091 -0.0982
  573ERGO    C2 8290   6.432   2.336   9.208  0.2685  0.1004  0.1529
  574ERGO   ROH 8291   4.308   3.746   9.832  0.2131  0.2593 -0.0171
  574ERGO    R1 8292   4.467   3.753   9.598  0.1745  0.0330 -0.0523
  574ERGO    R2 8293   4.622   3.538   9.516  0.0048 -0.1175  0.0211
  574ERGO    R3 8294   4.483   3.569   9.284 -0.0158 -0.1307  0.0303
  574ERGO    R4 8295   4.740   3.457   9.201  0.0788  0.0987 -0.0089
  574ERGO    R5 8296   4.647   3.638   9.125 -0.0611  0.0621  0.0612
  574ERGO    C1 8297   4.679   3.439   8.801  0.1026  0.2122 -0.0178
  574ERGO    C2 8298   4.474   3.263   8.557  0.0868  0.1486  0.1015
  575ERGO   ROH 8299  17.457  13.028   9.580 -0.1928 -0.1677  0.0431
  575ERGO    R1 8300  17.513  12.949   9.314 -0.0789 -0.0965  0.0452
  575ERGO    R2 8301  17.319  12.936   9.118 -0.0006 -0.0688 -0.0366
  575ERGO    R3 8302  17.490  13.098   8.983  0.0368 -0.0169  0.0727
  575ERGO    R4 8303  17.342  12.957   8.774  0.1944 -0.0408 -0.0227
  575ERGO    R5 8304  17.558  12.969   8.794  0.1800  0.0132  0.1034
  575ERGO    C1 8305  17.516  13.122   8.447  0.3431  0.0242  0.0879
  575ERGO    C2 8306  17.525  13.152   8.065 -0.2012  0.0970  0.1378
  576ERGO   ROH 8307   7.103   9.164  10.470  0.0042 -0.0665 -0.1120
  576ERGO    R1 8308   7.061   9.022  10.229  0.0467 -0.0904 -0.1064
  576ERGO    R2 8309   6.984   9.146   9.994 -0.1225 -0.1390 -0.0824
  576ERGO    R3 8310   7.204   9.021   9.895 -0.0486  0.0409 -0.1469
  576ERGO    R4 8311   7.040   9.081   9.660 -0.1138 -0.0064 -0.1066
  576ERGO    R5 8312   7.120   8.887   9.716  0.0263  0.0349 -0.1737
  576ERGO    C1 8313   7.280   8.926   9.371 -0.0393  0.2396 -0.1812
  576ERGO    C2 8314   7.418   8.765   9.122  0.0736  0.0220  0.1655
  577ERGO   ROH 8315   8.490   2.093   9.861  0.1235 -0.1289  0.1237
  577ERGO    R1 8316   8.364   2.021   9.618  0.0551  0.1094  0.0858
  577ERGO    R2 8317   8.373   2.180   9.392  0.3401  0.1429  0.1192
  577ERGO    R3 8318   8.468   1.953   9.276  0.0175  0.0157  0.0917
  577ERGO    R4 8319   8.353   2.108   9.055  0.0726  0.1281  0.1358
  577ERGO    R5 8320   8.307   1.901   9.107 -0.1394  0.1825  0.1840
  577ERGO    C1 8321   8.430   1.853   8.749 -0.3860  0.0001  0.1199
  577ERGO    C2 8322   8.420   1.985   8.397 -0.0738 -0.5775  0.2240
  578ERGO   ROH 8323  15.975   3.007  10.286  0.0894 -0.0000  0.1575
  578ERGO    R1 8324  16.095   2.924  10.043 -0.0322 -0.1482  0.1478
  578ERGO    R2 8325  16.037   2.680   9.924 -0.3690 -0.0637  0.1347
  578ERGO    R3 8326  15.982   2.837   9.709 -0.1650  0.0282  0.1456
  578ERGO    R4 8327  16.086   2.588   9.595 -0.3290 -0.0327  0.1307
  578ERGO    R5 8328  16.158   2.789   9.554 -0.1485 -0.0823  0.1976
  578ERGO    C1 8329  16.062   2.680   9.201 -0.1141  0.0717  0.1387
  578ERGO    C2 8330  15.945   2.742   8.926  0.0058 -0.2278 -0.2893
  579ERGO   ROH 8331   9.965   7.810  10.266  0.2620 -0.2427  0.2122
  579ERGO    R1 8332   9.824   7.849  10.023  0.1174 -0.3384  0.2811
  579ERGO    R2 8333   9.928   7.994   9.812 -0.1422 -0.1531  0.2875
  579ERGO    R3 8334   9.875   7.767   9.672  0.0702 -0.1721  0.2316
  579ERGO    R4 8335   9.907   7.976   9.468 -0.1165 -0.0691  0.2802
  579ERGO    R5 8336   9.737   7.841   9.491 -0.0015 -0.2411  0.2471
  579ERGO    C1 8337   9.844   7.752   9.136  0.0977 -0.0382  0.2236
  579ERGO    C2 8338   9.843   7.549   8.901 -0.0919  0.0343  0.1817
  580ERGO   ROH 8339  17.011   6.614  10.025 -0.2536  0.0600  0.2683
  580ERGO    R1 8340  16.880   6.715   9.795 -0.0209  0.2626  0.2191
  580ERGO    R2 8341  16.999   6.897   9.624  0.4001 -0.0484  0.1531
  580ERGO    R3 8342  16.938   6.711   9.436  0.0092 -0.0022  0.2260
  580ERGO    R4 8343  16.986   6.956   9.283  0.2231 -0.0990  0.1509
  580ERGO    R5 8344  16.809   6.829   9.273  0.0464  0.1366  0.3023
  580ERGO    C1 8345  16.921   6.815   8.909 -0.2471 -0.0851  0.2181
  580ERGO    C2 8346  16.858   6.717   8.623  0.1893 -0.2343 -0.0697
  581ERGO   ROH 8347   0.473   1.073  10.045 -0.1395 -0.0631 -0.1246
  581ERGO    R1 8348   0.559   1.014   9.782 -0.3104 -0.0940 -0.1748
  581ERGO    R2 8349   0.388   1.019   9.565 -0.3550  0.3674 -0.1382
  581ERGO    R3 8350   0.573   1.190   9.463 -0.0280  0.0585 -0.0822
  581ERGO    R4 8351   0.443   1.073   9.228 -0.2257  0.3394 -0.1219
  581ERGO    R5 8352   0.657   1.078   9.269 -0.2113 -0.0584 -0.0984
  581ERGO    C1 8353   0.649   1.265   8.936  0.1565  0.0330 -0.0599
  581ERGO    C2 8354   0.565   1.437   8.561 -0.2662  0.1630  0.0587
  582ERGO   ROH 8355   0.744   1.728  10.443 -0.2123 -0.2118 -0.0465
  582ERGO    R1 8356   0.577   1.861  10.257 -0.0882 -0.2023 -0.1517
  582ERGO    R2 8357   0.520   2.130  10.275 -0.3153 -0.2591 -0.0167
  582ERGO    R3 8358   0.612   2.134  10.019 -0.0044  0.0037  0.0918
  582ERGO    R4 8359   0.500   2.402  10.062 -0.6381 -0.2320  0.0428
  582ERGO    R5 8360   0.450   2.265   9.900 -0.1501 -0.3047 -0.0641
  582ERGO    C1 8361   0.575   2.564   9.698 -0.5341  0.0305  0.1793
  582ERGO    C2 8362   0.600   2.872   9.594  0.1523 -0.0379  0.2360
  583ERGO   ROH 8363  15.172   3.787  10.093 -0.2071  0.0905 -0.0370
  583ERGO    R1 8364  15.318   3.712   9.862 -0.1630  0.2158 -0.0502
  583ERGO    R2 8365  15.285   3.467   9.739  0.1167  0.1419  0.0205
  583ERGO    R3 8366  15.240   3.620   9.519 -0.1256  0.0314 -0.0110
  583ERGO    R4 8367  15.249   3.345   9.418  0.2295  0.0092  0.0568
  583ERGO    R5 8368  15.367   3.514   9.346 -0.0057  0.1557 -0.0036
  583ERGO    C1 8369  15.186   3.418   9.024  0.0677 -0.1718  0.0483
  583ERGO    C2 8370  15.103   3.538   8.670  0.1361  0.0150  0.0391
  584ERGO   ROH 8371   6.073   3.221  10.421 -0.2127 -0.0789 -0.1785
  584ERGO    R1 8372   6.100   3.310  10.154 -0.3255 -0.1043 -0.1996
  584ERGO    R2 8373   6.341   3.303  10.018 -0.2980  0.2217 -0.1799
  584ERGO    R3 8374   6.197   3.164   9.835 -0.0797 -0.0452 -0.1539
  584ERGO    R4 8375   6.445   3.233   9.696 -0.1170  0.1718 -0.1115
  584ERGO    R5 8376   6.242   3.273   9.627 -0.1441 -0.1011 -0.1966
  584ERGO    C1 8377   6.369   3.062   9.337  0.1934 -0.1079 -0.0472
  584ERGO    C2 8378   6.469   2.885   9.082 -0.1292 -0.0025  0.0569
  585ERGO   ROH 8379  17.249  15.234   9.701 -0.1521  0.2335  0.0487
  585ERGO    R1 8380  17.234  15.074   9.468 -0.2522  0.0564  0.1741
  585ERGO    R2 8381  16.994  14.988   9.362 -0.3233  0.3439  0.1005
  585ERGO    R3 8382  17.088  15.105   9.135  0.0050  0.0046  0.0524
  585ERGO    R4 8383  16.912  14.888   9.042 -0.3232  0.2116  0.1413
  585ERGO    R5 8384  17.120  14.921   8.984 -0.2226 -0.1879  0.2230
  585ERGO    C1 8385  16.953  14.939   8.642 -0.0148 -0.1840  0.1202
  585ERGO    C2 8386  16.924  14.673   8.373 -0.1756 -0.1427 -0.1904
  586ERGO   ROH 8387   7.423  14.116  10.088 -0.3738 -0.2270  0.1984
  586ERGO    R1 8388   7.214  14.183   9.908 -0.2227 -0.0755  0.0783
  586ERGO    R2 8389   7.150  14.445   9.847  0.0285 -0.0316  0.0117
  586ERGO    R3 8390   7.186  14.360   9.591  0.0904 -0.0890  0.0377
  586ERGO    R4 8391   7.135  14.647   9.567 -0.0411 -0.1106 -0.0431
  586ERGO    R5 8392   7.029  14.488   9.463  0.0382 -0.1927 -0.0100
  586ERGO    C1 8393   7.160  14.685   9.164 -0.0235 -0.2104 -0.0505
  586ERGO    C2 8394   7.244  14.692   8.820  0.0148  0.1328 -0.4397
  587ERGO   ROH 8395   6.170  17.634  10.344 -0.3093 -0.0378 -0.0785
  587ERGO    R1 8396   6.317  17.534  10.124 -0.3044 -0.1922 -0.0065
  587ERGO    R2 8397   6.202  17.483   9.878 -0.2056  0.1068 -0.1184
  587ERGO    R3 8398   6.399  17.646   9.788  0.1447 -0.1809  0.1001
  587ERGO    R4 8399   6.324  17.485   9.555 -0.2803  0.3359 -0.1468
  587ERGO    R5 8400   6.524  17.509   9.636 -0.1925 -0.2369 -0.1416
  587ERGO    C1 8401   6.580  17.639   9.282  0.0052  0.1993  0.0418
  587ERGO    C2 8402   6.681  17.641   8.988  0.3119  0.1540 -0.2516
  588ERGO   ROH 8403   3.951  12.819  10.177 -0.1397  0.1122 -0.0673
  588ERGO    R1 8404   3.939  13.002   9.961  0.1954  0.1467 -0.0621
  588ERGO    R2 8405   4.118  12.996   9.751  0.1490 -0.2232 -0.1001
  588ERGO    R3 8406   3.892  12.983   9.601  0.0811  0.2454 -0.0521
  588ERGO    R4 8407   4.105  13.043   9.409  0.1948 -0.3283 -0.1168
  588ERGO    R5 8408   3.920  13.155   9.436  0.4530  0.1210 -0.1254
  588ERGO    C1 8409   3.885  13.059   9.069  0.1578  0.0504 -0.0814
  588ERGO    C2 8410   3.709  12.999   8.816  0.0297  0.1995  0.1422
  589ERGO   ROH 8411  11.446   5.518   9.989  0.2761 -0.1520  0.0390
  589ERGO    R1 8412  11.457   5.321   9.786  0.2699 -0.1058 -0.0073
  589ERGO    R2 8413  11.380   5.371   9.525  0.1149 -0.0892  0.0381
  589ERGO    R3 8414  11.629   5.279   9.468  0.1325  0.0437 -0.1020
  589ERGO    R4 8415  11.495   5.294   9.209 -0.1209 -0.3152  0.0047
  589ERGO    R5 8416  11.595   5.120   9.292  0.0877 -0.1564  0.0856
  589ERGO    C1 8417  11.796   5.162   8.971 -0.2416 -0.3220 -0.1464
  589ERGO    C2 8418  11.958   5.069   8.664  0.0814 -0.0062  0.0914
  590ERGO   ROH 8419   3.621   4.060  10.155 -0.2437  0.1068 -0.0680
  590ERGO    R1 8420   3.700   3.958   9.902 -0.0597  0.2085 -0.0525
  590ERGO    R2 8421   3.526   3.821   9.736  0.1408  0.0229 -0.1048
  590ERGO    R3 8422   3.602   4.009   9.556 -0.0208  0.1170 -0.0788
  590ERGO    R4 8423   3.389   3.860   9.421  0.3064 -0.2653 -0.2174
  590ERGO    R5 8424   3.589   3.898   9.344  0.3175  0.0434 -0.0724
  590ERGO    C1 8425   3.381   4.060   9.068  0.2511 -0.3449 -0.2586
  590ERGO    C2 8426   3.178   4.065   8.872 -0.0940  0.0318 -0.0484
  591ERGO   ROH 8427  14.632   7.513   9.947  0.0616 -0.0369 -0.0186
  591ERGO    R1 8428  14.537   7.598   9.694  0.0515 -0.2530 -0.0896
  591ERGO    R2 8429  14.608   7.841   9.583 -0.3447 -0.1243 -0.0748
  591ERGO    R3 8430  14.684   7.686   9.373  0.0885 -0.0143 -0.0089
  591ERGO    R4 8431  14.719   7.962   9.279 -0.3262  0.0464 -0.0018
  591ERGO    R5 8432  14.605   7.805   9.181  0.0211 -0.1688 -0.0774
  591ERGO    C1 8433  14.856   7.887   8.905  0.0911  0.2490  0.1026
  591ERGO    C2 8434  15.019   7.982   8.616  0.4331  0.2506 -0.3395
  592ERGO   ROH 8435   0.744   3.664  10.203 -0.1886  0.1422  0.0649
  592ERGO    R1 8436   0.773   3.586   9.932 -0.0676  0.1847  0.0635
  592ERGO    R2 8437   0.612   3.393   9.815  0.2415 -0.0950  0.0695
  592ERGO    R3 8438   0.567   3.590   9.633 -0.0954 -0.1630  0.0755
  592ERGO    R4 8439   0.557   3.342   9.477  0.1912 -0.1790  0.0915
  592ERGO    R5 8440   0.680   3.516   9.436 -0.0650 -0.0108  0.0397
  592ERGO    C1 8441   0.482   3.497   9.111 -0.1544 -0.2917  0.1099
  592ERGO    C2 8442   0.378   3.433   8.841 -0.3709  0.2816  0.1015
  593ERGO   ROH 8443   7.482   1.996  10.111  0.1341  0.0880 -0.1225
  593ERGO    R1 8444   7.469   1.856   9.865  0.0213  0.0956 -0.1212
  593ERGO    R2 8445   7.251   1.871   9.696  0.0473  0.2993 -0.1372
  593ERGO    R3 8446   7.439   1.943   9.513  0.1301  0.1203 -0.1252
  593ERGO    R4 8447   7.201   1.880   9.354  0.0979  0.2862 -0.1453
  593ERGO    R5 8448   7.401   1.797   9.327  0.0360  0.1209 -0.1072
  593ERGO    C1 8449   7.349   1.953   8.983  0.2050  0.1106 -0.1388
  593ERGO    C2 8450   7.400   2.163   8.734 -0.1202  0.1332  0.0746
  594ERGO   ROH 8451   4.000  12.392  10.008  0.1066 -0.1135  0.0834
  594ERGO    R1 8452   3.999  12.555   9.777 -0.0269 -0.0638  0.1179
  594ERGO    R2 8453   4.144  12.493   9.550  0.0463  0.1156  0.1132
  594ERGO    R3 8454   3.902  12.519   9.427  0.0285 -0.0784  0.1038
  594ERGO    R4 8455   4.095  12.493   9.207  0.0925  0.3016  0.1057
  594ERGO    R5 8456   3.948  12.652   9.234 -0.0990  0.1158  0.2030
  594ERGO    C1 8457   3.840  12.517   8.894  0.1027  0.2279  0.0924
  594ERGO    C2 8458   3.985  12.252   8.635  0.3291  0.0335 -0.0378
  595ERGO   ROH 8459  17.479   2.029  10.266  0.1545  0.1719 -0.0922
  595ERGO    R1 8460  17.364   2.153  10.039  0.1694  0.1081 -0.1350
  595ERGO    R2 8461  17.515   2.282   9.847  0.1782  0.0937 -0.1379
  595ERGO    R3 8462  17.384   2.115   9.678  0.2309  0.0385 -0.1244
  595ERGO    R4 8463  17.564   2.269   9.505  0.1421  0.1220 -0.1442
  595ERGO    R5 8464  17.349   2.246   9.480  0.1488  0.0272 -0.1178
  595ERGO    C1 8465  17.470   2.104   9.147  0.1707  0.0866 -0.1352
  595ERGO    C2 8466  17.516   2.049   8.772  0.1865 -0.0067  0.2237
  596ERGO   ROH 8467  16.098  11.541   9.872  0.0260 -0.1190  0.1047
  596ERGO    R1 8468  16.196  11.570   9.608 -0.0404  0.1223  0.1051
  596ERGO    R2 8469  16.103  11.417   9.398  0.1392  0.0872  0.0551
  596ERGO    R3 8470  16.057  11.659   9.284 -0.1950  0.0774  0.1564
  596ERGO    R4 8471  16.016  11.466   9.067  0.3429  0.1074  0.0024
  596ERGO    R5 8472  16.148  11.639   9.063  0.0442  0.3579  0.2193
  596ERGO    C1 8473  15.922  11.722   8.767  0.1476  0.1098  0.0668
  596ERGO    C2 8474  15.775  11.585   8.504 -0.1239  0.0960 -0.1458
  597ERGO   ROH 8475   5.533   9.149  10.450  0.0240  0.0356  0.1142
  597ERGO    R1 8476   5.661   9.010  10.240  0.0022  0.2985 -0.0745
  597ERGO    R2 8477   5.566   8.770  10.140  0.3505  0.0968  0.0923
  597ERGO    R3 8478   5.575   8.902   9.903 -0.2861  0.1059  0.0531
  597ERGO    R4 8479   5.557   8.619   9.830  0.4390  0.0023  0.1328
  597ERGO    R5 8480   5.708   8.761   9.761 -0.0198  0.4421 -0.0615
  597ERGO    C1 8481   5.560   8.655   9.426 -0.1070 -0.0442  0.1195
  597ERGO    C2 8482   5.512   8.760   9.162 -0.1368  0.2538 -0.2460
  598ERGO   ROH 8483   7.963  15.757  10.420 -0.1746  0.1479 -0.1666
  598ERGO    R1 8484   8.094  15.885  10.204  0.0352  0.1819 -0.0212
  598ERGO    R2 8485   8.352  15.985  10.224  0.1518 -0.1458  0.1338
  598ERGO    R3 8486   8.394  15.828  10.006  0.0189 -0.0049  0.0045
  598ERGO    R4 8487   8.541  16.074   9.949  0.1296 -0.0300  0.1551
  598ERGO    R5 8488   8.392  15.981   9.822  0.0484  0.1389  0.1187
  598ERGO    C1 8489   8.690  15.980   9.584 -0.0081  0.1697  0.0462
  598ERGO    C2 8490   8.868  16.122   9.434 -0.1290 -0.2119 -0.1127
  599ERGO   ROH 8491   0.617   4.110  10.316 -0.1334 -0.0650 -0.1019
  599ERGO    R1 8492   0.733   4.189  10.070 -0.0721 -0.0133 -0.0572
  599ERGO    R2 8493   0.885   4.017   9.915 -0.0040  0.0293 -0.0393
  599ERGO    R3 8494   0.707   4.087   9.722  0.0421  0.0344 -0.0796
  599ERGO    R4 8495   0.914   3.934   9.581  0.0728  0.0367 -0.0345
  599ERGO    R5 8496   0.843   4.134   9.530  0.0863  0.0374 -0.0468
  599ERGO    C1 8497   0.764   3.952   9.205  0.1607  0.0458 -0.0694
  599ERGO    C2 8498   0.665   3.968   8.896  0.0296  0.1854 -0.1707
  600ERGO   ROH 8499   4.930  13.193  10.445 -0.0820 -0.0513 -0.1098
  600ERGO    R1 8500   4.933  13.181  10.163  0.0585 -0.0685 -0.1085
  600ERGO    R2 8501   4.878  13.400  10.004  0.0075 -0.1090 -0.1497
  600ERGO    R3 8502   5.119  13.340   9.894  0.0957  0.0207 -0.0298
  600ERGO    R4 8503   4.944  13.395   9.665  0.2023 -0.0048 -0.1142
  600ERGO    R5 8504   5.065  13.217   9.696  0.2618  0.0419 -0.0882
  600ERGO    C1 8505   5.210  13.337   9.364  0.3985  0.1775  0.0191
  600ERGO    C2 8506   5.295  13.503   9.033 -0.2019 -0.0999  0.1942
  601ERGO   ROH 8507   6.841  11.327  10.276  0.2810 -0.1912 -0.0111
  601ERGO    R1 8508   6.817  11.490  10.046  0.2448 -0.0215  0.1116
  601ERGO    R2 8509   7.036  11.569   9.897  0.2019 -0.0829  0.0200
  601ERGO    R3 8510   6.894  11.460   9.692 -0.0140  0.1568  0.0366
  601ERGO    R4 8511   7.090  11.637   9.562  0.2109 -0.0876  0.0205
  601ERGO    R5 8512   6.874  11.639   9.533  0.1969  0.2263  0.0798
  601ERGO    C1 8513   6.988  11.574   9.175  0.0135  0.1347  0.0363
  601ERGO    C2 8514   6.834  11.438   8.858  0.3953 -0.3776  0.0474
  602ERGO   ROH 8515   5.875   6.106  10.440  0.1703 -0.1021  0.0755
  602ERGO    R1 8516   5.941   6.092  10.165  0.0764 -0.0567  0.0498
  602ERGO    R2 8517   5.854   5.887  10.001  0.0672 -0.0631  0.0569
  602ERGO    R3 8518   5.760   6.091   9.849 -0.0377 -0.0672  0.1162
  602ERGO    R4 8519   5.854   5.892   9.656 -0.0367  0.0007  0.0578
  602ERGO    R5 8520   5.911   6.103   9.664 -0.0988  0.0123  0.0748
  602ERGO    C1 8521   5.765   6.088   9.312 -0.1957  0.0339  0.1141
  602ERGO    C2 8522   5.708   6.123   9.039 -0.2090  0.2632 -0.2223
  603ERGO   ROH 8523  16.622  13.637   9.758  0.2528  0.1772  0.0434
  603ERGO    R1 8524  16.493  13.631   9.506  0.1430  0.2218  0.0983
  603ERGO    R2 8525  16.537  13.823   9.312  0.2756  0.1003  0.0099
  603ERGO    R3 8526  16.595  13.607   9.157 -0.0249 -0.0240  0.0627
  603ERGO    R4 8527  16.596  13.834   8.971  0.3900 -0.0430  0.0237
  603ERGO    R5 8528  16.481  13.650   8.951  0.0958  0.1294  0.0233
  603ERGO    C1 8529  16.684  13.638   8.628  0.1744 -0.2430  0.0813
  603ERGO    C2 8530  16.813  13.642   8.279 -0.1935 -0.3334  0.1413
  604ERGO   ROH 8531   2.249  12.130   9.841 -0.2562 -0.0135 -0.0071
  604ERGO    R1 8532   2.184  11.890   9.705 -0.1845 -0.0092 -0.0495
  604ERGO    R2 8533   2.337  11.661   9.727 -0.1491  0.0162 -0.0439
  604ERGO    R3 8534   2.101  11.548   9.798 -0.1443 -0.0358 -0.1090
  604ERGO    R4 8535   2.247  11.333   9.664  0.0727 -0.0967  0.2065
  604ERGO    R5 8536   2.047  11.403   9.616  0.0677 -0.2449 -0.0121
  604ERGO    C1 8537   1.973  11.037   9.694  0.2064 -0.2110  0.2910
  604ERGO    C2 8538   1.821  10.811   9.652  0.1126  0.3357  0.3282
  605ERGO   ROH 8539  10.588  14.755  10.166  0.3412  0.1304  0.1036
  605ERGO    R1 8540  10.577  14.783   9.885  0.1456 -0.0308  0.0917
  605ERGO    R2 8541  10.786  14.888   9.737 -0.0542  0.1399 -0.0886
  605ERGO    R3 8542  10.762  14.655   9.599  0.1351  0.0323  0.0586
  605ERGO    R4 8543  10.950  14.814   9.442 -0.0884  0.1235 -0.1023
  605ERGO    R5 8544  10.767  14.720   9.370 -0.0144 -0.1049  0.0191
  605ERGO    C1 8545  11.022  14.553   9.141  0.0695  0.0132  0.0279
  605ERGO    C2 8546  11.041  14.441   8.852 -0.1997 -0.0097  0.2250
  606ERGO   ROH 8547  10.097  11.485  10.502 -0.0291 -0.4114  0.0108
  606ERGO    R1 8548  10.006  11.376  10.257 -0.0229 -0.3323 -0.0274
  606ERGO    R2 8549   9.747  11.409  10.167 -0.0085 -0.2598 -0.0493
  606ERGO    R3 8550   9.870  11.505   9.945  0.0364 -0.2262 -0.0094
  606ERGO    R4 8551   9.612  11.405   9.849 -0.0111 -0.0597 -0.0516
  606ERGO    R5 8552   9.809  11.352   9.772 -0.0385 -0.1225 -0.0741
  606ERGO    C1 8553   9.650  11.493   9.455  0.0295  0.0882 -0.0154
  606ERGO    C2 8554   9.611  11.567   9.092 -0.1721  0.4431  0.1490
  607ERGO   ROH 8555  16.027  16.794  10.162 -0.2856  0.0895 -0.0630
  607ERGO    R1 8556  15.971  16.796   9.884 -0.1252  0.1665 -0.0963
  607ERGO    R2 8557  16.146  16.901   9.699  0.0427  0.1004  0.0191
  607ERGO    R3 8558  16.121  16.656   9.584 -0.0287  0.1325 -0.0324
  607ERGO    R4 8559  16.094  16.846   9.361  0.4317  0.1779 -0.0585
  607ERGO    R5 8560  15.954  16.687   9.415  0.2167  0.2978 -0.2512
  607ERGO    C1 8561  16.039  16.584   9.057  0.5915  0.2531 -0.1522
  607ERGO    C2 8562  15.913  16.616   8.761  0.0478 -0.1302 -0.1323
  608ERGO   ROH 8563   3.517  14.591  10.105  0.0114  0.0660  0.0285
  608ERGO    R1 8564   3.486  14.748   9.872 -0.2327 -0.0652 -0.0313
  608ERGO    R2 8565   3.700  14.837   9.722 -0.3585  0.2705 -0.0252
  608ERGO    R3 8566   3.567  14.717   9.518 -0.1146 -0.0444 -0.0053
  608ERGO    R4 8567   3.813  14.821   9.396 -0.2000  0.1893  0.0326
  608ERGO    R5 8568   3.609  14.858   9.329 -0.2192 -0.1220 -0.0841
  608ERGO    C1 8569   3.754  14.699   9.014  0.1213 -0.1538  0.0849
  608ERGO    C2 8570   3.889  14.563   8.852  0.1643  0.3051 -0.0035
  609ERGO   ROH 8571  10.354   0.083   9.955 -0.4223  0.0453  0.0158
  609ERGO    R1 8572  10.351   0.155   9.681 -0.3980  0.0276  0.0112
  609ERGO    R2 8573  10.451  -0.011   9.483  0.0089  0.1889  0.0726
  609ERGO    R3 8574  10.204   0.024   9.375 -0.0012 -0.2558 -0.0675
  609ERGO    R4 8575  10.383   0.001   9.144  0.1726  0.0276  0.0322
  609ERGO    R5 8576  10.241   0.162   9.183 -0.1359 -0.2092 -0.0627
  609ERGO    C1 8577  10.112   0.041   8.846  0.2583 -0.4836 -0.1229
  609ERGO    C2 8578   9.904  -0.033   8.561  0.2714 -0.1696  0.1641
  610ERGO   ROH 8579   2.134   9.829  10.182  0.0360 -0.1088  0.1385
  610ERGO    R1 8580   2.202   9.783   9.911  0.0352  0.0454  0.1112
  610ERGO    R2 8581   2.448   9.852   9.806  0.1109 -0.0807  0.2047
  610ERGO    R3 8582   2.454   9.590   9.732 -0.1022 -0.0309 -0.0013
  610ERGO    R4 8583   2.658   9.719   9.565  0.2364 -0.1206  0.3339
  610ERGO    R5 8584   2.492   9.597   9.495  0.1722  0.1212  0.0432
  610ERGO    C1 8585   2.786   9.397   9.356  0.1095 -0.0971  0.2157
  610ERGO    C2 8586   3.031   9.285   9.181  0.0647 -0.2286 -0.0335
  611ERGO   ROH 8587   0.052   8.236  10.430  0.1395 -0.0403  0.1033
  611ERGO    R1 8588  -0.085   8.424  10.268  0.1890  0.0485  0.1646
  611ERGO    R2 8589   0.042   8.636  10.146  0.2995 -0.1176 -0.0076
  611ERGO    R3 8590  -0.073   8.534   9.922  0.0025 -0.0703  0.1176
  611ERGO    R4 8591  -0.061   8.823   9.874  0.3126 -0.0920  0.0046
  611ERGO    R5 8592  -0.238   8.696   9.860  0.1443  0.1081  0.1888
  611ERGO    C1 8593  -0.229   8.836   9.505  0.0412 -0.0326  0.1293
  611ERGO    C2 8594  -0.160   8.820   9.126  0.1222  0.0516  0.1386
  612ERGO   ROH 8595  13.126   8.667  10.455 -0.0402  0.2905 -0.1079
  612ERGO    R1 8596  13.149   8.737  10.182  0.1015  0.1513 -0.1328
  612ERGO    R2 8597  13.258   8.567   9.994 -0.0188 -0.0403 -0.0327
  612ERGO    R3 8598  13.022   8.611   9.865  0.0566  0.1418 -0.1110
  612ERGO    R4 8599  13.199   8.494   9.661  0.0127 -0.0523 -0.0359
  612ERGO    R5 8600  13.088   8.681   9.645  0.1819  0.0423 -0.1055
  612ERGO    C1 8601  12.944   8.493   9.346  0.1019  0.1115 -0.1112
  612ERGO    C2 8602  12.941   8.358   9.025  0.0795 -0.0159 -0.2290
  613ERGO   ROH 8603   8.889   9.354  10.107  0.2128 -0.0936 -0.0665
  613ERGO    R1 8604   8.895   9.136   9.926  0.1199 -0.0814 -0.0841
  613ERGO    R2 8605   8.707   9.102   9.727  0.0634 -0.0255 -0.0363
  613ERGO    R3 8606   8.925   9.093   9.566  0.0192 -0.0635 -0.0959
  613ERGO    R4 8607   8.704   9.000   9.397 -0.0829  0.1566 -0.0944
  613ERGO    R5 8608   8.893   8.896   9.434 -0.1306  0.0250 -0.1972
  613ERGO    C1 8609   8.908   8.931   9.054 -0.2096  0.2269 -0.1841
  613ERGO    C2 8610   9.042   8.812   8.741  0.0618  0.2128  0.0343
  614ERGO   ROH 8611  14.232   5.035  10.104 -0.1209 -0.1181  0.0574
  614ERGO    R1 8612  14.386   4.957   9.880 -0.0719 -0.0331  0.0633
  614ERGO    R2 8613  14.274   4.846   9.652 -0.0076 -0.0579  0.0510
  614ERGO    R3 8614  14.407   5.048   9.529 -0.0802  0.0057  0.0716
  614ERGO    R4 8615  14.327   4.870   9.311 -0.3593  0.1977  0.0077
  614ERGO    R5 8616  14.528   4.942   9.352 -0.2920  0.1090 -0.1442
  614ERGO    C1 8617  14.482   5.074   8.997 -0.6325  0.4062  0.0017
  614ERGO    C2 8618  14.279   5.003   8.770 -0.2818  0.0518  0.1013
  615ERGO   ROH 8619   6.970   7.897  10.511  0.3678  0.1286  0.0414
  615ERGO    R1 8620   7.067   7.734  10.300  0.1164  0.0405 -0.0098
  615ERGO    R2 8621   6.905   7.643  10.096 -0.0680  0.1978  0.0614
  615ERGO    R3 8622   7.094   7.758   9.938 -0.0302  0.0250 -0.0219
  615ERGO    R4 8623   7.005   7.522   9.788 -0.1448 -0.0197  0.1196
  615ERGO    R5 8624   7.211   7.573   9.841 -0.1191 -0.0805  0.0718
  615ERGO    C1 8625   7.241   7.560   9.461 -0.1539 -0.3086  0.0752
  615ERGO    C2 8626   7.208   7.308   9.333 -0.1651 -0.4327 -0.3766
  616ERGO   ROH 8627   5.247  15.618  10.210  0.0930  0.1582 -0.0439
  616ERGO    R1 8628   5.407  15.548   9.987  0.1231  0.1545 -0.0204
  616ERGO    R2 8629   5.316  15.382   9.785  0.1745  0.0999  0.0056
  616ERGO    R3 8630   5.390  15.589   9.626  0.1395  0.0857 -0.0302
  616ERGO    R4 8631   5.295  15.385   9.440  0.1064  0.0586  0.0088
  616ERGO    R5 8632   5.487  15.486   9.433  0.1057  0.0638 -0.0386
  616ERGO    C1 8633   5.352  15.581   9.090  0.0339  0.0211 -0.0230
  616ERGO    C2 8634   5.282  15.780   8.835  0.2797  0.0748  0.1222
  617ERGO   ROH 8635  15.155  17.380   9.948 -0.0809 -0.1022  0.1141
  617ERGO    R1 8636  15.207  17.351   9.671 -0.2701  0.0079  0.0650
  617ERGO    R2 8637  15.161  17.554   9.489 -0.0019  0.2322  0.2375
  617ERGO    R3 8638  15.422  17.511   9.424 -0.1029 -0.1880  0.0817
  617ERGO    R4 8639  15.289  17.560   9.168 -0.1898 -0.0508  0.1539
  617ERGO    R5 8640  15.413  17.388   9.219 -0.4209 -0.2311  0.1173
  617ERGO    C1 8641  15.608  17.523   8.920 -0.3940 -0.6101 -0.0411
  617ERGO    C2 8642  15.685  17.519   8.630  0.1245  0.0334  0.0259
  618ERGO   ROH 8643   8.443   2.358  10.315 -0.0205 -0.1716 -0.2095
  618ERGO    R1 8644   8.233   2.424  10.136 -0.0264 -0.1840 -0.2086
  618ERGO    R2 8645   8.256   2.626   9.949 -0.1170 -0.0324 -0.0662
  618ERGO    R3 8646   8.185   2.429   9.776  0.0542  0.0357 -0.2165
  618ERGO    R4 8647   8.184   2.674   9.614 -0.1983  0.1568 -0.0230
  618ERGO    R5 8648   8.021   2.531   9.634 -0.0565 -0.0138 -0.1185
  618ERGO    C1 8649   8.076   2.516   9.257 -0.0850  0.3309 -0.1386
  618ERGO    C2 8650   8.045   2.593   8.970 -0.0259 -0.0185  0.0757
  619ERGO   ROH 8651   9.121   4.169  10.393 -0.2210 -0.0768 -0.0075
  619ERGO    R1 8652   9.285   4.058  10.191 -0.1219  0.1268 -0.0409
  619ERGO    R2 8653   9.191   3.876  10.006  0.0728 -0.0150 -0.0012
  619ERGO    R3 8654   9.290   4.055   9.827 -0.2101  0.1075 -0.0428
  619ERGO    R4 8655   9.177   3.841   9.662  0.2564 -0.1984  0.0082
  619ERGO    R5 8656   9.380   3.920   9.651  0.1172  0.1947  0.0470
  619ERGO    C1 8657   9.263   3.988   9.295  0.0978 -0.1902 -0.0255
  619ERGO    C2 8658   9.249   3.936   9.057 -0.0072  0.2065  0.1515
  620ERGO   ROH 8659  10.366   4.600  10.350  0.1796 -0.0432 -0.0117
  620ERGO    R1 8660  10.390   4.598  10.068  0.1495 -0.1883 -0.0127
  620ERGO    R2 8661  10.466   4.372   9.927 -0.1886 -0.3532  0.0701
  620ERGO    R3 8662  10.235   4.420   9.791 -0.1355 -0.0760  0.0684
  620ERGO    R4 8663  10.433   4.363   9.583 -0.1795 -0.2831  0.0662
  620ERGO    R5 8664  10.305   4.538   9.595  0.0138 -0.1303  0.0810
  620ERGO    C1 8665  10.198   4.402   9.255 -0.1246  0.0180  0.0626
  620ERGO    C2 8666  10.122   4.376   8.851  0.1577  0.1038 -0.1042
  621ERGO   ROH 8667  12.764   3.236  10.009  0.0752 -0.3766 -0.0869
  621ERGO    R1 8668  12.657   3.162   9.757  0.1642 -0.3123 -0.1453
  621ERGO    R2 8669  12.521   3.339   9.595 -0.1356 -0.3650  0.0296
  621ERGO    R3 8670  12.705   3.261   9.411 -0.0209  0.0900 -0.0585
  621ERGO    R4 8671  12.506   3.414   9.258 -0.4359 -0.3462  0.0447
  621ERGO    R5 8672  12.575   3.212   9.215  0.0185 -0.1813 -0.0127
  621ERGO    C1 8673  12.670   3.385   8.889 -0.5031  0.0919 -0.0292
  621ERGO    C2 8674  12.620   3.399   8.617  0.0054 -0.1789 -0.2925
  622ERGO   ROH 8675  15.591  11.951  10.039  0.1645  0.1529 -0.0225
  622ERGO    R1 8676  15.655  11.862   9.778  0.1354  0.1661 -0.0341
  622ERGO    R2 8677  15.473  11.868   9.571  0.0784  0.0737  0.0133
  622ERGO    R3 8678  15.669  12.008   9.445 -0.0163  0.1533 -0.0469
  622ERGO    R4 8679  15.482  11.934   9.232 -0.0215  0.0254  0.0008
  622ERGO    R5 8680  15.697  11.897   9.235 -0.0012  0.1338 -0.0348
  622ERGO    C1 8681  15.671  12.105   8.916 -0.1685  0.0717 -0.0630
  622ERGO    C2 8682  15.764  12.093   8.451  0.1678  0.2586  0.0238
  623ERGO   ROH 8683  17.720   4.199  10.308 -0.0630  0.1531  0.1048
  623ERGO    R1 8684  17.603   4.305  10.073 -0.0290  0.1005  0.0646
  623ERGO    R2 8685  17.710   4.521   9.937  0.0519 -0.0014 -0.0299
  623ERGO    R3 8686  17.703   4.351   9.726 -0.0250 -0.0854  0.0392
  623ERGO    R4 8687  17.732   4.617   9.606 -0.0861 -0.1212 -0.0751
  623ERGO    R5 8688  17.579   4.469   9.558 -0.1013 -0.1515  0.0435
  623ERGO    C1 8689  17.738   4.513   9.215 -0.2389 -0.2698 -0.0366
  623ERGO    C2 8690  17.980   4.633   9.045  0.2191 -0.0153 -0.0224
  624ERGO   ROH 8691   2.866   5.224   9.945  0.1938 -0.0503 -0.0596
  624ERGO    R1 8692   2.801   5.421   9.753  0.3358 -0.0063 -0.0635
  624ERGO    R2 8693   2.934   5.445   9.512  0.1557 -0.3074 -0.1957
  624ERGO    R3 8694   2.683   5.426   9.408  0.0214  0.0642  0.0402
  624ERGO    R4 8695   2.841   5.557   9.199  0.1052 -0.4196 -0.2219
  624ERGO    R5 8696   2.654   5.630   9.286  0.3044  0.0156 -0.1207
  624ERGO    C1 8697   2.551   5.605   8.919 -0.0503 -0.1361 -0.0157
  624ERGO    C2 8698   2.307   5.560   8.619  0.2448  0.1355 -0.1219
  625ERGO   ROH 8699  16.410  12.865   9.498  0.0017 -0.0052 -0.0712
  625ERGO    R1 8700  16.339  12.700   9.280  0.0467  0.0511 -0.1287
  625ERGO    R2 8701  16.231  12.801   9.046  0.0883  0.1111 -0.1230
  625ERGO    R3 8702  16.437  12.667   8.931  0.1137  0.1466 -0.1192
  625ERGO    R4 8703  16.293  12.788   8.706  0.1135  0.1409 -0.1196
  625ERGO    R5 8704  16.345  12.578   8.729  0.1401  0.1473 -0.1307
  625ERGO    C1 8705  16.523  12.654   8.401  0.1519  0.1917 -0.1140
  625ERGO    C2 8706  16.661  12.647   8.102 -0.0523 -0.1494 -0.1706
  626ERGO   ROH 8707  17.294  12.595   9.523  0.0586 -0.1240 -0.0767
  626ERGO    R1 8708  17.408  12.474   9.293 -0.1204 -0.2600 -0.0963
  626ERGO    R2 8709  17.258  12.403   9.072 -0.2152  0.1156 -0.1584
  626ERGO    R3 8710  17.440  12.556   8.940  0.1182 -0.1803 -0.0582
  626ERGO    R4 8711  17.351  12.360   8.742 -0.3367  0.1492 -0.1979
  626ERGO    R5 8712  17.557  12.402   8.800 -0.2285 -0.3433 -0.1788
  626ERGO    C1 8713  17.576  12.478   8.426 -0.0948 -0.1092 -0.1269
  626ERGO    C2 8714  17.494  12.606   8.141  0.3004  0.2134 -0.4277
  627ERGO   ROH 8715  14.220   3.623  10.282 -0.1200 -0.0250 -0.0145
  627ERGO    R1 8716  14.313   3.678  10.021 -0.2258 -0.0242 -0.0510
  627ERGO    R2 8717  14.389   3.479   9.845 -0.2522 -0.0159 -0.0593
  627ERGO    R3 8718  14.209   3.599   9.681 -0.3297 -0.0643 -0.0130
  627ERGO    R4 8719  14.350   3.409   9.509 -0.0038  0.2659 -0.1519
  627ERGO    R5 8720  14.324   3.622   9.472 -0.2483  0.2870  0.0556
  627ERGO    C1 8721  14.158   3.481   9.159  0.0680  0.3845 -0.1623
  627ERGO    C2 8722  14.240   3.300   8.818  0.0492 -0.1448 -0.0145
  628ERGO   ROH 8723   8.287   1.049  10.259  0.0953  0.1273  0.1990
  628ERGO    R1 8724   8.292   0.968   9.988  0.1500  0.0154  0.2326
  628ERGO    R2 8725   8.067   0.876   9.856  0.1670  0.0031  0.2130
  628ERGO    R3 8726   8.130   1.071   9.678  0.2481 -0.0813  0.1478
  628ERGO    R4 8727   8.024   0.853   9.514 -0.0821 -0.0009  0.2422
  628ERGO    R5 8728   8.216   0.954   9.488  0.0061 -0.1950  0.1039
  628ERGO    C1 8729   8.059   1.024   9.148 -0.1511 -0.0825  0.1981
  628ERGO    C2 8730   7.738   1.112   8.888 -0.2725  0.4625  0.5265
  629ERGO   ROH 8731  13.529   0.495   9.697 -0.0965 -0.1366 -0.0281
  629ERGO    R1 8732  13.435   0.504   9.431 -0.1101 -0.1568 -0.0246
  629ERGO    R2 8733  13.574   0.628   9.227 -0.2131  0.0025 -0.0044
  629ERGO    R3 8734  13.549   0.386   9.106 -0.0186  0.0039 -0.0504
  629ERGO    R4 8735  13.542   0.581   8.886 -0.2615  0.0407 -0.0048
  629ERGO    R5 8736  13.394   0.426   8.927 -0.1033 -0.1059  0.0010
  629ERGO    C1 8737  13.500   0.327   8.574 -0.1071  0.0644 -0.0483
  629ERGO    C2 8738  13.445   0.335   8.226 -0.2925 -0.5342 -0.1355
  630ERGO   ROH 8739   9.120   2.985  10.140  0.0296  0.1501  0.0429
  630ERGO    R1 8740   9.261   2.915   9.905  0.0370  0.1627  0.0443
  630ERGO    R2 8741   9.141   2.784   9.693  0.1022 -0.0407  0.1346
  630ERGO    R3 8742   9.239   2.994   9.550 -0.1119 -0.0223  0.0102
  630ERGO    R4 8743   9.154   2.799   9.348  0.1356 -0.2615  0.1246
  630ERGO    R5 8744   9.351   2.892   9.365  0.0329 -0.0262  0.0953
  630ERGO    C1 8745   9.254   3.004   9.013 -0.0458 -0.3729  0.0021
  630ERGO    C2 8746   9.259   3.239   8.753  0.0131 -0.1390  0.0481
  631ERGO   ROH 8747   4.656   8.069  10.285  0.0253  0.1253 -0.0216
  631ERGO    R1 8748   4.836   7.968  10.092  0.0566  0.0499  0.0470
  631ERGO    R2 8749   4.752   7.851   9.857  0.0962  0.0108  0.0538
  631ERGO    R3 8750   4.917   8.036   9.744  0.1568 -0.0446  0.0507
  631ERGO    R4 8751   4.806   7.885   9.517  0.1090 -0.0183  0.0528
  631ERGO    R5 8752   5.018   7.920   9.560  0.1215 -0.0844  0.0545
  631ERGO    C1 8753   4.993   8.078   9.214  0.1733 -0.0872  0.0492
  631ERGO    C2 8754   4.908   8.160   8.831 -0.3933  0.2009 -0.3122
  632ERGO   ROH 8755   3.153  11.774  10.053 -0.0711  0.1696  0.1172
  632ERGO    R1 8756   3.274  11.792   9.797 -0.0655  0.2191  0.1239
  632ERGO    R2 8757   3.243  11.597   9.604  0.1492  0.1327  0.1787
  632ERGO    R3 8758   3.161  11.806   9.452 -0.0482  0.0067  0.1071
  632ERGO    R4 8759   3.156  11.576   9.270  0.2614 -0.0513  0.1589
  632ERGO    R5 8760   3.258  11.766   9.237  0.0591  0.0616  0.1420
  632ERGO    C1 8761   3.028  11.761   8.933  0.1414 -0.2767  0.0801
  632ERGO    C2 8762   2.941  11.729   8.643 -0.2279 -0.0126  0.0412
  633ERGO   ROH 8763   4.898  17.879  10.445  0.3597  0.2342  0.0759
  633ERGO    R1 8764   4.930  17.798  10.176  0.2280  0.0218  0.1224
  633ERGO    R2 8765   4.822  17.563  10.078  0.0051  0.0450  0.3085
  633ERGO    R3 8766   4.713  17.729   9.892  0.1032  0.0118  0.2190
  633ERGO    R4 8767   4.856  17.527   9.736 -0.0201 -0.1680  0.3273
  633ERGO    R5 8768   4.878  17.743   9.720  0.1126 -0.1863  0.2073
  633ERGO    C1 8769   4.772  17.661   9.362  0.0572 -0.3233  0.2542
  633ERGO    C2 8770   4.631  17.509   9.119 -0.0746 -0.0041  0.1102
  634ERGO   ROH 8771   9.398   4.581  10.002 -0.1509  0.1553 -0.1508
  634ERGO    R1 8772   9.388   4.492   9.734 -0.1367  0.0686 -0.1241
  634ERGO    R2 8773   9.152   4.417   9.611 -0.1293 -0.0030 -0.1056
  634ERGO    R3 8774   9.227   4.600   9.425 -0.1497 -0.0484 -0.1573
  634ERGO    R4 8775   9.060   4.409   9.278 -0.1989 -0.0509 -0.0844
  634ERGO    R5 8776   9.262   4.471   9.226 -0.2076 -0.0849 -0.1398
  634ERGO    C1 8777   9.076   4.577   8.910 -0.2586 -0.1214 -0.1206
  634ERGO    C2 8778   8.935   4.421   8.639  0.0200  0.0089  0.3941
  635ERGO   ROH 8779   7.719  16.980  10.431  0.0684 -0.1706  0.0028
  635ERGO    R1 8780   7.747  17.166  10.220  0.1327 -0.0876  0.0833
  635ERGO    R2 8781   7.988  17.291  10.162  0.2246 -0.2856  0.0216
  635ERGO    R3 8782   7.942  17.190   9.914 -0.0050 -0.1190 -0.0073
  635ERGO    R4 8783   8.051  17.456   9.865  0.0551 -0.1325  0.0692
  635ERGO    R5 8784   7.865  17.376   9.786 -0.0357 -0.0143  0.1633
  635ERGO    C1 8785   8.045  17.458   9.460 -0.2591  0.1131  0.0697
  635ERGO    C2 8786   8.222  17.460   9.263  0.1740 -0.2743  0.0191
  636ERGO   ROH 8787   6.397   8.763  10.645 -0.2095 -0.1874  0.0984
  636ERGO    R1 8788   6.529   8.804  10.398 -0.0619 -0.0906  0.1924
  636ERGO    R2 8789   6.771   8.684  10.338 -0.1022 -0.1905  0.2301
  636ERGO    R3 8790   6.636   8.598  10.118 -0.0449  0.0436  0.0988
  636ERGO    R4 8791   6.915   8.616  10.031  0.0202 -0.0970  0.2659
  636ERGO    R5 8792   6.743   8.708   9.935  0.1365  0.0870  0.2270
  636ERGO    C1 8793   6.872   8.495   9.647  0.1453  0.1772  0.1635
  636ERGO    C2 8794   7.101   8.455   9.375 -0.0727 -0.1023  0.0230
  637ERGO   ROH 8795   8.207  13.470  10.566 -0.4963 -0.0275  0.3691
  637ERGO    R1 8796   8.105  13.671  10.394 -0.2689 -0.0070  0.2534
  637ERGO    R2 8797   8.136  13.661  10.119 -0.1357 -0.1128  0.2672
  637ERGO    R3 8798   7.866  13.687  10.120 -0.1186  0.0752  0.1270
  637ERGO    R4 8799   7.942  13.718   9.839  0.0333 -0.0929  0.1533
  637ERGO    R5 8800   7.821  13.856   9.957  0.0734  0.0370  0.0367
  637ERGO    C1 8801   7.574  13.775   9.678  0.1477  0.0952 -0.0448
  637ERGO    C2 8802   7.348  13.908   9.510 -0.2113 -0.1589  0.1478
  638ERGO   ROH 8803   6.312  13.499  10.552 -0.1960  0.0283 -0.1375
  638ERGO    R1 8804   6.234  13.331  10.338 -0.1281  0.0095 -0.1477
  638ERGO    R2 8805   6.009  13.381  10.184 -0.0623  0.0121 -0.2415
  638ERGO    R3 8806   6.186  13.365   9.978  0.0159 -0.0312 -0.1716
  638ERGO    R4 8807   5.931  13.280   9.863  0.0524 -0.0414 -0.2534
  638ERGO    R5 8808   6.119  13.171   9.856  0.0525 -0.0513 -0.1625
  638ERGO    C1 8809   6.051  13.207   9.483  0.1928 -0.1132 -0.1947
  638ERGO    C2 8810   6.101  13.278   9.218  0.0771  0.0958  0.0400
  639ERGO   ROH 8811   0.738  10.070   9.888  0.1277  0.0307 -0.0765
  639ERGO    R1 8812   0.603  10.023   9.644  0.2013 -0.1821 -0.0776
  639ERGO    R2 8813   0.543  10.224   9.465 -0.1785 -0.2572 -0.0435
  639ERGO    R3 8814   0.674  10.063   9.289  0.1144  0.0058 -0.0752
  639ERGO    R4 8815   0.563  10.279   9.124 -0.2588 -0.1415 -0.0303
  639ERGO    R5 8816   0.537  10.065   9.093  0.1153 -0.1893 -0.0803
  639ERGO    C1 8817   0.698  10.160   8.761 -0.0305  0.1727 -0.0524
  639ERGO    C2 8818   0.852  10.150   8.434  0.0313 -0.0929 -0.1413
  640ERGO   ROH 8819   4.603   4.626  10.265  0.0666  0.3139  0.0211
  640ERGO    R1 8820   4.782   4.715  10.064  0.0491  0.1228 -0.0815
  640ERGO    R2 8821   4.935   4.541   9.913 -0.1348 -0.0350 -0.0890
  640ERGO    R3 8822   4.819   4.671   9.705 -0.1276 -0.0204 -0.0840
  640ERGO    R4 8823   5.034   4.513   9.583 -0.2346 -0.1473 -0.1104
  640ERGO    R5 8824   5.002   4.727   9.561 -0.1380 -0.1358 -0.1435
  640ERGO    C1 8825   4.983   4.619   9.196 -0.2859 -0.1989 -0.1182
  640ERGO    C2 8826   4.963   4.732   8.855  0.0452  0.1414 -0.1355
  641ERGO   ROH 8827   7.345   9.515  10.273  0.2800  0.1369 -0.0462
  641ERGO    R1 8828   7.241   9.505  10.010  0.1227 -0.0125  0.0196
  641ERGO    R2 8829   7.327   9.675   9.810 -0.1559  0.0251 -0.0717
  641ERGO    R3 8830   7.372   9.442   9.677 -0.0281  0.0365 -0.0504
  641ERGO    R4 8831   7.361   9.646   9.467 -0.3595 -0.0119 -0.0896
  641ERGO    R5 8832   7.244   9.463   9.476 -0.1856 -0.1227  0.0292
  641ERGO    C1 8833   7.422   9.411   9.142 -0.3580 -0.0227 -0.0801
  641ERGO    C2 8834   7.388   9.275   8.799 -0.0413 -0.1045 -0.1774
  642ERGO   ROH 8835   6.082  11.383  10.365  0.0112 -0.2181  0.1010
  642ERGO    R1 8836   5.927  11.454  10.138 -0.0540 -0.2034  0.1494
  642ERGO    R2 8837   6.011  11.641   9.953 -0.2095 -0.0207  0.2582
  642ERGO    R3 8838   5.965  11.440   9.777 -0.0533  0.0482  0.1376
  642ERGO    R4 8839   5.965  11.684   9.614 -0.5046  0.1809  0.3204
  642ERGO    R5 8840   5.808  11.532   9.621 -0.2928 -0.0447  0.3178
  642ERGO    C1 8841   5.895  11.520   9.250 -0.5298  0.3629  0.2434
  642ERGO    C2 8842   5.978  11.602   8.905 -0.0886  0.0943 -0.1901
  643ERGO   ROH 8843   8.893   0.340  10.271  0.1167 -0.0516 -0.0287
  643ERGO    R1 8844   8.831   0.188  10.041  0.2951 -0.3154  0.0940
  643ERGO    R2 8845   8.806   0.302   9.790 -0.2777 -0.4648  0.0821
  643ERGO    R3 8846   8.990   0.114   9.722  0.1840  0.0044 -0.0447
  643ERGO    R4 8847   8.889   0.217   9.466 -0.3362 -0.2693  0.0124
  643ERGO    R5 8848   8.897   0.007   9.528  0.2776 -0.2708  0.0443
  643ERGO    C1 8849   9.111  -0.010   9.213  0.0632  0.2849 -0.1471
  643ERGO    C2 8850   9.095   0.141   8.925 -0.3303 -0.1042 -0.0316
  644ERGO   ROH 8851  14.552   5.427  10.087  0.0833 -0.0668  0.0667
  644ERGO    R1 8852  14.539   5.408   9.804  0.0808 -0.0966  0.0697
  644ERGO    R2 8853  14.474   5.624   9.644  0.0591 -0.1222  0.0523
  644ERGO    R3 8854  14.709   5.562   9.522  0.0615 -0.1110  0.0484
  644ERGO    R4 8855  14.508   5.548   9.309  0.0748  0.0531  0.0123
  644ERGO    R5 8856  14.650   5.392   9.363  0.0349 -0.0147 -0.0525
  644ERGO    C1 8857  14.748   5.445   8.998  0.0864  0.1658 -0.0150
  644ERGO    C2 8858  14.652   5.471   8.638  0.0264  0.0754  0.1025
  645ERGO   ROH 8859   9.296  12.536  10.472  0.0237 -0.0387 -0.0888
  645ERGO    R1 8860   9.488  12.614  10.279 -0.0190 -0.0200 -0.1246
  645ERGO    R2 8861   9.634  12.431  10.132  0.0520 -0.0075 -0.0741
  645ERGO    R3 8862   9.535  12.570   9.920 -0.0210 -0.1178 -0.1126
  645ERGO    R4 8863   9.793  12.464   9.827  0.1445  0.1852 -0.0061
  645ERGO    R5 8864   9.728  12.673   9.822 -0.0978  0.1109 -0.0282
  645ERGO    C1 8865   9.793  12.614   9.450  0.1298  0.1938 -0.0028
  645ERGO    C2 8866   9.956  12.430   9.212 -0.1832 -0.0791  0.0166
  646ERGO   ROH 8867  12.786  11.065  10.114  0.1836  0.0762 -0.0410
  646ERGO    R1 8868  12.677  11.150   9.867  0.0911  0.0888  0.0031
  646ERGO    R2 8869  12.814  11.317   9.694  0.0525  0.0496 -0.0691
  646ERGO    R3 8870  12.765  11.119   9.515 -0.0744  0.0502 -0.0348
  646ERGO    R4 8871  12.753  11.365   9.357 -0.0085  0.0335 -0.0602
  646ERGO    R5 8872  12.600  11.211   9.368 -0.0700  0.1005 -0.0059
  646ERGO    C1 8873  12.672  11.207   8.993 -0.1633  0.0246 -0.0227
  646ERGO    C2 8874  12.528  11.207   8.686 -0.0784  0.2798  0.0410
  647ERGO   ROH 8875   6.857  16.661  10.247 -0.0060 -0.0566 -0.1619
  647ERGO    R1 8876   6.929  16.594   9.981 -0.1781 -0.0079 -0.2226
  647ERGO    R2 8877   6.813  16.714   9.761 -0.1275  0.2339 -0.1228
  647ERGO    R3 8878   7.071  16.767   9.695 -0.0882 -0.0228 -0.1871
  647ERGO    R4 8879   6.915  16.863   9.466 -0.0596  0.2279 -0.1022
  647ERGO    R5 8880   7.083  16.725   9.460 -0.2110  0.0468 -0.2057
  647ERGO    C1 8881   7.216  17.001   9.233  0.0168 -0.0167 -0.1507
  647ERGO    C2 8882   7.371  17.204   8.955  0.0148 -0.1209  0.1794
  648ERGO   ROH 8883  10.675  16.694   9.930  0.2112 -0.3193 -0.0594
  648ERGO    R1 8884  10.552  16.842   9.722  0.2341 -0.1710  0.0324
  648ERGO    R2 8885  10.690  16.926   9.499  0.2019 -0.2161  0.0004
  648ERGO    R3 8886  10.490  16.797   9.366  0.0475 -0.0269  0.0440
  648ERGO    R4 8887  10.615  16.971   9.164  0.2825 -0.2570 -0.0240
  648ERGO    R5 8888  10.403  16.963   9.216  0.2622  0.0267 -0.0303
  648ERGO    C1 8889  10.384  16.876   8.845  0.1846 -0.1037  0.0028
  648ERGO    C2 8890  10.348  16.914   8.498  0.0404  0.0756 -0.0566
  649ERGO   ROH 8891  11.662  12.139  10.066  0.1041 -0.2054 -0.0008
  649ERGO    R1 8892  11.621  12.308   9.843 -0.0378 -0.1604  0.0577
  649ERGO    R2 8893  11.826  12.383   9.674 -0.1275 -0.0533 -0.0071
  649ERGO    R3 8894  11.662  12.283   9.482 -0.1743 -0.0562  0.0347
  649ERGO    R4 8895  11.893  12.386   9.335 -0.3067  0.1288 -0.0427
  649ERGO    R5 8896  11.684  12.436   9.299 -0.3511  0.0344  0.0880
  649ERGO    C1 8897  11.778  12.294   8.957 -0.4549  0.2323 -0.0241
  649ERGO    C2 8898  11.839  12.043   8.762 -0.1726 -0.4465 -0.1877
  650ERGO   ROH 8899   7.142  13.864  10.390 -0.1206 -0.0927  0.2693
  650ERGO    R1 8900   7.069  13.811  10.122 -0.1800 -0.0572  0.2780
  650ERGO    R2 8901   7.241  13.694   9.941 -0.1897  0.0440  0.1994
  650ERGO    R3 8902   7.037  13.518   9.909 -0.1372 -0.0206  0.2215
  650ERGO    R4 8903   7.229  13.448   9.698 -0.1820  0.1004  0.1420
  650ERGO    R5 8904   7.017  13.492   9.671 -0.2056  0.0318  0.2224
  650ERGO    C1 8905   7.029  13.139   9.527 -0.1282  0.0727  0.1293
  650ERGO    C2 8906   6.924  12.920   9.236  0.0969 -0.0139 -0.3511
  651ERGO   ROH 8907   6.770  14.271  10.254 -0.2612 -0.0266  0.1210
  651ERGO    R1 8908   6.700  14.139  10.013 -0.1568 -0.0111  0.0821
  651ERGO    R2 8909   6.791  14.223   9.766 -0.0273 -0.0126  0.1312
  651ERGO    R3 8910   6.876  13.966   9.746 -0.0446 -0.0212  0.1607
  651ERGO    R4 8911   6.787  14.036   9.475 -0.0974 -0.0607  0.1625
  651ERGO    R5 8912   6.722  13.864   9.593 -0.0839 -0.0385  0.2080
  651ERGO    C1 8913   6.864  13.685   9.288 -0.1545 -0.0966  0.2085
  651ERGO    C2 8914   6.924  13.375   9.031  0.0020  0.2364 -0.1352
  652ERGO   ROH 8915   6.887   1.028  10.225 -0.1562 -0.0852 -0.0379
  652ERGO    R1 8916   6.957   0.978   9.956 -0.0245  0.0253 -0.0249
  652ERGO    R2 8917   6.776   0.885   9.770  0.0827  0.0404 -0.1362
  652ERGO    R3 8918   6.857   1.103   9.629  0.0865  0.1092 -0.0284
  652ERGO    R4 8919   6.750   0.919   9.427  0.1598  0.1703 -0.1297
  652ERGO    R5 8920   6.947   1.012   9.426  0.1490  0.1999 -0.0437
  652ERGO    C1 8921   6.811   1.143   9.095  0.2083  0.3106 -0.0246
  652ERGO    C2 8922   6.679   1.043   8.751 -0.1507  0.1019  0.2400
  653ERGO   ROH 8923   8.281   4.117  10.393  0.0987 -0.2703  0.0965
  653ERGO    R1 8924   8.319   4.027  10.127  0.0356 -0.1958  0.0627
  653ERGO    R2 8925   8.108   3.960   9.961 -0.0013 -0.1504  0.0969
  653ERGO    R3 8926   8.225   4.140   9.794 -0.0441 -0.1053  0.1143
  653ERGO    R4 8927   8.028   4.002   9.627 -0.0943 -0.0654  0.1287
  653ERGO    R5 8928   8.240   4.026   9.584 -0.1013 -0.0544  0.0785
  653ERGO    C1 8929   8.091   4.195   9.276 -0.1885  0.0264  0.1634
  653ERGO    C2 8930   7.881   4.357   8.992 -0.0619 -0.1433  0.2678
  654ERGO   ROH 8931   1.013   8.741  10.497 -0.2438 -0.2342  0.1246
  654ERGO    R1 8932   1.058   8.636  10.238 -0.1354 -0.0317  0.0590
  654ERGO    R2 8933   0.894   8.444  10.125  0.1397 -0.2398  0.0013
  654ERGO    R3 8934   0.877   8.625   9.922 -0.1963 -0.1566  0.0979
  654ERGO    R4 8935   0.823   8.366   9.796  0.2116 -0.1879 -0.0268
  654ERGO    R5 8936   0.972   8.512   9.734 -0.0383  0.0977  0.0207
  654ERGO    C1 8937   0.765   8.490   9.414 -0.0619 -0.0795  0.0476
  654ERGO    C2 8938   0.685   8.481   9.079  0.0184 -0.3362  0.0541
  655ERGO   ROH 8939   9.999   1.434  10.465 -0.3534 -0.0625  0.1010
  655ERGO    R1 8940   9.976   1.376  10.189 -0.2326 -0.1176  0.1021
  655ERGO    R2 8941   9.737   1.396  10.052 -0.1374  0.0238 -0.0436
  655ERGO    R3 8942   9.881   1.558   9.888  0.0785 -0.1257 -0.0049
  655ERGO    R4 8943   9.713   1.399   9.707  0.1398 -0.1294 -0.0662
  655ERGO    R5 8944   9.930   1.420   9.698  0.1632 -0.2439  0.0982
  655ERGO    C1 8945   9.836   1.551   9.352  0.5039 -0.3589 -0.0431
  655ERGO    C2 8946   9.795   1.465   9.031  0.0727 -0.1556 -0.1606
  656ERGO   ROH 8947   6.856   9.902  10.313  0.0328  0.0778 -0.2902
  656ERGO    R1 8948   6.856   9.694  10.121 -0.0068 -0.0778 -0.1255
  656ERGO    R2 8949   6.642   9.647   9.952 -0.0212 -0.1786 -0.0857
  656ERGO    R3 8950   6.831   9.668   9.759 -0.0209 -0.3614 -0.1060
  656ERGO    R4 8951   6.634   9.483   9.648 -0.3249 -0.0016 -0.1764
  656ERGO    R5 8952   6.848   9.448   9.667 -0.3721 -0.3385 -0.2324
  656ERGO    C1 8953   6.807   9.408   9.290 -0.5015 -0.0701 -0.2482
  656ERGO    C2 8954   6.966   9.251   9.108  0.3222  0.1308 -0.0678
  657ERGO   ROH 8955   3.733  10.779   9.892 -0.2289  0.3665 -0.1595
  657ERGO    R1 8956   3.465  10.777   9.801 -0.2196  0.1203 -0.1861
  657ERGO    R2 8957   3.396  10.703   9.545 -0.1406 -0.0732 -0.1515
  657ERGO    R3 8958   3.231  10.529   9.673 -0.0287 -0.1231 -0.0732
  657ERGO    R4 8959   3.129  10.538   9.399 -0.2649 -0.0211  0.0131
  657ERGO    R5 8960   3.014  10.573   9.581 -0.1107 -0.0894  0.1268
  657ERGO    C1 8961   2.819  10.279   9.435 -0.2322 -0.0375  0.1823
  657ERGO    C2 8962   2.539  10.180   9.349  0.0517  0.0357  0.0469
  658ERGO   ROH 8963  13.635  12.380   9.791 -0.2256 -0.1052  0.0500
  658ERGO    R1 8964  13.428  12.502   9.640 -0.1733 -0.1157 -0.0295
  658ERGO    R2 8965  13.395  12.776   9.627 -0.1096 -0.1171 -0.1370
  658ERGO    R3 8966  13.406  12.731   9.359 -0.0787 -0.2154 -0.1207
  658ERGO    R4 8967  13.210  12.946   9.390 -0.0556 -0.1715 -0.2200
  658ERGO    R5 8968  13.180  12.757   9.285 -0.0687 -0.2087 -0.1583
  658ERGO    C1 8969  13.112  13.002   9.000  0.0050 -0.2955 -0.2530
  658ERGO    C2 8970  13.041  12.950   8.690  0.0570  0.1273 -0.0819
  659ERGO   ROH 8971  14.683   4.751  10.245 -0.0520  0.0019 -0.1048
  659ERGO    R1 8972  14.765   4.621  10.008 -0.1853 -0.1042 -0.0939
  659ERGO    R2 8973  14.586   4.527   9.820 -0.2838  0.2277 -0.1718
  659ERGO    R3 8974  14.733   4.680   9.650  0.0411  0.0082 -0.0980
  659ERGO    R4 8975  14.576   4.503   9.475 -0.2698  0.3531 -0.1816
  659ERGO    R5 8976  14.793   4.530   9.473 -0.2100 -0.0556 -0.1335
  659ERGO    C1 8977  14.709   4.633   9.115  0.0435  0.2201 -0.1181
  659ERGO    C2 8978  14.580   4.622   8.839  0.5152 -0.0796 -0.1947
  660ERGO   ROH 8979   2.380  14.157  10.105  0.0532  0.0814 -0.0929
  660ERGO    R1 8980   2.434  14.313   9.876 -0.0086 -0.0368 -0.1895
  660ERGO    R2 8981   2.690  14.361   9.785 -0.0071  0.2295 -0.0624
  660ERGO    R3 8982   2.592  14.262   9.552  0.2702 -0.1026 -0.0450
  660ERGO    R4 8983   2.804  14.449   9.471 -0.0409  0.2416 -0.0708
  660ERGO    R5 8984   2.597  14.449   9.402 -0.0167 -0.1859 -0.1601
  660ERGO    C1 8985   2.778  14.407   9.069  0.1997 -0.0631 -0.0594
  660ERGO    C2 8986   2.844  14.378   8.698  0.2059 -0.1701  0.2141
  661ERGO   ROH 8987  12.302   1.680   9.665  0.0835 -0.1532 -0.0642
  661ERGO    R1 8988  12.177   1.547   9.449  0.1294 -0.2288 -0.0447
  661ERGO    R2 8989  12.120   1.673   9.210 -0.0757 -0.2331  0.0012
  661ERGO    R3 8990  12.260   1.464   9.105  0.0822 -0.0821 -0.0928
  661ERGO    R4 8991  12.070   1.540   8.895 -0.2053 -0.3302  0.0621
  661ERGO    R5 8992  12.098   1.341   8.979  0.1091 -0.2922  0.0691
  661ERGO    C1 8993  12.172   1.268   8.613 -0.1326 -0.2450  0.0092
  661ERGO    C2 8994  11.944   1.161   8.268 -0.3670 -0.1867  0.1610
  662ERGO   ROH 8995   3.999  11.130   9.988 -0.0751  0.0694  0.0867
  662ERGO    R1 8996   4.014  11.282   9.750  0.0064  0.1552  0.1448
  662ERGO    R2 8997   4.207  11.476   9.709  0.1513  0.0298  0.1950
  662ERGO    R3 8998   4.256  11.332   9.483  0.0090  0.0769  0.1340
  662ERGO    R4 8999   4.354  11.601   9.422  0.1233  0.0408  0.1865
  662ERGO    R5 9000   4.212  11.485   9.304  0.0308  0.1505  0.1955
  662ERGO    C1 9001   4.485  11.540   9.043 -0.0267  0.0913  0.1242
  662ERGO    C2 9002   4.579  11.453   8.715 -0.1690  0.1798 -0.0609
  663ERGO   ROH 9003  16.036  14.230  10.038  0.0979  0.1012 -0.1325
  663ERGO    R1 9004  15.831  14.229   9.843  0.0118  0.0033 -0.0427
  663ERGO    R2 9005  15.840  14.388   9.616 -0.1652  0.0118 -0.0467
  663ERGO    R3 9006  15.803  14.150   9.489 -0.1042 -0.0058 -0.0313
  663ERGO    R4 9007  15.743  14.354   9.286 -0.2398 -0.0371 -0.0199
  663ERGO    R5 9008  15.614  14.189   9.346 -0.1568 -0.0865  0.0178
  663ERGO    C1 9009  15.652  14.112   8.974 -0.2260 -0.0822  0.0100
  663ERGO    C2 9010  15.618  14.049   8.645 -0.0353  0.1921 -0.0988
  664ERGO   ROH 9011   2.133  13.189  10.025 -0.2851  0.1083  0.1164
  664ERGO    R1 9012   2.017  13.219   9.769 -0.2340 -0.0489  0.0754
  664ERGO    R2 9013   2.118  13.393   9.579 -0.3204 -0.0181  0.0690
  664ERGO    R3 9014   2.122  13.170   9.424 -0.0968 -0.0500  0.1142
  664ERGO    R4 9015   2.101  13.393   9.234  0.0178 -0.0784  0.0480
  664ERGO    R5 9016   1.970  13.220   9.245  0.0550 -0.1239 -0.0471
  664ERGO    C1 9017   2.095  13.184   8.887  0.4246 -0.1434  0.0781
  664ERGO    C2 9018   2.047  13.172   8.510 -0.1939  0.0210  0.1705
  665ERGO   ROH 9019   1.227   4.984  10.274 -0.0435  0.2399 -0.1348
  665ERGO    R1 9020   1.366   5.017  10.029  0.0391  0.0904 -0.1100
  665ERGO    R2 9021   1.236   5.067   9.790  0.1304  0.1396 -0.1517
  665ERGO    R3 9022   1.405   5.281   9.781  0.2896  0.0153 -0.1531
  665ERGO    R4 9023   1.324   5.237   9.502  0.1542  0.1546 -0.1352
  665ERGO    R5 9024   1.528   5.250   9.578  0.1923 -0.0215 -0.2064
  665ERGO    C1 9025   1.533   5.536   9.326  0.3175  0.0467 -0.1270
  665ERGO    C2 9026   1.634   5.659   9.136 -0.3962 -0.1465  0.2056
  666ERGO   ROH 9027   2.926   9.964  10.109 -0.0874 -0.0379 -0.0117
  666ERGO    R1 9028   2.907   9.954   9.827 -0.0754 -0.1863 -0.0087
  666ERGO    R2 9029   3.103  10.056   9.661 -0.2885  0.1797 -0.0514
  666ERGO    R3 9030   3.096   9.806   9.554  0.2470  0.1125  0.0466
  666ERGO    R4 9031   3.173   9.982   9.331 -0.3951  0.2401 -0.0878
  666ERGO    R5 9032   3.008   9.839   9.333 -0.0406 -0.1865  0.1120
  666ERGO    C1 9033   3.208   9.704   9.038  0.0455  0.2123 -0.0170
  666ERGO    C2 9034   3.252   9.787   8.708 -0.0719  0.1294  0.0382
  667ERGO   ROH 9035  10.416   7.693  10.165  0.0540  0.2045 -0.1167
  667ERGO    R1 9036  10.285   7.652   9.917  0.0232  0.2263 -0.1034
  667ERGO    R2 9037  10.336   7.809   9.695  0.2376  0.0392 -0.1863
  667ERGO    R3 9038  10.384   7.568   9.577 -0.0519 -0.0910 -0.0509
  667ERGO    R4 9039  10.287   7.739   9.360  0.2681 -0.0494 -0.1730
  667ERGO    R5 9040  10.208   7.544   9.417 -0.0301  0.0815 -0.1064
  667ERGO    C1 9041  10.303   7.473   9.055  0.0141 -0.2232 -0.0383
  667ERGO    C2 9042  10.266   7.201   8.752 -0.2079  0.2371  0.4564
  668ERGO   ROH 9043  16.806   0.116   9.977 -0.1520  0.0606 -0.0895
  668ERGO    R1 9044  16.867   0.248   9.734 -0.1183  0.0565 -0.0823
  668ERGO    R2 9045  17.111   0.220   9.607 -0.0969  0.0671 -0.0377
  668ERGO    R3 9046  16.956   0.150   9.395 -0.0542  0.0528 -0.0654
  668ERGO    R4 9047  17.176   0.304   9.278 -0.0511  0.0856 -0.0249
  668ERGO    R5 9048  16.963   0.340   9.250 -0.0536  0.0601 -0.0587
  668ERGO    C1 9049  17.069   0.286   8.888  0.0154  0.0829 -0.0433
  668ERGO    C2 9050  17.087   0.326   8.545 -0.0989 -0.2905 -0.0905
  669ERGO   ROH 9051   7.342  10.513  10.104  0.1615 -0.2065 -0.0273
  669ERGO    R1 9052   7.225  10.611   9.865  0.0908 -0.1557  0.0291
  669ERGO    R2 9053   7.371  10.655   9.635  0.0079 -0.1684 -0.0195
  669ERGO    R3 9054   7.183  10.494   9.523 -0.0746 -0.1092  0.0306
  669ERGO    R4 9055   7.345  10.587   9.297 -0.3375  0.1648 -0.0682
  669ERGO    R5 9056   7.129  10.601   9.316 -0.3310  0.0914  0.1888
  669ERGO    C1 9057   7.154  10.395   8.996 -0.6160  0.4145 -0.0496
  669ERGO    C2 9058   7.044  10.202   8.784 -0.0454  0.1076  0.3947
  670ERGO   ROH 9059   6.459  15.645  10.268  0.0921  0.1750  0.0925
  670ERGO    R1 9060   6.433  15.535  10.008  0.0792 -0.0116  0.1716
  670ERGO    R2 9061   6.338  15.681   9.793 -0.1158 -0.2219  0.1125
  670ERGO    R3 9062   6.571  15.601   9.678 -0.0965 -0.1142  0.0756
  670ERGO    R4 9063   6.396  15.665   9.453 -0.0544  0.1165  0.1040
  670ERGO    R5 9064   6.503  15.479   9.484 -0.0653  0.0797 -0.0615
  670ERGO    C1 9065   6.648  15.582   9.147 -0.0005  0.4147  0.0645
  670ERGO    C2 9066   6.658  15.606   8.904 -0.1995 -0.2588 -0.0686
  671ERGO   ROH 9067   5.498  14.025  10.264  0.1168  0.0241 -0.0399
  671ERGO    R1 9068   5.499  14.153  10.011  0.0889 -0.0136 -0.0590
  671ERGO    R2 9069   5.732  14.239   9.889  0.0642  0.0700 -0.0451
  671ERGO    R3 9070   5.641  14.087   9.683  0.1547 -0.0006 -0.0339
  671ERGO    R4 9071   5.858  14.246   9.567 -0.1046  0.3136 -0.1090
  671ERGO    R5 9072   5.654  14.231   9.492 -0.1287  0.0673 -0.0079
  671ERGO    C1 9073   5.846  14.107   9.186 -0.1180  0.3891 -0.1356
  671ERGO    C2 9074   6.019  14.109   9.019 -0.0436 -0.0169  0.2839
  672ERGO   ROH 9075   8.676   7.098  10.261 -0.2408 -0.0863 -0.0188
  672ERGO    R1 9076   8.755   7.085   9.990 -0.1845 -0.0089 -0.0065
  672ERGO    R2 9077   8.621   6.931   9.803 -0.0822 -0.0393 -0.0554
  672ERGO    R3 9078   8.607   7.167   9.668 -0.1610 -0.0238 -0.0210
  672ERGO    R4 9079   8.542   6.963   9.468 -0.2116 -0.0062 -0.0223
  672ERGO    R5 9080   8.695   7.117   9.451 -0.2361  0.0141 -0.0606
  672ERGO    C1 9081   8.483   7.203   9.146 -0.3610  0.0276  0.0292
  672ERGO    C2 9082   8.430   7.145   8.840 -0.2914  0.1607  0.1664
  673ERGO   ROH 9083   1.769  11.928   9.921  0.2262 -0.0792 -0.1106
  673ERGO    R1 9084   1.674  11.791   9.693  0.1164 -0.0219 -0.0997
  673ERGO    R2 9085   1.657  11.910   9.444  0.1191  0.0012 -0.0877
  673ERGO    R3 9086   1.806  11.696   9.367  0.0057 -0.0624 -0.1336
  673ERGO    R4 9087   1.755  11.845   9.119  0.1877  0.0885 -0.0848
  673ERGO    R5 9088   1.715  11.633   9.154  0.0358  0.0962 -0.1956
  673ERGO    C1 9089   1.953  11.606   8.858  0.1212  0.0794 -0.1262
  673ERGO    C2 9090   1.896  11.468   8.547  0.1030  0.0758 -0.1345
  674ERGO   ROH 9091   1.466  14.699   9.172  0.1538 -0.0532 -0.0015
  674ERGO    R1 9092   1.510  14.650   8.897 -0.1472 -0.1402 -0.0368
  674ERGO    R2 9093   1.328  14.515   8.739 -0.4763  0.1074  0.1265
  674ERGO    R3 9094   1.347  14.737   8.584 -0.2876  0.0682  0.0904
  674ERGO    R4 9095   1.259  14.526   8.400 -0.4598  0.1014  0.1224
  674ERGO    R5 9096   1.432  14.657   8.375 -0.3463 -0.0423  0.1049
  674ERGO    C1 9097   1.238  14.741   8.057 -0.2731  0.0612  0.0860
  674ERGO    C2 9098   1.231  14.930   7.857  0.0253  0.3468  0.1423
  675loPI    C1 9099  12.645  14.113   5.175 -0.3177  0.0746  0.1726
  675loPI    C2 9100  12.586  14.315   4.834  0.1822  0.0406  0.0574
  675loPI    C3 9101  12.342  14.014   4.934 -0.2076  0.3073 -0.0680
  675loPI   PO4 9102  12.798  14.283   5.311  0.0123  0.2713 -0.0572
  675loPI   GL1 9103  12.906  14.278   5.649  0.1122  0.0083  0.2470
  675loPI   GL2 9104  13.109  14.518   5.675 -0.4237 -0.1266  0.2062
  675loPI   C1A 9105  12.869  14.062   6.061 -0.1202 -0.1671 -0.0873
  675loPI   C2A 9106  13.001  14.190   6.459  0.0688  0.0254  0.3548
  675loPI   C3A 9107  13.054  14.135   6.781 -0.4337  0.0038 -0.3734
  675loPI   C4A 9108  13.207  14.105   7.237  0.3476  0.2986  0.1707
  675loPI   C5A 9109  13.271  14.190   7.769  0.1503  0.2409 -0.1923
  675loPI   C6A 9110  12.990  14.209   8.106  0.1535 -0.1157 -0.2498
  675loPI   C1B 9111  13.340  14.446   6.117  0.1458  0.0741 -0.0172
  675loPI   C2B 9112  13.417  14.456   6.583  0.1748 -0.3934 -0.0680
  675loPI   C3B 9113  13.535  14.362   6.952  0.1726 -0.0534 -0.0724
  675loPI   C4B 9114  13.678  14.300   7.337 -0.1735  0.1858 -0.1052
  676loPI    C1 9115   5.307   6.019   5.913 -0.2406 -0.0393  0.1739
  676loPI    C2 9116   5.027   5.992   5.628 -0.1817  0.0824  0.1036
  676loPI    C3 9117   5.086   6.339   5.819 -0.0204  0.0807  0.0580
  676loPI   PO4 9118   5.222   5.706   6.071 -0.2179 -0.2449  0.0243
  676loPI   GL1 9119   5.089   5.513   6.418  0.1217  0.0910  0.1107
  676loPI   GL2 9120   4.702   5.519   6.482  0.2582  0.0327 -0.2505
  676loPI   C1A 9121   5.304   5.513   6.787 -0.2525 -0.0370  0.1778
  676loPI   C2A 9122   5.472   5.617   7.170  0.5247 -0.0496 -0.0696
  676loPI   C3A 9123   5.426   5.492   7.610  0.1700 -0.0431 -0.0644
  676loPI   C4A 9124   5.497   5.299   7.971  0.0589  0.0815 -0.0477
  676loPI   C5A 9125   5.765   4.952   8.180  0.0801 -0.3759  0.2228
  676loPI   C6A 9126   6.145   4.822   8.179  0.0609 -0.1329  0.0284
  676loPI   C1B 9127   4.582   5.537   6.896 -0.0792 -0.0279  0.2196
  676loPI   C2B 9128   4.587   5.594   7.309 -0.2141 -0.0971 -0.0538
  676loPI   C3B 9129   4.544   5.643   7.695 -0.1052  0.1192 -0.1385
  676loPI   C4B 9130   4.772   5.921   7.988  0.0144 -0.0670  0.1302
  677loPI    C1 9131   4.202  15.699   5.706 -0.0152  0.0297 -0.2385
  677loPI    C2 9132   4.200  15.527   5.345  0.2910 -0.1032 -0.1799
  677loPI    C3 9133   4.548  15.607   5.527  0.1387 -0.2297  0.1763
  677loPI   PO4 9134   4.114  15.571   5.903  0.0270  0.0937  0.0299
  677loPI   GL1 9135   4.197  15.613   6.332  0.0228  0.0935 -0.0540
  677loPI   GL2 9136   4.257  15.901   6.328  0.0411 -0.0417 -0.0296
  677loPI   C1A 9137   4.097  15.344   6.587 -0.0032  0.0593 -0.0210
  677loPI   C2A 9138   4.130  15.487   6.995 -0.0592  0.0652  0.0268
  677loPI   C3A 9139   3.993  15.594   7.405  0.0386  0.0370 -0.4970
  677loPI   C4A 9140   4.217  15.809   7.727  0.1262  0.2231 -0.2303
  677loPI   C5A 9141   4.294  15.777   8.084  0.0666 -0.2248 -0.0874
  677loPI   C6A 9142   4.614  15.967   8.207  0.0254  0.1642 -0.1663
  677loPI   C1B 9143   4.195  16.205   6.511  0.0404 -0.2615  0.3078
  677loPI   C2B 9144   4.180  16.450   6.834  0.0218  0.2893 -0.0309
  677loPI   C3B 9145   4.212  16.814   7.086 -0.3225 -0.1112  0.2016
  677loPI   C4B 9146   4.225  17.274   7.101  0.3999 -0.1388 -0.0471
  678loPI    C1 9147  11.644   4.202   5.785 -0.3741  0.0993  0.0841
  678loPI    C2 9148  11.415   4.521   5.709 -0.0411  0.2673 -0.2457
  678loPI    C3 9149  11.695   4.409   5.446  0.0988 -0.0749  0.0416
  678loPI   PO4 9150  11.745   4.202   5.996  0.1009  0.3073  0.2090
  678loPI   GL1 9151  11.627   4.100   6.402 -0.0956 -0.0760 -0.3479
  678loPI   GL2 9152  12.062   4.108   6.439  0.0865  0.0595  0.1682
  678loPI   C1A 9153  11.448   4.459   6.647 -0.3687  0.0794 -0.3823
  678loPI   C2A 9154  11.444   4.412   7.035 -0.0870 -0.1152 -0.1489
  678loPI   C3A 9155  11.691   4.300   7.386  0.0772 -0.2219 -0.0364
  678loPI   C4A 9156  11.805   4.414   7.815 -0.2722  0.3254  0.2183
  678loPI   C5A 9157  12.086   4.655   8.082 -0.2204  0.0147  0.0127
  678loPI   C6A 9158  12.271   4.868   8.391 -0.2633 -0.1534 -0.2082
  678loPI   C1B 9159  11.865   4.079   6.797 -0.3996 -0.0742  0.0671
  678loPI   C2B 9160  11.693   3.809   7.268 -0.2112 -0.1255 -0.0057
  678loPI   C3B 9161  11.451   3.943   7.597  0.1790 -0.0770  0.0258
  678loPI   C4B 9162  11.008   3.993   7.713  0.2381  0.3436 -0.5122
  679loPI    C1 9163   3.207  12.153   5.933  0.0332 -0.2310  0.1157
  679loPI    C2 9164   3.416  12.210   5.596 -0.0819  0.1141  0.0989
  679loPI    C3 9165   3.034  12.092   5.577 -0.0376 -0.0327  0.1146
  679loPI   PO4 9166   3.238  12.398   6.044 -0.0231  0.0048  0.0602
  679loPI   GL1 9167   3.273  12.388   6.495  0.1535 -0.0421  0.3998
  679loPI   GL2 9168   3.563  12.216   6.470 -0.2782  0.2063  0.0157
  679loPI   C1A 9169   3.593  12.713   6.673 -0.2195  0.1129  0.0215
  679loPI   C2A 9170   3.961  12.954   6.733  0.0081  0.1775 -0.0796
  679loPI   C3A 9171   4.308  12.748   6.980  0.2819 -0.1974  0.0613
  679loPI   C4A 9172   4.456  12.822   7.492  0.0110  0.0493  0.0895
  679loPI   C5A 9173   4.719  12.830   7.780 -0.0698 -0.0396 -0.2834
  679loPI   C6A 9174   4.720  12.716   8.218 -0.1825  0.2353 -0.1855
  679loPI   C1B 9175   3.487  12.165   6.957  0.0503  0.1202  0.0017
  679loPI   C2B 9176   3.410  12.446   7.418  0.0126 -0.3355  0.1640
  679loPI   C3B 9177   3.375  12.364   7.862 -0.1570 -0.2906 -0.1479
  679loPI   C4B 9178   3.058  12.428   8.229 -0.1459  0.1239  0.0443
  680loPI    C1 9179   2.048   3.225   5.757  0.0067  0.2235  0.0028
  680loPI    C2 9180   1.938   3.507   5.496 -0.1680  0.1034 -0.0548
  680loPI    C3 9181   1.952   3.124   5.382 -0.0751  0.0711  0.0638
  680loPI   PO4 9182   2.054   3.405   5.981 -0.2385  0.1494  0.0068
  680loPI   GL1 9183   2.113   3.332   6.399  0.1245  0.0437  0.0226
  680loPI   GL2 9184   1.780   3.302   6.536 -0.2037  0.1061 -0.2292
  680loPI   C1A 9185   2.059   3.459   6.867 -0.1813 -0.2699 -0.0924
  680loPI   C2A 9186   2.118   3.530   7.319  0.2114 -0.0417  0.0432
  680loPI   C3A 9187   1.896   3.574   7.668 -0.0209  0.5257 -0.1696
  680loPI   C4A 9188   1.624   3.722   7.986 -0.1452 -0.1265  0.0563
  680loPI   C5A 9189   1.414   3.992   8.282 -0.0166 -0.2693 -0.2588
  680loPI   C6A 9190   1.303   4.380   8.398  0.0652 -0.2399 -0.1830
  680loPI   C1B 9191   1.554   3.227   6.955 -0.0812 -0.0988 -0.0948
  680loPI   C2B 9192   1.281   3.459   7.165 -0.1632 -0.0705 -0.0855
  680loPI   C3B 9193   1.245   3.647   7.589  0.2096  0.0108 -0.2232
  680loPI   C4B 9194   1.090   3.598   8.059  0.3678  0.0223 -0.2149
  681loPI    C1 9195  13.179  15.501   5.301 -0.0078 -0.0316  0.0608
  681loPI    C2 9196  12.859  15.622   5.507 -0.1314 -0.0405 -0.1239
  681loPI    C3 9197  12.812  15.440   5.154  0.0731 -0.1602 -0.0904
  681loPI   PO4 9198  13.372  15.398   5.487 -0.0052  0.4161 -0.0380
  681loPI   GL1 9199  13.272  15.664   5.794  0.0972  0.1994  0.2106
  681loPI   GL2 9200  13.054  15.428   5.893 -0.0569 -0.2320  0.1522
  681loPI   C1A 9201  13.617  15.784   6.126 -0.0860 -0.0999  0.1196
  681loPI   C2A 9202  13.735  15.803   6.497 -0.0126  0.1651  0.0141
  681loPI   C3A 9203  13.784  15.785   6.814  0.2334 -0.1011  0.1131
  681loPI   C4A 9204  13.995  15.734   7.257 -0.1433 -0.2900 -0.0188
  681loPI   C5A 9205  14.185  15.679   7.704 -0.1913  0.0203 -0.0103
  681loPI   C6A 9206  14.354  15.443   8.062 -0.0992 -0.0608 -0.1631
  681loPI   C1B 9207  13.140  15.468   6.376  0.2219  0.0239  0.0088
  681loPI   C2B 9208  13.274  15.449   6.749  0.2174  0.2051 -0.0861
  681loPI   C3B 9209  13.246  15.634   7.187 -0.1348  0.0380 -0.0206
  681loPI   C4B 9210  13.316  15.717   7.594  0.0371  0.0943  0.2496
  682loPI    C1 9211  16.073  12.174   5.454  0.0227 -0.0879  0.0285
  682loPI    C2 9212  15.838  12.241   5.137  0.0301 -0.5201 -0.0744
  682loPI    C3 9213  16.235  12.256   5.097  0.0292 -0.1507  0.0171
  682loPI   PO4 9214  15.962  11.961   5.577 -0.2344 -0.1840 -0.2938
  682loPI   GL1 9215  15.892  11.898   5.930 -0.1049  0.1809  0.3598
  682loPI   GL2 9216  15.773  11.714   6.100  0.2992  0.1059 -0.2500
  682loPI   C1A 9217  15.934  12.165   6.283  0.1376  0.1007  0.1090
  682loPI   C2A 9218  16.158  12.247   6.601  0.2394 -0.1037  0.2456
  682loPI   C3A 9219  16.254  12.280   7.076 -0.4912 -0.0766  0.0707
  682loPI   C4A 9220  16.428  12.253   7.428  0.2926 -0.1121 -0.1224
  682loPI   C5A 9221  16.385  12.521   7.682 -0.2044 -0.1904  0.0544
  682loPI   C6A 9222  16.149  12.719   7.953  0.1502 -0.0498  0.3173
  682loPI   C1B 9223  15.747  11.742   6.532 -0.0970 -0.1762  0.1766
  682loPI   C2B 9224  15.852  11.984   6.871 -0.2612 -0.1027 -0.2419
  682loPI   C3B 9225  15.927  11.982   7.295  0.0261  0.0965 -0.1172
  682loPI   C4B 9226  16.131  11.885   7.573 -0.1796 -0.1942 -0.1434
  683loPI    C1 9227   3.725   6.569   5.938 -0.1457  0.2607  0.0408
  683loPI    C2 9228   3.804   6.459   6.314 -0.0222 -0.2299 -0.1206
  683loPI    C3 9229   3.434   6.569   6.211 -0.0023  0.1566  0.1957
  683loPI   PO4 9230   3.903   6.849   5.946 -0.2057 -0.0133 -0.2109
  683loPI   GL1 9231   4.295   6.898   6.274 -0.2414  0.0835 -0.1022
  683loPI   GL2 9232   3.999   6.905   6.503  0.1456  0.0907  0.0009
  683loPI   C1A 9233   4.614   6.901   6.612 -0.1332 -0.3552  0.1790
  683loPI   C2A 9234   4.590   7.065   7.002  0.3485 -0.0730  0.1217
  683loPI   C3A 9235   4.365   6.860   7.316  0.0477  0.2054  0.2337
  683loPI   C4A 9236   4.422   6.597   7.550  0.0495  0.3704 -0.1208
  683loPI   C5A 9237   4.582   6.395   7.942 -0.0862  0.1117 -0.1897
  683loPI   C6A 9238   4.828   6.460   8.236  0.0345  0.1379  0.0701
  683loPI   C1B 9239   4.210   6.633   6.771  0.0599 -0.0693 -0.0334
  683loPI   C2B 9240   4.488   6.264   6.775 -0.3436 -0.1156 -0.0768
  683loPI   C3B 9241   4.558   6.092   7.048  0.0409 -0.1950 -0.1850
  683loPI   C4B 9242   4.554   6.095   7.474  0.3272 -0.0157 -0.2116
  684loPI    C1 9243  16.902   4.176   5.574  0.0814  0.0577  0.0524
  684loPI    C2 9244  16.822   4.450   5.294 -0.2021 -0.0336  0.0415
  684loPI    C3 9245  16.657   4.086   5.271  0.2669 -0.2498 -0.0111
  684loPI   PO4 9246  16.849   4.232   5.767  0.1406  0.0146  0.1556
  684loPI   GL1 9247  16.932   4.406   6.192  0.3310 -0.2624  0.1947
  684loPI   GL2 9248  17.124   4.633   6.236  0.2027  0.1278 -0.1531
  684loPI   C1A 9249  16.664   4.399   6.523 -0.1826  0.1450  0.2390
  684loPI   C2A 9250  16.693   4.353   6.860  0.0318 -0.3692 -0.2078
  684loPI   C3A 9251  16.576   4.133   7.072  0.2729  0.3595 -0.5069
  684loPI   C4A 9252  16.548   4.046   7.486  0.0195  0.1043 -0.0585
  684loPI   C5A 9253  16.310   3.792   7.831  0.3587  0.1220  0.0728
  684loPI   C6A 9254  16.142   3.889   8.352 -0.3321 -0.1010 -0.0310
  684loPI   C1B 9255  17.151   4.618   6.673 -0.2142 -0.1279  0.3766
  684loPI   C2B 9256  17.065   4.605   7.064 -0.0356 -0.1638 -0.0009
  684loPI   C3B 9257  17.248   4.641   7.409  0.0016  0.3038  0.1854
  684loPI   C4B 9258  17.335   4.538   7.809 -0.1412  0.0294 -0.0794
  685loPI    C1 9259   1.976   5.741   5.982 -0.0636 -0.0531 -0.0711
  685loPI    C2 9260   1.788   5.569   6.290 -0.1091  0.0115 -0.0625
  685loPI    C3 9261   1.778   5.398   5.929  0.3988 -0.3542  0.0841
  685loPI   PO4 9262   1.997   6.051   6.054 -0.0006  0.2362  0.5453
  685loPI   GL1 9263   2.189   6.322   6.449  0.4656  0.0010 -0.1621
  685loPI   GL2 9264   1.908   6.292   6.487 -0.1584  0.0417 -0.2616
  685loPI   C1A 9265   2.251   6.412   6.887 -0.0497 -0.1287  0.3594
  685loPI   C2A 9266   2.616   6.428   7.153 -0.3358 -0.0125  0.1521
  685loPI   C3A 9267   2.755   6.568   7.555  0.0512  0.1620 -0.3113
  685loPI   C4A 9268   2.680   6.580   8.069  0.1678 -0.1664  0.0619
  685loPI   C5A 9269   2.526   7.001   8.231 -0.0305  0.2841  0.0493
  685loPI   C6A 9270   2.443   7.319   8.463  0.2634  0.0592 -0.2129
  685loPI   C1B 9271   1.905   6.030   6.904 -0.2220 -0.1011  0.1434
  685loPI   C2B 9272   1.852   5.904   7.325 -0.0920 -0.0558  0.0790
  685loPI   C3B 9273   2.018   5.995   7.846 -0.0172  0.2193  0.0851
  685loPI   C4B 9274   2.290   5.748   8.151 -0.1357  0.0524 -0.2311
  686loPI    C1 9275  15.586  14.085   4.953 -0.0680  0.1481  0.2114
  686loPI    C2 9276  15.522  14.365   4.675 -0.2127 -0.1758 -0.0912
  686loPI    C3 9277  15.669  14.009   4.569  0.1133 -0.1684  0.3095
  686loPI   PO4 9278  15.661  14.235   5.154 -0.1819  0.2278 -0.3071
  686loPI   GL1 9279  15.799  14.064   5.562 -0.0189  0.1426 -0.1668
  686loPI   GL2 9280  15.369  14.121   5.580 -0.1112  0.1008 -0.0239
  686loPI   C1A 9281  15.879  13.946   6.087  0.0026 -0.0833  0.0060
  686loPI   C2A 9282  16.023  13.771   6.426  0.1325  0.1403  0.2463
  686loPI   C3A 9283  16.065  13.781   6.867 -0.1333 -0.1020  0.0461
  686loPI   C4A 9284  16.039  13.646   7.365  0.0203  0.0824 -0.2518
  686loPI   C5A 9285  16.075  13.678   7.722 -0.0387  0.0504  0.0405
  686loPI   C6A 9286  15.957  13.942   7.955  0.0528  0.3938 -0.0357
  686loPI   C1B 9287  15.494  14.312   5.957  0.0669  0.0779  0.0245
  686loPI   C2B 9288  15.233  14.427   6.307 -0.1758  0.1632 -0.1431
  686loPI   C3B 9289  15.350  14.466   6.698  0.0666 -0.1294  0.0229
  686loPI   C4B 9290  15.485  14.527   7.092  0.0651  0.0324  0.3159
  687loPI    C1 9291  12.687   4.066   5.565  0.2514  0.1695 -0.0979
  687loPI    C2 9292  12.623   4.460   5.584  0.0566  0.1318  0.0500
  687loPI    C3 9293  12.590   4.269   5.234 -0.1635  0.1954  0.0344
  687loPI   PO4 9294  12.602   3.985   5.876  0.1448 -0.4614 -0.0655
  687loPI   GL1 9295  12.843   4.048   6.140  0.3127 -0.0091 -0.2015
  687loPI   GL2 9296  13.029   3.932   6.354 -0.0031 -0.2838 -0.1373
  687loPI   C1A 9297  12.580   4.172   6.491 -0.0856 -0.3829 -0.2344
  687loPI   C2A 9298  12.752   4.073   6.893 -0.0085  0.2491  0.0113
  687loPI   C3A 9299  12.790   4.018   7.345  0.0395 -0.2217 -0.1348
  687loPI   C4A 9300  12.794   4.056   7.790 -0.0219 -0.1411 -0.0962
  687loPI   C5A 9301  12.752   4.070   8.239 -0.2119 -0.3681 -0.3434
  687loPI   C6A 9302  12.667   4.224   8.739 -0.0115  0.1237 -0.0784
  687loPI   C1B 9303  13.149   3.809   6.767 -0.0907 -0.0646 -0.1873
  687loPI   C2B 9304  13.170   3.711   7.190 -0.0546  0.2952 -0.0799
  687loPI   C3B 9305  12.988   3.627   7.578 -0.1772  0.0718  0.2650
  687loPI   C4B 9306  12.896   3.536   7.968  0.1998 -0.0560  0.3023
  688loPI    C1 9307  10.128   8.287   5.787  0.3615 -0.2328  0.0279
  688loPI    C2 9308  10.187   8.618   5.572  0.3097 -0.1465  0.1451
  688loPI    C3 9309  10.168   8.262   5.390  0.1149 -0.0587 -0.0099
  688loPI   PO4 9310  10.242   8.371   6.035  0.0654 -0.0023 -0.1256
  688loPI   GL1 9311  10.379   8.040   6.344 -0.1211 -0.2626 -0.3324
  688loPI   GL2 9312  10.666   7.798   6.308 -0.0941  0.1568 -0.0111
  688loPI   C1A 9313  10.457   8.284   6.695 -0.1041 -0.0912  0.0340
  688loPI   C2A 9314  10.511   8.233   7.136 -0.2041 -0.1541  0.0592
  688loPI   C3A 9315  10.309   8.041   7.414 -0.2000  0.0515  0.2063
  688loPI   C4A 9316  10.456   7.944   7.720  0.0197 -0.0636  0.3125
  688loPI   C5A 9317  10.858   7.929   7.923  0.0799  0.1249 -0.3066
  688loPI   C6A 9318  11.254   7.808   8.034 -0.1569  0.0210  0.2113
  688loPI   C1B 9319  10.669   7.827   6.826  0.0939 -0.0296  0.0621
  688loPI   C2B 9320  10.700   7.679   7.280  0.0996 -0.4006  0.1545
  688loPI   C3B 9321  10.870   7.461   7.706 -0.0175 -0.1912 -0.0652
  688loPI   C4B 9322  10.876   7.226   8.056 -0.1999 -0.0210  0.2790
  689loPI    C1 9323  11.131   3.556   5.734 -0.1767 -0.0035  0.1555
  689loPI    C2 9324  11.409   3.644   5.460 -0.1460 -0.4324  0.0423
  689loPI    C3 9325  11.021   3.685   5.372 -0.1283  0.1627  0.1989
  689loPI   PO4 9326  11.175   3.307   5.895 -0.2804  0.3553  0.0910
  689loPI   GL1 9327  11.155   3.299   6.348 -0.0383 -0.3310  0.0666
  689loPI   GL2 9328  11.199   3.004   6.556  0.1996 -0.0184  0.0066
  689loPI   C1A 9329  11.176   3.433   6.830  0.3535  0.0643  0.1095
  689loPI   C2A 9330  11.213   3.131   7.193  0.0832 -0.0425  0.1471
  689loPI   C3A 9331  11.274   2.893   7.503  0.1837  0.1045  0.2473
  689loPI   C4A 9332  11.341   3.071   7.939  0.1002 -0.3229  0.2891
  689loPI   C5A 9333  11.504   3.107   8.366  0.1570  0.2031  0.1329
  689loPI   C6A 9334  11.439   3.072   8.765 -0.1717 -0.2226  0.1372
  689loPI   C1B 9335  11.403   2.746   6.880 -0.0615  0.1666 -0.1964
  689loPI   C2B 9336  11.407   2.495   7.293  0.0275  0.0492 -0.1621
  689loPI   C3B 9337  11.591   2.304   7.788  0.0678  0.0580 -0.1997
  689loPI   C4B 9338  11.723   2.031   8.155 -0.2242  0.0053 -0.0477
  690loPI    C1 9339   5.874   4.878   5.875 -0.3400 -0.2005  0.0831
  690loPI    C2 9340   6.174   4.633   5.978 -0.0074  0.2087  0.1173
  690loPI    C3 9341   6.127   4.744   5.596 -0.2242  0.0122  0.0841
  690loPI   PO4 9342   5.606   4.833   6.024 -0.1105  0.0745  0.0492
  690loPI   GL1 9343   5.263   4.732   6.275 -0.2308 -0.0260 -0.0655
  690loPI   GL2 9344   5.409   4.406   6.326 -0.3155 -0.1769 -0.0894
  690loPI   C1A 9345   5.249   4.623   6.718 -0.1161  0.0556 -0.0869
  690loPI   C2A 9346   5.317   4.541   7.163 -0.0539  0.0334 -0.1741
  690loPI   C3A 9347   5.436   4.380   7.531  0.1498 -0.3381 -0.1638
  690loPI   C4A 9348   5.721   4.119   7.750 -0.0643 -0.0315  0.0435
  690loPI   C5A 9349   5.776   4.000   8.181  0.2201 -0.1305 -0.1739
  690loPI   C6A 9350   5.506   4.055   8.544  0.1406 -0.0529 -0.1327
  690loPI   C1B 9351   5.493   4.138   6.770 -0.0768 -0.1112  0.1978
  690loPI   C2B 9352   5.459   4.056   7.176 -0.1952  0.1379  0.0126
  690loPI   C3B 9353   5.303   3.823   7.536 -0.0785  0.1760 -0.2569
  690loPI   C4B 9354   5.271   3.902   8.038  0.2088  0.1521  0.3419
  691loPI    C1 9355   5.116   4.160   5.911 -0.1452  0.1244  0.2981
  691loPI    C2 9356   4.848   4.444   5.996 -0.0833  0.2638  0.0373
  691loPI    C3 9357   5.192   4.541   5.816  0.0348  0.0519  0.1452
  691loPI   PO4 9358   5.153   4.010   6.137 -0.2055 -0.0445  0.0073
  691loPI   GL1 9359   5.014   4.197   6.567  0.2124  0.0535  0.2154
  691loPI   GL2 9360   4.798   4.483   6.545 -0.0105  0.0179  0.0487
  691loPI   C1A 9361   4.975   4.178   6.987  0.0360  0.1793  0.2027
  691loPI   C2A 9362   4.938   4.252   7.380  0.0947 -0.0472  0.0304
  691loPI   C3A 9363   5.028   4.374   7.802 -0.2557 -0.0327 -0.0841
  691loPI   C4A 9364   5.344   4.400   8.167 -0.3217  0.2634 -0.0443
  691loPI   C5A 9365   5.672   4.548   8.431  0.0959 -0.0559 -0.2458
  691loPI   C6A 9366   5.955   4.736   8.658  0.1443 -0.0751 -0.1073
  691loPI   C1B 9367   4.789   4.608   7.015  0.2041  0.0269 -0.2450
  691loPI   C2B 9368   4.926   4.812   7.468 -0.0599  0.2516 -0.0197
  691loPI   C3B 9369   4.700   4.798   7.874 -0.0620 -0.1463 -0.1454
  691loPI   C4B 9370   4.888   4.780   8.232  0.0976  0.2647 -0.1332
  692loPI    C1 9371  13.907  16.526   5.366 -0.1622 -0.1194  0.0446
  692loPI    C2 9372  13.622  16.544   5.086 -0.1806  0.3495  0.0862
  692loPI    C3 9373  14.004  16.610   4.987 -0.0566 -0.4037  0.0063
  692loPI   PO4 9374  13.868  16.308   5.484 -0.0233 -0.2500  0.2170
  692loPI   GL1 9375  14.091  16.089   5.691 -0.0856  0.0855 -0.0640
  692loPI   GL2 9376  14.196  16.383   5.828  0.0712 -0.2342  0.0096
  692loPI   C1A 9377  14.116  15.999   6.105  0.0106 -0.1880 -0.1390
  692loPI   C2A 9378  14.277  16.052   6.520 -0.0624 -0.2370  0.0006
  692loPI   C3A 9379  14.332  16.018   6.903  0.1732  0.1479  0.1271
  692loPI   C4A 9380  14.513  15.999   7.394 -0.1917 -0.2892 -0.2070
  692loPI   C5A 9381  14.650  15.863   7.750 -0.0086  0.0102  0.3245
  692loPI   C6A 9382  14.854  15.629   8.113 -0.2215  0.0102 -0.1071
  692loPI   C1B 9383  14.085  16.468   6.240 -0.2391 -0.0083 -0.0304
  692loPI   C2B 9384  14.259  16.580   6.693 -0.0790  0.0190  0.0172
  692loPI   C3B 9385  14.480  16.473   7.143 -0.0978  0.2149 -0.1511
  692loPI   C4B 9386  14.629  16.520   7.544  0.1715 -0.3205 -0.0839
  693loPI    C1 9387  17.139   2.509   5.592  0.0616  0.0665  0.0953
  693loPI    C2 9388  16.935   2.825   5.457  0.0444  0.0109 -0.0088
  693loPI    C3 9389  17.020   2.521   5.211  0.0522 -0.0702  0.0934
  693loPI   PO4 9390  16.986   2.498   5.848 -0.1649  0.1692 -0.1576
  693loPI   GL1 9391  16.707   2.224   6.144  0.0034 -0.4349 -0.0613
  693loPI   GL2 9392  16.628   2.653   6.220  0.1224 -0.2467  0.2628
  693loPI   C1A 9393  16.586   2.095   6.537  0.0072  0.0800 -0.1302
  693loPI   C2A 9394  16.628   2.124   6.981  0.1878 -0.0006  0.1453
  693loPI   C3A 9395  16.588   2.058   7.407 -0.0875  0.0771  0.1921
  693loPI   C4A 9396  16.585   2.191   7.816 -0.1092 -0.0377  0.0821
  693loPI   C5A 9397  16.672   2.469   8.175 -0.3216 -0.0843  0.0100
  693loPI   C6A 9398  16.857   2.739   8.441 -0.0019 -0.6266  0.0053
  693loPI   C1B 9399  16.725   2.544   6.639  0.4356 -0.0359 -0.3678
  693loPI   C2B 9400  16.539   2.648   7.042 -0.3370  0.0386  0.2539
  693loPI   C3B 9401  16.372   2.544   7.476  0.0031 -0.2105 -0.0742
  693loPI   C4B 9402  16.183   2.703   7.847 -0.2576  0.1965 -0.0850
  694loPI    C1 9403   7.743   8.344   5.693 -0.0255  0.0571  0.2745
  694loPI    C2 9404   7.516   8.556   5.440  0.0511 -0.1014  0.0693
  694loPI    C3 9405   7.613   8.178   5.352  0.5497  0.0217  0.0622
  694loPI   PO4 9406   7.686   8.303   6.076 -0.0301 -0.1893  0.1572
  694loPI   GL1 9407   7.888   8.101   6.215 -0.1979 -0.0353 -0.3447
  694loPI   GL2 9408   8.090   8.295   6.468  0.0151 -0.1986 -0.1528
  694loPI   C1A 9409   7.921   7.822   6.622 -0.0055 -0.1074  0.3171
  694loPI   C2A 9410   8.006   7.750   7.067  0.1330 -0.0427  0.1522
  694loPI   C3A 9411   7.931   7.760   7.470  0.2273  0.0041 -0.0730
  694loPI   C4A 9412   8.249   7.809   7.859 -0.3749  0.0130  0.0490
  694loPI   C5A 9413   8.310   7.769   8.302  0.3209  0.0832 -0.0539
  694loPI   C6A 9414   8.610   7.606   8.717 -0.4803 -0.1438  0.0183
  694loPI   C1B 9415   8.024   8.268   6.831  0.0729  0.2299  0.1858
  694loPI   C2B 9416   8.036   8.226   7.279  0.2368 -0.1651 -0.0442
  694loPI   C3B 9417   7.981   8.223   7.745 -0.1418 -0.1992 -0.0354
  694loPI   C4B 9418   7.962   8.193   8.159 -0.0659  0.0056  0.0379
  695loPI    C1 9419  11.528  16.649   5.332 -0.2064 -0.1257  0.0248
  695loPI    C2 9420  11.720  16.308   5.246  0.0631  0.0678 -0.1588
  695loPI    C3 9421  11.438  16.447   4.998  0.1311  0.1077 -0.2139
  695loPI   PO4 9422  11.508  16.678   5.657 -0.3391  0.1141  0.0051
  695loPI   GL1 9423  11.499  16.586   6.032 -0.0516 -0.1729 -0.2246
  695loPI   GL2 9424  11.171  16.460   5.989  0.1832  0.0405  0.1497
  695loPI   C1A 9425  11.313  16.438   6.501 -0.0135 -0.1671  0.0102
  695loPI   C2A 9426  11.396  16.503   7.012  0.0744 -0.2293  0.0228
  695loPI   C3A 9427  11.447  16.365   7.307  0.4267  0.0139  0.1621
  695loPI   C4A 9428  11.629  16.343   7.632 -0.1882  0.1026  0.5308
  695loPI   C5A 9429  11.404  16.432   7.944  0.2144  0.1535 -0.0044
  695loPI   C6A 9430  11.475  16.142   8.335 -0.4936  0.1938  0.2102
  695loPI   C1B 9431  10.840  16.418   6.363  0.1285  0.0497 -0.0245
  695loPI   C2B 9432  10.815  16.573   6.772  0.1273 -0.1325  0.0458
  695loPI   C3B 9433  10.671  16.783   7.046  0.1273 -0.0623  0.2276
  695loPI   C4B 9434  10.633  16.744   7.392  0.0825  0.1823 -0.2178
  696loPI    C1 9435  12.440   6.449   5.411  0.2139 -0.0527  0.1524
  696loPI    C2 9436  12.670   6.754   5.293  0.0948 -0.0402 -0.0531
  696loPI    C3 9437  12.574   6.464   5.035 -0.1146 -0.0481  0.0316
  696loPI   PO4 9438  12.418   6.577   5.698  0.2975 -0.0096 -0.1683
  696loPI   GL1 9439  12.716   6.489   6.080 -0.1629 -0.1818 -0.0628
  696loPI   GL2 9440  12.389   6.428   6.153 -0.1635  0.0824  0.0748
  696loPI   C1A 9441  12.706   6.728   6.487 -0.0459 -0.2560  0.0867
  696loPI   C2A 9442  12.795   6.494   6.790 -0.1683  0.2061 -0.3193
  696loPI   C3A 9443  12.802   6.044   6.842 -0.1132 -0.1290  0.0562
  696loPI   C4A 9444  12.640   5.766   7.135  0.2753 -0.1594 -0.0814
  696loPI   C5A 9445  12.946   5.481   7.424 -0.1724  0.0064 -0.2235
  696loPI   C6A 9446  12.816   5.315   7.794 -0.3852 -0.1343 -0.1547
  696loPI   C1B 9447  12.451   6.231   6.526 -0.1623  0.0950  0.1885
  696loPI   C2B 9448  12.199   6.023   6.892  0.1138  0.1072  0.3420
  696loPI   C3B 9449  12.207   6.017   7.452 -0.1837  0.5282  0.2142
  696loPI   C4B 9450  12.022   6.287   7.726  0.2082 -0.0074 -0.2647
  697loPI    C1 9451  16.198   2.711   5.451 -0.3334 -0.1436 -0.0401
  697loPI    C2 9452  16.073   2.532   5.116 -0.0229 -0.0198 -0.2273
  697loPI    C3 9453  16.463   2.539   5.206 -0.0887  0.0767  0.0641
  697loPI   PO4 9454  16.070   2.622   5.655 -0.1204 -0.0629 -0.0138
  697loPI   GL1 9455  16.077   2.519   6.133  0.3729  0.2088 -0.3339
  697loPI   GL2 9456  16.157   2.169   6.068 -0.0807  0.0578 -0.3505
  697loPI   C1A 9457  16.110   2.490   6.519 -0.0873  0.2012  0.1314
  697loPI   C2A 9458  16.144   2.293   6.981 -0.1235  0.2874  0.2680
  697loPI   C3A 9459  16.070   2.184   7.333  0.1686  0.0909  0.2002
  697loPI   C4A 9460  16.018   2.111   7.724 -0.1864 -0.1404  0.0331
  697loPI   C5A 9461  16.159   2.252   8.210  0.0221  0.0107  0.1939
  697loPI   C6A 9462  15.814   2.328   8.593  0.1108  0.3705  0.0061
  697loPI   C1B 9463  16.041   1.950   6.437  0.3021  0.2312 -0.0497
  697loPI   C2B 9464  16.102   1.794   6.966 -0.1769 -0.2070 -0.0586
  697loPI   C3B 9465  16.232   1.672   7.389 -0.1146  0.1174  0.0751
  697loPI   C4B 9466  16.316   1.702   7.822 -0.3603 -0.0120 -0.0554
  698loPI    C1 9467   7.984   7.446   5.323 -0.1364  0.2998 -0.4039
  698loPI    C2 9468   8.281   7.299   5.100 -0.0938  0.0378 -0.1789
  698loPI    C3 9469   7.954   7.079   5.167 -0.2065  0.2060 -0.1739
  698loPI   PO4 9470   8.013   7.418   5.638 -0.0204 -0.0275  0.0887
  698loPI   GL1 9471   8.003   7.390   5.996  0.0813  0.1782  0.1265
  698loPI   GL2 9472   7.867   7.076   6.139 -0.2821  0.0041 -0.0215
  698loPI   C1A 9473   8.083   7.391   6.516 -0.0697 -0.0809  0.0194
  698loPI   C2A 9474   7.843   7.199   6.900 -0.1026  0.0659  0.0295
  698loPI   C3A 9475   7.954   7.008   7.260  0.1335  0.0290 -0.0134
  698loPI   C4A 9476   7.801   6.823   7.648 -0.1116 -0.1962  0.2818
  698loPI   C5A 9477   7.844   6.785   8.039 -0.1438 -0.0779  0.4396
  698loPI   C6A 9478   8.250   6.740   8.169 -0.2067 -0.0178 -0.2096
  698loPI   C1B 9479   7.640   6.926   6.505  0.2149  0.1687  0.1820
  698loPI   C2B 9480   7.710   6.723   6.950  0.0447  0.1942  0.2581
  698loPI   C3B 9481   7.643   6.455   7.334 -0.1650  0.2587  0.0849
  698loPI   C4B 9482   7.776   5.996   7.408  0.2303 -0.1244 -0.1792
  699loPI    C1 9483  12.613   5.404   5.704  0.1061 -0.0308 -0.0303
  699loPI    C2 9484  12.868   5.216   5.948  0.0147  0.0971  0.1661
  699loPI    C3 9485  12.716   5.024   5.632  0.4269  0.0494 -0.0106
  699loPI   PO4 9486  12.700   5.642   5.679  0.0137  0.1444  0.0941
  699loPI   GL1 9487  13.035   5.685   5.977 -0.3720 -0.1626 -0.1042
  699loPI   GL2 9488  12.930   6.024   5.951  0.0269  0.4129 -0.1087
  699loPI   C1A 9489  13.175   5.472   6.349 -0.0076  0.0378 -0.0175
  699loPI   C2A 9490  13.224   5.630   6.829  0.2629 -0.2306  0.2450
  699loPI   C3A 9491  13.262   5.872   7.264 -0.0120  0.1574 -0.2698
  699loPI   C4A 9492  13.246   6.084   7.699 -0.1485  0.3016 -0.3461
  699loPI   C5A 9493  12.857   6.428   7.769 -0.2328 -0.1207 -0.1012
  699loPI   C6A 9494  12.745   6.721   8.119  0.0588  0.0802  0.2520
  699loPI   C1B 9495  12.961   5.935   6.390 -0.0260 -0.1305 -0.1432
  699loPI   C2B 9496  12.772   5.560   6.677 -0.0189  0.1570  0.1047
  699loPI   C3B 9497  12.709   5.234   6.963  0.0808  0.4232  0.0468
  699loPI   C4B 9498  12.457   4.967   7.262 -0.1969 -0.1643  0.1680
  700loPI    C1 9499   6.454  17.191   5.759  0.0010  0.0637 -0.1430
  700loPI    C2 9500   6.597  16.832   5.656 -0.0060 -0.0174  0.1214
  700loPI    C3 9501   6.637  17.142   5.407 -0.0536 -0.2136 -0.1356
  700loPI   PO4 9502   6.528  17.249   5.950  0.2464  0.1933  0.1475
  700loPI   GL1 9503   6.487  17.585   6.183 -0.3078 -0.0978 -0.0569
  700loPI   GL2 9504   6.340  17.732   6.314 -0.0749 -0.2959  0.0112
  700loPI   C1A 9505   6.666  17.535   6.657 -0.2735  0.0467 -0.0836
  700loPI   C2A 9506   6.759  17.552   7.098 -0.1491 -0.2156  0.1533
  700loPI   C3A 9507   6.575  17.400   7.494  0.1254 -0.1925  0.4398
  700loPI   C4A 9508   6.235  17.418   7.825 -0.1967  0.0202  0.0629
  700loPI   C5A 9509   5.897  17.290   8.187 -0.0152  0.0786  0.2412
  700loPI   C6A 9510   5.471  17.339   8.117  0.1750 -0.0332 -0.0377
  700loPI   C1B 9511   6.176  17.625   6.701  0.3735 -0.2505  0.2757
  700loPI   C2B 9512   6.320  17.372   6.968 -0.0183  0.1055  0.3836
  700loPI   C3B 9513   6.127  17.102   7.297  0.1579 -0.0608  0.1640
  700loPI   C4B 9514   5.926  17.070   7.634 -0.3329 -0.1443 -0.2074
  701loPI    C1 9515  12.139  11.508   6.069  0.0405 -0.1023 -0.1464
  701loPI    C2 9516  11.775  11.385   5.957 -0.0016 -0.1223  0.0105
  701loPI    C3 9517  12.067  11.118   6.013 -0.0087 -0.1222  0.0481
  701loPI   PO4 9518  11.959  11.813   6.137 -0.0739 -0.0455  0.1203
  701loPI   GL1 9519  11.821  11.997   6.556  0.0085 -0.3700  0.0157
  701loPI   GL2 9520  11.541  12.142   6.480  0.1487 -0.0657  0.2437
  701loPI   C1A 9521  11.756  11.980   7.065 -0.1698  0.1911 -0.3662
  701loPI   C2A 9522  11.837  11.822   7.451  0.1237 -0.0508 -0.1245
  701loPI   C3A 9523  12.132  11.715   7.774 -0.1039  0.0090 -0.0285
  701loPI   C4A 9524  12.125  11.837   8.148  0.0254 -0.1108 -0.1029
  701loPI   C5A 9525  11.839  11.753   8.365  0.0287 -0.0962  0.4689
  701loPI   C6A 9526  11.490  11.582   8.701  0.0867  0.0680  0.0572
  701loPI   C1B 9527  11.410  12.264   6.853 -0.0154 -0.1092 -0.1574
  701loPI   C2B 9528  11.731  12.617   7.156  0.0315 -0.0966  0.1644
  701loPI   C3B 9529  11.868  12.784   7.474 -0.1437  0.0366  0.2039
  701loPI   C4B 9530  11.888  12.623   7.775  0.1514  0.1775 -0.1574
  702loPI    C1 9531  17.026   5.059   5.778 -0.1330  0.0860 -0.0219
  702loPI    C2 9532  16.792   4.738   5.725 -0.0900  0.0641 -0.0803
  702loPI    C3 9533  16.762   5.052   5.478  0.0879 -0.0243 -0.2164
  702loPI   PO4 9534  17.057   5.094   6.028  0.1094 -0.0565 -0.1304
  702loPI   GL1 9535  16.837   5.065   6.432  0.3854  0.0295 -0.1533
  702loPI   GL2 9536  16.615   4.836   6.229  0.0682  0.0672  0.1676
  702loPI   C1A 9537  16.978   5.044   6.810  0.2777 -0.2366  0.0890
  702loPI   C2A 9538  16.990   5.102   7.305  0.1995  0.3236  0.2432
  702loPI   C3A 9539  17.103   4.962   7.729 -0.1456 -0.0820 -0.1193
  702loPI   C4A 9540  17.165   4.861   8.175  0.1753 -0.1371 -0.0183
  702loPI   C5A 9541  17.441   4.654   8.514 -0.1306  0.2167  0.0574
  702loPI   C6A 9542  17.636   4.372   8.770 -0.2098 -0.0442 -0.1229
  702loPI   C1B 9543  16.491   4.800   6.711 -0.2020 -0.3528 -0.3467
  702loPI   C2B 9544  16.626   4.788   7.087 -0.2438  0.3060 -0.0286
  702loPI   C3B 9545  16.649   4.524   7.376  0.0126 -0.0725  0.1337
  702loPI   C4B 9546  16.876   4.506   7.779 -0.0958  0.1395 -0.1006
  703loPI    C1 9547   9.915   7.742   5.965  0.0640  0.2097 -0.2253
  703loPI    C2 9548  10.096   7.753   5.609  0.0620 -0.1222 -0.2388
  703loPI    C3 9549   9.753   7.552   5.653 -0.0992  0.1738 -0.1199
  703loPI   PO4 9550  10.062   7.733   6.147 -0.2384 -0.0816  0.1094
  703loPI   GL1 9551  10.266   7.652   6.634  0.3768  0.3075 -0.0661
  703loPI   GL2 9552  10.210   7.888   6.864  0.1836  0.2123 -0.0228
  703loPI   C1A 9553   9.911   7.422   6.861 -0.0624  0.2244  0.2777
  703loPI   C2A 9554   9.727   7.385   7.239  0.0633  0.0534 -0.1943
  703loPI   C3A 9555   9.594   7.392   7.658 -0.0857 -0.0888 -0.2592
  703loPI   C4A 9556   9.577   7.278   8.148 -0.2157 -0.0914 -0.1468
  703loPI   C5A 9557   9.456   7.315   8.615 -0.1782  0.1961  0.3039
  703loPI   C6A 9558   9.293   7.679   8.786 -0.2044  0.0414 -0.2549
  703loPI   C1B 9559  10.258   7.551   7.178  0.0189  0.0013  0.1018
  703loPI   C2B 9560  10.316   7.517   7.559  0.2725 -0.1233 -0.1557
  703loPI   C3B 9561  10.413   7.466   7.917  0.1990  0.0035  0.0490
  703loPI   C4B 9562  10.437   7.497   8.403 -0.2070  0.1643 -0.0367
  704loPI    C1 9563  17.428  14.682   4.901 -0.3271 -0.0827  0.1376
  704loPI    C2 9564  17.552  15.062   4.894  0.0451 -0.2020  0.0703
  704loPI    C3 9565  17.376  14.903   4.572 -0.1193 -0.0857  0.1017
  704loPI   PO4 9566  17.523  14.564   5.161 -0.1835 -0.2493 -0.3737
  704loPI   GL1 9567  17.453  14.600   5.583 -0.0453  0.0645 -0.1568
  704loPI   GL2 9568  17.257  14.291   5.541 -0.0736 -0.1203 -0.1086
  704loPI   C1A 9569  17.442  14.777   5.925 -0.2228  0.3046 -0.0635
  704loPI   C2A 9570  17.267  14.792   6.343 -0.0322  0.2189 -0.2077
  704loPI   C3A 9571  17.489  15.014   6.750  0.0996 -0.1899  0.2102
  704loPI   C4A 9572  17.543  15.098   7.235  0.1619 -0.0686  0.3748
  704loPI   C5A 9573  17.415  15.028   7.629  0.0061 -0.1491 -0.1771
  704loPI   C6A 9574  17.004  14.770   7.623  0.0442  0.0012  0.0888
  704loPI   C1B 9575  17.140  14.383   5.966  0.1023  0.0372  0.1532
  704loPI   C2B 9576  17.148  14.377   6.499  0.2503  0.3414 -0.4410
  704loPI   C3B 9577  17.361  14.580   6.922 -0.0790 -0.1726  0.0077
  704loPI   C4B 9578  17.329  14.523   7.316  0.4430  0.0423  0.2315
  705loPI    C1 9579   2.110  12.725   5.438  0.0250  0.0324  0.1498
  705loPI    C2 9580   1.791  12.923   5.301  0.0860  0.0276 -0.0004
  705loPI    C3 9581   2.159  13.043   5.201  0.1357  0.1015  0.2641
  705loPI   PO4 9582   1.999  12.669   5.684 -0.0382  0.1132  0.2248
  705loPI   GL1 9583   2.006  12.646   6.178  0.2423 -0.1626  0.1567
  705loPI   GL2 9584   2.220  12.344   6.041 -0.1577 -0.5652 -0.1673
  705loPI   C1A 9585   1.817  12.518   6.596 -0.0040 -0.0055  0.0865
  705loPI   C2A 9586   1.881  12.545   7.024 -0.1590  0.0496  0.1232
  705loPI   C3A 9587   1.757  12.558   7.414  0.0749 -0.3433  0.0785
  705loPI   C4A 9588   1.732  12.310   7.714 -0.2376  0.2323  0.2002
  705loPI   C5A 9589   1.752  12.013   8.039 -0.0383  0.1402 -0.2827
  705loPI   C6A 9590   1.502  11.720   8.140  0.1009 -0.0980  0.0889
  705loPI   C1B 9591   2.113  12.097   6.420 -0.1794  0.1628  0.2490
  705loPI   C2B 9592   2.022  12.077   6.826 -0.1092  0.0302  0.2112
  705loPI   C3B 9593   1.935  12.034   7.279  0.0199 -0.0123 -0.0390
  705loPI   C4B 9594   1.903  11.739   7.639  0.2310 -0.2389 -0.2553
  706loPI    C1 9595   1.685   9.647   5.993 -0.1125 -0.0966  0.1932
  706loPI    C2 9596   1.639   9.260   6.085  0.0008 -0.1495  0.0308
  706loPI    C3 9597   1.692   9.370   5.704 -0.3949  0.0600  0.0313
  706loPI   PO4 9598   1.704   9.737   6.278  0.0065  0.3794 -0.1621
  706loPI   GL1 9599   1.908   9.725   6.676  0.0399  0.2901 -0.3293
  706loPI   GL2 9600   1.870   9.366   6.581 -0.0040  0.0287  0.1602
  706loPI   C1A 9601   1.858   9.541   7.147  0.0106 -0.1389 -0.1842
  706loPI   C2A 9602   1.773   9.378   7.523  0.0328  0.4168 -0.0642
  706loPI   C3A 9603   1.661   9.006   7.836 -0.0469  0.0698  0.2248
  706loPI   C4A 9604   1.575   8.663   8.131  0.0894  0.1748  0.1432
  706loPI   C5A 9605   1.200   8.235   8.262  0.1826 -0.0946 -0.1681
  706loPI   C6A 9606   0.895   8.156   8.581 -0.1551  0.3126  0.1089
  706loPI   C1B 9607   1.642   9.173   6.864 -0.1291  0.2278 -0.3718
  706loPI   C2B 9608   1.440   9.154   7.246 -0.1640 -0.1268 -0.1698
  706loPI   C3B 9609   1.175   9.138   7.627  0.0402  0.1079 -0.0786
  706loPI   C4B 9610   0.926   9.448   7.849  0.1353  0.0461  0.0111
  707loPI    C1 9611   8.103  14.364   5.902 -0.1083  0.0943  0.1265
  707loPI    C2 9612   8.293  14.116   6.151  0.3163  0.0403 -0.2373
  707loPI    C3 9613   8.081  13.968   5.845  0.1597  0.1177 -0.1676
  707loPI   PO4 9614   7.978  14.489   6.022 -0.0439  0.0200  0.1492
  707loPI   GL1 9615   7.949  14.486   6.438 -0.1835  0.1296  0.0162
  707loPI   GL2 9616   8.179  14.702   6.594  0.3147  0.2315  0.0968
  707loPI   C1A 9617   8.067  14.156   6.778  0.0031 -0.0727  0.0386
  707loPI   C2A 9618   7.876  14.185   7.198 -0.3224  0.1672  0.1454
  707loPI   C3A 9619   7.832  14.389   7.641 -0.0667  0.3554 -0.0492
  707loPI   C4A 9620   7.834  14.523   8.071 -0.0478  0.1183  0.0618
  707loPI   C5A 9621   8.085  14.564   8.418  0.2039 -0.0003 -0.0659
  707loPI   C6A 9622   7.911  14.748   8.845  0.3340 -0.2335 -0.2695
  707loPI   C1B 9623   8.338  14.503   7.048  0.0820  0.1359 -0.0105
  707loPI   C2B 9624   8.307  14.426   7.462  0.0329 -0.0682  0.2989
  707loPI   C3B 9625   8.337  14.456   7.941 -0.0019  0.1854  0.0892
  707loPI   C4B 9626   8.534  14.409   8.375 -0.0987  0.1850  0.2977
  708loPI    C1 9627  17.300  15.935   5.052 -0.0372  0.1036 -0.2704
  708loPI    C2 9628  17.055  16.099   5.322  0.2839  0.2064 -0.0349
  708loPI    C3 9629  16.904  15.891   5.015 -0.0819 -0.0900  0.3348
  708loPI   PO4 9630  17.509  16.005   5.210 -0.3983  0.0703  0.1370
  708loPI   GL1 9631  17.439  16.032   5.630 -0.1137 -0.1054 -0.1398
  708loPI   GL2 9632  17.528  15.710   5.615 -0.1649 -0.0075  0.0310
  708loPI   C1A 9633  17.391  16.049   5.994  0.1848  0.0986  0.0626
  708loPI   C2A 9634  17.471  16.117   6.478  0.1100 -0.0445 -0.0005
  708loPI   C3A 9635  17.507  16.008   6.989  0.0753  0.1959 -0.0209
  708loPI   C4A 9636  17.586  16.105   7.473 -0.0437  0.1888  0.4839
  708loPI   C5A 9637  17.343  16.107   7.721 -0.0911  0.0353  0.0263
  708loPI   C6A 9638  17.044  16.145   8.104 -0.2566 -0.0234 -0.3309
  708loPI   C1B 9639  17.881  15.692   5.921  0.2946  0.0636 -0.3394
  708loPI   C2B 9640  17.865  15.838   6.406  0.0241  0.0468 -0.1551
  708loPI   C3B 9641  18.003  15.692   6.848  0.3341 -0.1444 -0.0498
  708loPI   C4B 9642  17.762  15.602   7.198  0.2176  0.1493 -0.0566
  709loPI    C1 9643  17.636  17.200   5.217  0.2529 -0.0510 -0.0626
  709loPI    C2 9644  17.871  17.297   4.909  0.1559  0.1858 -0.0632
  709loPI    C3 9645  17.841  17.543   5.223  0.0096  0.0953 -0.0053
  709loPI   PO4 9646  17.742  16.899   5.360  0.0842  0.0997 -0.0498
  709loPI   GL1 9647  17.739  16.785   5.835 -0.3615  0.0221 -0.0226
  709loPI   GL2 9648  17.574  16.640   5.775 -0.1062  0.0300  0.3722
  709loPI   C1A 9649  17.632  16.586   6.259  0.0599  0.0134 -0.0235
  709loPI   C2A 9650  17.511  16.590   6.652 -0.1494 -0.0856  0.2235
  709loPI   C3A 9651  17.564  16.545   7.042  0.2542  0.3958 -0.1360
  709loPI   C4A 9652  17.464  16.683   7.482  0.2628 -0.0110 -0.1245
  709loPI   C5A 9653  17.379  17.022   7.782 -0.0182  0.0228 -0.1508
  709loPI   C6A 9654  17.032  16.960   8.086 -0.0390  0.2068 -0.1787
  709loPI   C1B 9655  17.199  16.898   5.991 -0.1129 -0.0439  0.0331
  709loPI   C2B 9656  17.141  16.915   6.439  0.0310  0.1760 -0.2313
  709loPI   C3B 9657  17.248  16.866   6.980  0.3941  0.2980  0.0004
  709loPI   C4B 9658  17.046  16.810   7.290  0.3215  0.1508 -0.1880
  710loPI    C1 9659   0.712   2.328   5.823 -0.0945  0.0343 -0.2913
  710loPI    C2 9660   0.507   1.986   5.849 -0.0028  0.0002  0.0185
  710loPI    C3 9661   0.766   2.041   5.550 -0.0847 -0.1640 -0.0838
  710loPI   PO4 9662   0.882   2.306   6.069 -0.0358 -0.2095  0.0347
  710loPI   GL1 9663   0.724   2.556   6.431  0.1186  0.0778 -0.2975
  710loPI   GL2 9664   1.084   2.659   6.345  0.1230 -0.0601  0.1376
  710loPI   C1A 9665   0.600   2.641   6.892  0.0862  0.0584 -0.0950
  710loPI   C2A 9666   0.568   2.661   7.229 -0.2318 -0.3751 -0.0670
  710loPI   C3A 9667   0.458   2.655   7.685  0.1971 -0.1482 -0.2607
  710loPI   C4A 9668   0.389   2.595   8.053  0.3020  0.2054 -0.0626
  710loPI   C5A 9669   0.251   2.444   8.479 -0.2989  0.1327  0.0304
  710loPI   C6A 9670  -0.110   2.506   8.689  0.0752 -0.1241  0.1396
  710loPI   C1B 9671   1.057   2.522   6.762 -0.0594 -0.0776  0.2368
  710loPI   C2B 9672   1.084   2.498   7.127  0.0968  0.1038  0.0713
  710loPI   C3B 9673   0.976   2.670   7.515 -0.2363 -0.1958 -0.0836
  710loPI   C4B 9674   0.874   2.599   7.908  0.0814  0.1121 -0.0542
  711loPI    C1 9675   5.430  17.259   5.908 -0.0038  0.0382 -0.1517
  711loPI    C2 9676   5.376  17.653   5.954  0.1949  0.0836 -0.2934
  711loPI    C3 9677   5.203  17.462   5.649 -0.1611 -0.0004 -0.0451
  711loPI   PO4 9678   5.272  17.121   6.206 -0.2500 -0.1657 -0.1599
  711loPI   GL1 9679   5.334  16.774   6.455 -0.0487  0.0422 -0.0245
  711loPI   GL2 9680   5.648  16.863   6.752  0.0617 -0.0650  0.1689
  711loPI   C1A 9681   5.114  16.741   6.899  0.0012 -0.1026 -0.1377
  711loPI   C2A 9682   5.072  16.700   7.314 -0.0205  0.3189 -0.0473
  711loPI   C3A 9683   5.129  16.577   7.754  0.2524 -0.1484  0.1849
  711loPI   C4A 9684   5.030  16.374   8.105  0.2737 -0.0415 -0.2788
  711loPI   C5A 9685   4.797  16.432   8.411 -0.2793  0.1602 -0.2193
  711loPI   C6A 9686   4.457  16.697   8.667 -0.1120  0.2113 -0.0506
  711loPI   C1B 9687   5.557  16.850   7.197 -0.0263  0.0172  0.2518
  711loPI   C2B 9688   5.691  16.564   7.592  0.0337  0.0745  0.0917
  711loPI   C3B 9689   6.038  16.503   7.970 -0.0407  0.1069  0.3094
  711loPI   C4B 9690   6.168  16.823   8.154  0.0962 -0.2026  0.0460
  712loPI    C1 9691   8.351  13.000   6.013  0.0660  0.0592 -0.0348
  712loPI    C2 9692   8.411  12.720   5.733  0.0321 -0.1899  0.2024
  712loPI    C3 9693   8.554  13.090   5.680  0.1037 -0.2581 -0.1012
  712loPI   PO4 9694   8.556  12.905   6.187 -0.2330 -0.2582 -0.2267
  712loPI   GL1 9695   8.683  13.113   6.537  0.2065 -0.0574 -0.1652
  712loPI   GL2 9696   8.834  13.162   6.728  0.1383 -0.0154 -0.1417
  712loPI   C1A 9697   8.296  13.020   6.823 -0.0569  0.1543  0.0732
  712loPI   C2A 9698   8.323  12.982   7.151 -0.2418 -0.0685 -0.5592
  712loPI   C3A 9699   8.346  12.745   7.524 -0.1166  0.1643 -0.0661
  712loPI   C4A 9700   8.248  12.810   7.846 -0.2369  0.0331 -0.1175
  712loPI   C5A 9701   8.146  12.824   8.259 -0.1054 -0.1483  0.0529
  712loPI   C6A 9702   8.051  12.612   8.524 -0.0596 -0.2487 -0.3187
  712loPI   C1B 9703   8.795  13.120   7.131  0.0974 -0.3767  0.2382
  712loPI   C2B 9704   8.706  13.073   7.523 -0.1438 -0.3280  0.1134
  712loPI   C3B 9705   8.737  12.635   7.805  0.0107  0.0644 -0.0668
  712loPI   C4B 9706   8.641  12.525   8.201  0.1425  0.2706  0.0016
  713loPI    C1 9707  13.299   1.411   5.717  0.1066 -0.2660 -0.2399
  713loPI    C2 9708  13.654   1.377   5.536  0.0681  0.0068 -0.3726
  713loPI    C3 9709  13.343   1.530   5.337 -0.0224  0.1402 -0.1328
  713loPI   PO4 9710  13.345   1.496   5.945  0.1569  0.0182 -0.2040
  713loPI   GL1 9711  13.357   1.436   6.314  0.0380  0.1050 -0.0895
  713loPI   GL2 9712  13.077   1.700   6.279  0.1544  0.0780 -0.2214
  713loPI   C1A 9713  13.300   1.235   6.681  0.2301  0.1029  0.0765
  713loPI   C2A 9714  13.034   1.291   7.036  0.0972 -0.3054  0.0242
  713loPI   C3A 9715  12.885   1.405   7.510 -0.2782  0.1230 -0.4173
  713loPI   C4A 9716  12.509   1.436   7.751 -0.2160  0.1043 -0.0845
  713loPI   C5A 9717  12.326   1.483   8.158 -0.0196 -0.3052 -0.0371
  713loPI   C6A 9718  12.199   1.847   8.245  0.2226  0.0320 -0.0579
  713loPI   C1B 9719  12.951   1.855   6.657 -0.0303 -0.1481  0.0914
  713loPI   C2B 9720  12.771   1.852   7.105  0.0442  0.2820 -0.3159
  713loPI   C3B 9721  12.767   2.023   7.515 -0.0462 -0.1636  0.1149
  713loPI   C4B 9722  13.000   2.230   7.874  0.0664 -0.2421 -0.0113
  714loPI    C1 9723  15.999  17.170   5.205 -0.3701  0.1190  0.0933
  714loPI    C2 9724  16.159  17.494   5.033 -0.2193 -0.0953 -0.1780
  714loPI    C3 9725  15.763  17.438   5.025 -0.2672  0.1841  0.0540
  714loPI   PO4 9726  16.206  17.222   5.455  0.2464 -0.1298  0.1174
  714loPI   GL1 9727  16.397  17.298   5.812  0.1292  0.0435 -0.0952
  714loPI   GL2 9728  16.134  17.463   5.857  0.0759  0.1101  0.0150
  714loPI   C1A 9729  16.238  17.089   6.223  0.0693 -0.0256 -0.1511
  714loPI   C2A 9730  16.050  16.965   6.576  0.1596  0.4019 -0.1979
  714loPI   C3A 9731  16.247  17.157   6.953 -0.0396 -0.1211 -0.1095
  714loPI   C4A 9732  16.387  16.967   7.264  0.2998 -0.0649 -0.3680
  714loPI   C5A 9733  16.271  16.957   7.704  0.5318  0.0216 -0.1762
  714loPI   C6A 9734  16.121  17.193   8.006 -0.0508  0.2149 -0.1528
  714loPI   C1B 9735  16.260  17.586   6.189  0.1458  0.1518  0.0606
  714loPI   C2B 9736  16.370  17.584   6.623 -0.0110 -0.1204  0.3305
  714loPI   C3B 9737  16.371  17.616   7.095 -0.2219 -0.2714  0.0906
  714loPI   C4B 9738  16.322  17.411   7.540 -0.1378 -0.0339 -0.1069
  715loPI    C1 9739   7.259   0.212   5.530  0.1566  0.0627  0.0803
  715loPI    C2 9740   7.568   0.070   5.320  0.1782  0.0211  0.1398
  715loPI    C3 9741   7.277   0.274   5.135  0.0873 -0.2009  0.0334
  715loPI   PO4 9742   7.312   0.284   5.671  0.2140  0.1119 -0.0951
  715loPI   GL1 9743   7.204   0.173   6.047  0.0468 -0.1202 -0.3707
  715loPI   GL2 9744   7.270   0.433   6.245  0.0022 -0.0455 -0.4317
  715loPI   C1A 9745   7.055  -0.051   6.384 -0.4589 -0.0750 -0.3719
  715loPI   C2A 9746   6.970   0.033   6.836 -0.0865 -0.1342 -0.0415
  715loPI   C3A 9747   7.006   0.093   7.279  0.2660  0.4349 -0.1143
  715loPI   C4A 9748   7.023   0.238   7.771 -0.1387  0.2444 -0.1110
  715loPI   C5A 9749   7.201   0.443   8.096  0.0531  0.2269  0.2717
  715loPI   C6A 9750   7.516   0.620   8.192 -0.2411  0.0985 -0.2604
  715loPI   C1B 9751   7.239   0.442   6.636  0.2606  0.1429 -0.0717
  715loPI   C2B 9752   7.188   0.509   7.031  0.0625  0.0906  0.0432
  715loPI   C3B 9753   7.357   0.488   7.320  0.0882 -0.3019  0.1327
  715loPI   C4B 9754   7.524   0.385   7.675  0.1317  0.1571 -0.1731
  716loPI    C1 9755   5.063   7.158   6.006 -0.0071 -0.1094  0.0351
  716loPI    C2 9756   4.668   7.105   5.968 -0.0353  0.0126  0.1480
  716loPI    C3 9757   4.916   6.793   5.937 -0.1348 -0.0538  0.0086
  716loPI   PO4 9758   5.046   7.245   6.294  0.1884  0.0038  0.0625
  716loPI   GL1 9759   5.084   7.297   6.704 -0.1512  0.3193  0.2432
  716loPI   GL2 9760   5.423   7.297   6.668 -0.1463  0.2090 -0.0351
  716loPI   C1A 9761   5.046   7.225   7.219 -0.3165  0.3804 -0.0654
  716loPI   C2A 9762   4.952   7.289   7.701 -0.0643  0.2309 -0.0300
  716loPI   C3A 9763   4.618   7.609   7.878  0.2527  0.1417  0.2162
  716loPI   C4A 9764   4.148   7.651   7.821  0.2768  0.1022 -0.0280
  716loPI   C5A 9765   3.898   7.569   8.078 -0.2114 -0.2801  0.3633
  716loPI   C6A 9766   3.851   7.469   8.465  0.1758 -0.2933  0.4170
  716loPI   C1B 9767   5.530   7.296   7.016  0.1636  0.1594 -0.2861
  716loPI   C2B 9768   5.535   7.336   7.411  0.0072 -0.0406  0.0261
  716loPI   C3B 9769   5.409   7.414   7.822 -0.3562  0.3452  0.2246
  716loPI   C4B 9770   5.073   7.578   8.138  0.0588  0.2382 -0.0948
  717loPI    C1 9771   3.666  16.475   5.767  0.0969  0.0170 -0.3109
  717loPI    C2 9772   3.323  16.679   5.790  0.0046 -0.1446 -0.2409
  717loPI    C3 9773   3.667  16.874   5.729 -0.0913  0.0243 -0.2486
  717loPI   PO4 9774   3.592  16.247   5.878 -0.3912 -0.1579 -0.0652
  717loPI   GL1 9775   3.719  16.228   6.330 -0.0069  0.0529 -0.5323
  717loPI   GL2 9776   3.693  15.808   6.307  0.0311  0.0524  0.0186
  717loPI   C1A 9777   3.632  16.358   6.741  0.0066  0.3575 -0.2318
  717loPI   C2A 9778   3.738  16.434   7.236 -0.3245  0.0686 -0.1357
  717loPI   C3A 9779   4.089  16.499   7.520 -0.3254  0.0523  0.1572
  717loPI   C4A 9780   4.077  16.777   7.944 -0.2137 -0.2557 -0.0259
  717loPI   C5A 9781   4.118  16.469   8.316  0.1360  0.0894 -0.1223
  717loPI   C6A 9782   4.318  16.144   8.471 -0.1070  0.0494 -0.1204
  717loPI   C1B 9783   3.841  15.842   6.638  0.0522 -0.3485  0.1659
  717loPI   C2B 9784   3.893  15.932   7.030  0.1315  0.1410  0.0292
  717loPI   C3B 9785   3.846  16.047   7.503 -0.3087  0.1041  0.2743
  717loPI   C4B 9786   3.903  16.166   7.921 -0.0523 -0.1811  0.2002
  718loPI    C1 9787  14.478   0.404   5.385 -0.0815 -0.0651 -0.2221
  718loPI    C2 9788  14.302   0.757   5.317  0.2825  0.1235 -0.2052
  718loPI    C3 9789  14.155   0.425   5.149 -0.1606  0.2553 -0.0906
  718loPI   PO4 9790  14.502   0.418   5.690 -0.2355 -0.1085  0.2475
  718loPI   GL1 9791  14.382   0.301   6.062 -0.0029  0.0180 -0.3133
  718loPI   GL2 9792  14.385   0.052   6.168 -0.2710 -0.2801 -0.0930
  718loPI   C1A 9793  14.102   0.550   6.319  0.0288 -0.1275  0.0364
  718loPI   C2A 9794  14.056   0.627   6.807  0.0572  0.0704  0.0736
  718loPI   C3A 9795  14.257   0.505   7.237  0.2225  0.2819 -0.1613
  718loPI   C4A 9796  14.053   0.593   7.654 -0.0566 -0.1745  0.1409
  718loPI   C5A 9797  13.918   0.475   8.021 -0.1127  0.2607  0.0282
  718loPI   C6A 9798  13.996   0.216   8.361  0.0812  0.0101 -0.2934
  718loPI   C1B 9799  14.356   0.160   6.619  0.2102 -0.0338  0.3540
  718loPI   C2B 9800  14.489   0.113   7.062  0.0883  0.2924 -0.1256
  718loPI   C3B 9801  14.465   0.103   7.462 -0.2182 -0.1922 -0.2337
  718loPI   C4B 9802  14.408   0.328   7.849  0.1592 -0.2285  0.0867
  719loPI    C1 9803  16.336   4.985   5.783 -0.0724  0.0474 -0.0138
  719loPI    C2 9804  16.211   5.040   5.407 -0.2567  0.0003  0.0396
  719loPI    C3 9805  16.229   5.350   5.659  0.0765  0.0728 -0.0691
  719loPI   PO4 9806  16.188   4.815   5.851  0.4259 -0.1835 -0.5229
  719loPI   GL1 9807  16.115   4.643   6.285 -0.2228  0.0204  0.0618
  719loPI   GL2 9808  16.142   4.396   6.531  0.2678  0.2136 -0.3676
  719loPI   C1A 9809  16.026   4.944   6.649 -0.2447 -0.1731 -0.3777
  719loPI   C2A 9810  16.053   4.989   7.008 -0.4027 -0.1027  0.3606
  719loPI   C3A 9811  16.243   5.001   7.477 -0.0796 -0.1680 -0.1253
  719loPI   C4A 9812  16.490   4.848   7.778 -0.1061  0.3368 -0.0220
  719loPI   C5A 9813  16.671   4.636   8.240  0.1571 -0.1194  0.1487
  719loPI   C6A 9814  16.950   4.900   8.623  0.3461  0.1748 -0.0734
  719loPI   C1B 9815  16.156   4.506   6.908 -0.0095  0.3111 -0.2343
  719loPI   C2B 9816  16.194   4.487   7.391  0.0916 -0.0413 -0.1707
  719loPI   C3B 9817  16.318   4.361   7.919  0.0601  0.1557  0.1938
  719loPI   C4B 9818  16.541   4.101   8.167  0.2239 -0.0508  0.0291
  720loPI    C1 9819  15.212   4.520   5.839 -0.0253  0.1385 -0.1103
  720loPI    C2 9820  15.362   4.734   5.536  0.2328 -0.1300 -0.1760
  720loPI    C3 9821  15.424   4.339   5.552  0.0648 -0.1465  0.1317
  720loPI   PO4 9822  15.288   4.689   6.073  0.2056  0.1877 -0.3026
  720loPI   GL1 9823  15.317   4.919   6.405 -0.0318 -0.0770 -0.0596
  720loPI   GL2 9824  15.560   5.084   6.446  0.1511 -0.0735  0.4501
  720loPI   C1A 9825  15.241   4.897   6.778 -0.0993  0.2130 -0.0526
  720loPI   C2A 9826  15.247   4.897   7.212 -0.4548  0.0034 -0.2033
  720loPI   C3A 9827  15.260   4.979   7.596  0.2338 -0.2249 -0.2691
  720loPI   C4A 9828  15.366   5.039   8.024 -0.0276  0.1962 -0.0457
  720loPI   C5A 9829  15.474   5.473   8.237  0.0628 -0.1524  0.0888
  720loPI   C6A 9830  15.694   5.931   8.024 -0.2052  0.0289 -0.3145
  720loPI   C1B 9831  15.565   5.232   6.818 -0.1850 -0.2052  0.0621
  720loPI   C2B 9832  15.658   5.204   7.258 -0.4763  0.1947  0.2634
  720loPI   C3B 9833  15.729   5.175   7.665 -0.1261 -0.1816 -0.0635
  720loPI   C4B 9834  15.881   5.145   8.088  0.1883 -0.0489 -0.2188
  721loPI    C1 9835  11.395   9.704   5.902 -0.0622  0.2003 -0.0141
  721loPI    C2 9836  11.019   9.766   5.779 -0.1351 -0.0324  0.0869
  721loPI    C3 9837  11.284   9.596   5.533 -0.0140  0.3979 -0.0873
  721loPI   PO4 9838  11.488   9.887   6.162 -0.1710  0.2064 -0.4667
  721loPI   GL1 9839  11.732   9.957   6.418 -0.3989  0.2505  0.2636
  721loPI   GL2 9840  12.135   9.912   6.324  0.1412 -0.0887  0.0073
  721loPI   C1A 9841  11.868  10.013   6.778  0.1438  0.3966 -0.1568
  721loPI   C2A 9842  11.892  10.089   7.222  0.0704  0.0053  0.0140
  721loPI   C3A 9843  12.075   9.904   7.532 -0.1712 -0.3481  0.1502
  721loPI   C4A 9844  12.162  10.115   7.939  0.2352 -0.0460  0.0602
  721loPI   C5A 9845  12.483  10.433   8.092 -0.2191  0.2933  0.2034
  721loPI   C6A 9846  12.836  10.382   8.335 -0.1256 -0.3478 -0.2051
  721loPI   C1B 9847  12.362   9.886   6.616 -0.3113  0.2448  0.0639
  721loPI   C2B 9848  12.434   9.880   7.089  0.1481 -0.0189  0.1966
  721loPI   C3B 9849  12.731   9.526   7.201  0.1903  0.1457  0.0961
  721loPI   C4B 9850  12.897   9.307   6.905  0.1006 -0.1142 -0.0494
  722loPI    C1 9851  14.420  10.225   5.780  0.1919  0.0728  0.0765
  722loPI    C2 9852  14.584  10.095   5.439  0.1706  0.0868  0.0610
  722loPI    C3 9853  14.500  10.484   5.486  0.0388  0.0632  0.0257
  722loPI   PO4 9854  14.508  10.179   6.043  0.0228  0.1032 -0.0693
  722loPI   GL1 9855  14.677   9.971   6.424  0.0388  0.3927 -0.0273
  722loPI   GL2 9856  14.343   9.798   6.533  0.1712  0.1516  0.1832
  722loPI   C1A 9857  14.618  10.144   6.827  0.0554  0.0777 -0.1662
  722loPI   C2A 9858  14.664  10.204   7.231  0.2919 -0.3165 -0.1998
  722loPI   C3A 9859  14.634  10.279   7.710  0.1047 -0.1625 -0.1128
  722loPI   C4A 9860  14.443  10.602   7.962  0.1482  0.0934 -0.0291
  722loPI   C5A 9861  13.972  10.542   8.133  0.0592  0.2600  0.2750
  722loPI   C6A 9862  13.613  10.749   8.278  0.3720  0.3800 -0.0796
  722loPI   C1B 9863  14.256   9.829   7.089 -0.0349  0.0944  0.3667
  722loPI   C2B 9864  14.410   9.887   7.547  0.1833 -0.2017  0.3479
  722loPI   C3B 9865  14.515   9.767   7.942  0.2319 -0.0396 -0.3331
  722loPI   C4B 9866  14.857   9.598   8.381  0.0327 -0.1531  0.0184
  723loPI    C1 9867   8.265   4.783   5.670 -0.0920  0.0745 -0.0610
  723loPI    C2 9868   7.963   4.541   5.774 -0.0639  0.1217  0.1344
  723loPI    C3 9869   7.969   4.710   5.412 -0.1144 -0.1223  0.0181
  723loPI   PO4 9870   8.543   4.810   5.855 -0.1722  0.0792  0.1067
  723loPI   GL1 9871   8.576   5.121   6.070  0.0728 -0.2474 -0.0408
  723loPI   GL2 9872   8.387   5.270   6.321  0.3443 -0.0748  0.0595
  723loPI   C1A 9873   8.843   5.070   6.370 -0.2486 -0.1671  0.0101
  723loPI   C2A 9874   8.947   5.054   6.783 -0.2919 -0.0804  0.1018
  723loPI   C3A 9875   8.982   5.019   7.247 -0.0001 -0.0663  0.0349
  723loPI   C4A 9876   9.078   5.015   7.697  0.0904 -0.2023 -0.0911
  723loPI   C5A 9877   8.806   5.143   7.997 -0.1257 -0.0215 -0.1234
  723loPI   C6A 9878   8.688   5.294   8.313 -0.3257  0.0699 -0.1963
  723loPI   C1B 9879   8.551   5.326   6.679 -0.1261 -0.1742 -0.2775
  723loPI   C2B 9880   8.496   5.256   7.088 -0.1311 -0.1022  0.0869
  723loPI   C3B 9881   8.466   5.368   7.575  0.1241  0.1541  0.1571
  723loPI   C4B 9882   8.422   5.440   7.947  0.4933 -0.1353 -0.0329
  724loPI    C1 9883  10.726  11.270   6.063  0.1001 -0.0499 -0.0031
  724loPI    C2 9884  11.103  11.352   5.958  0.1059 -0.2223 -0.1216
  724loPI    C3 9885  10.853  11.184   5.694 -0.0097 -0.2494  0.0039
  724loPI   PO4 9886  10.551  11.486   6.168  0.0191 -0.1520 -0.1806
  724loPI   GL1 9887  10.418  11.559   6.496 -0.1787  0.0674  0.0585
  724loPI   GL2 9888  10.193  11.697   6.690  0.0182  0.1858 -0.0446
  724loPI   C1A 9889  10.727  11.597   6.835 -0.0369  0.0809  0.4486
  724loPI   C2A 9890  10.721  11.533   7.282  0.1106  0.3723 -0.0240
  724loPI   C3A 9891  10.731  11.417   7.610  0.0276 -0.2108 -0.2776
  724loPI   C4A 9892  10.818  11.443   8.043  0.0090 -0.1202 -0.2064
  724loPI   C5A 9893  11.061  11.441   8.453  0.2111  0.1717 -0.0450
  724loPI   C6A 9894  11.020  11.765   8.688  0.0956 -0.0177  0.2538
  724loPI   C1B 9895  10.138  11.791   7.137 -0.0440  0.2922  0.0645
  724loPI   C2B 9896  10.404  11.778   7.580  0.1910 -0.0743  0.0174
  724loPI   C3B 9897  10.253  11.718   8.046  0.2148  0.0694  0.1384
  724loPI   C4B 9898  10.094  11.933   8.369 -0.2700 -0.2177  0.0193
  725loPI    C1 9899  12.671   7.392   5.479  0.1543  0.1816 -0.1028
  725loPI    C2 9900  12.934   7.342   5.776  0.1534  0.0418 -0.1250
  725loPI    C3 9901  13.035   7.247   5.401 -0.0782 -0.4496 -0.0706
  725loPI   PO4 9902  12.468   7.190   5.642 -0.1749 -0.3669 -0.3850
  725loPI   GL1 9903  12.498   7.057   5.986 -0.0370 -0.0298 -0.1015
  725loPI   GL2 9904  12.307   6.940   6.211 -0.1000 -0.0291  0.2794
  725loPI   C1A 9905  12.712   7.264   6.306 -0.0868 -0.0293 -0.3444
  725loPI   C2A 9906  12.919   7.345   6.586  0.0595  0.1128  0.1408
  725loPI   C3A 9907  12.841   7.296   6.938 -0.2998  0.2182  0.0392
  725loPI   C4A 9908  12.561   7.187   7.354 -0.2956  0.0489  0.1769
  725loPI   C5A 9909  12.434   7.165   7.784 -0.0179  0.0863  0.3003
  725loPI   C6A 9910  12.479   7.136   8.174 -0.2574 -0.1035 -0.0474
  725loPI   C1B 9911  12.256   6.909   6.568  0.0844 -0.0886 -0.0821
  725loPI   C2B 9912  12.542   6.925   6.938 -0.1173  0.1773  0.0284
  725loPI   C3B 9913  12.797   6.706   7.248  0.1200 -0.0517 -0.2112
  725loPI   C4B 9914  12.662   6.253   7.292 -0.0091  0.1255 -0.2061
  726loPI    C1 9915  11.231  12.358   6.135 -0.2788 -0.1923  0.1243
  726loPI    C2 9916  11.122  12.523   5.788 -0.1232 -0.1751  0.0828
  726loPI    C3 9917  11.035  12.140   5.863 -0.2946 -0.1356  0.0900
  726loPI   PO4 9918  11.383  12.539   6.211  0.0928 -0.0994 -0.0923
  726loPI   GL1 9919  11.638  12.707   6.495  0.2197 -0.0776 -0.3411
  726loPI   GL2 9920  11.799  12.554   6.600  0.0739  0.0786  0.0549
  726loPI   C1A 9921  11.658  13.012   6.864  0.1040 -0.2151 -0.2108
  726loPI   C2A 9922  11.698  13.146   7.232 -0.0648  0.2061 -0.2533
  726loPI   C3A 9923  11.898  13.241   7.592  0.0250  0.0648  0.3124
  726loPI   C4A 9924  11.950  13.321   8.056  0.1857  0.0608 -0.2450
  726loPI   C5A 9925  11.970  13.563   8.547  0.2608  0.0426  0.0807
  726loPI   C6A 9926  11.643  13.704   8.762 -0.3006 -0.0106 -0.1632
  726loPI   C1B 9927  12.089  12.348   6.774  0.3001 -0.0201 -0.0489
  726loPI   C2B 9928  12.236  12.401   7.210 -0.0030  0.0782 -0.1796
  726loPI   C3B 9929  12.138  12.209   7.654  0.2555  0.2230  0.1693
  726loPI   C4B 9930  12.245  12.323   8.069  0.1548  0.1772  0.0865
  727loPI    C1 9931   2.017   7.137   5.832  0.1879 -0.3344  0.1565
  727loPI    C2 9932   2.144   6.996   5.480 -0.2044 -0.2179 -0.0384
  727loPI    C3 9933   1.810   6.850   5.645 -0.2363  0.0020  0.0947
  727loPI   PO4 9934   2.215   7.151   5.997 -0.0374 -0.1044 -0.2131
  727loPI   GL1 9935   2.362   7.255   6.374  0.0121 -0.0658  0.2781
  727loPI   GL2 9936   1.936   7.265   6.383 -0.0369 -0.0609  0.0358
  727loPI   C1A 9937   2.445   7.350   6.759 -0.0132  0.0339 -0.2692
  727loPI   C2A 9938   2.378   7.548   7.175  0.0439  0.1022 -0.1741
  727loPI   C3A 9939   2.166   7.415   7.546 -0.0116 -0.0726 -0.1451
  727loPI   C4A 9940   2.310   7.516   7.936 -0.0901 -0.2351  0.1062
  727loPI   C5A 9941   2.526   7.755   8.232 -0.1040 -0.1394  0.1607
  727loPI   C6A 9942   2.550   8.213   8.464 -0.1196  0.0497 -0.3418
  727loPI   C1B 9943   1.977   7.354   6.786  0.0836 -0.0078 -0.1059
  727loPI   C2B 9944   1.864   7.128   7.091  0.0914 -0.1857  0.1690
  727loPI   C3B 9945   1.720   6.923   7.536 -0.1483  0.2871  0.1903
  727loPI   C4B 9946   1.699   6.549   7.849 -0.4612 -0.1443  0.2789
  728loPI    C1 9947   0.929   0.576   5.748  0.0919 -0.1327  0.1217
  728loPI    C2 9948   0.797   0.440   5.396  0.1213  0.0031  0.0578
  728loPI    C3 9949   1.124   0.670   5.412  0.2406 -0.1733  0.1956
  728loPI   PO4 9950   0.668   0.678   5.893  0.1146 -0.4723 -0.0387
  728loPI   GL1 9951   0.628   0.702   6.350 -0.0757  0.1332 -0.0784
  728loPI   GL2 9952   0.373   0.673   6.538 -0.3031 -0.1927  0.0536
  728loPI   C1A 9953   0.984   0.551   6.639 -0.1385 -0.2385 -0.1470
  728loPI   C2A 9954   0.991   0.454   7.086  0.1017  0.2232  0.0253
  728loPI   C3A 9955   1.002   0.587   7.480 -0.0400  0.1393 -0.2584
  728loPI   C4A 9956   1.003   0.294   7.780  0.1485  0.2440 -0.2702
  728loPI   C5A 9957   0.963   0.481   8.200 -0.1596 -0.0381 -0.0396
  728loPI   C6A 9958   0.615   0.329   8.511 -0.0513 -0.2377 -0.1896
  728loPI   C1B 9959   0.486   0.464   6.863 -0.1570 -0.2687  0.2135
  728loPI   C2B 9960   0.388   0.526   7.221 -0.0533 -0.2605  0.0897
  728loPI   C3B 9961   0.488   0.626   7.589 -0.1804  0.2519 -0.0698
  728loPI   C4B 9962   0.475   0.604   8.135  0.3108  0.1345 -0.0559
  729loPI    C1 9963  15.871   4.312   5.751  0.0895 -0.3175 -0.1192
  729loPI    C2 9964  15.870   4.652   5.540  0.1018 -0.2583 -0.0244
  729loPI    C3 9965  15.919   4.302   5.354 -0.0264 -0.2175 -0.1364
  729loPI   PO4 9966  15.759   4.388   5.963 -0.0795  0.1706 -0.0276
  729loPI   GL1 9967  15.699   4.322   6.365  0.1072  0.2657  0.0473
  729loPI   GL2 9968  15.677   4.580   6.477 -0.0738  0.0215 -0.0508
  729loPI   C1A 9969  15.693   4.247   6.789  0.3326  0.2390 -0.0769
  729loPI   C2A 9970  15.563   4.200   7.270  0.0158  0.1330 -0.1327
  729loPI   C3A 9971  15.308   4.265   7.565 -0.2562 -0.1719 -0.0637
  729loPI   C4A 9972  15.104   4.052   7.947 -0.1790  0.1825  0.1898
  729loPI   C5A 9973  14.977   3.956   8.392 -0.2820  0.0766 -0.1261
  729loPI   C6A 9974  14.702   3.748   8.545  0.1327  0.1770  0.0672
  729loPI   C1B 9975  15.622   4.684   6.978 -0.3585  0.0663  0.0274
  729loPI   C2B 9976  15.725   4.676   7.357  0.0793  0.0379  0.1054
  729loPI   C3B 9977  15.831   4.684   7.812 -0.0030  0.2681  0.1221
  729loPI   C4B 9978  15.632   4.691   8.237 -0.3362 -0.3482  0.3135
  730loPI    C1 9979   2.775   2.863   5.690  0.0741  0.3134 -0.0643
  730loPI    C2 9980   2.750   3.152   5.415  0.0207  0.2330 -0.1447
  730loPI    C3 9981   2.418   3.015   5.591  0.0183  0.0401 -0.2963
  730loPI   PO4 9982   2.916   2.914   5.952  0.0254  0.1333 -0.0814
  730loPI   GL1 9983   2.964   3.090   6.377 -0.1144  0.3036 -0.0632
  730loPI   GL2 9984   2.630   3.028   6.420  0.0990  0.1877  0.1136
  730loPI   C1A 9985   3.022   3.112   6.830  0.0870  0.3111  0.0862
  730loPI   C2A 9986   2.910   3.026   7.265  0.0581  0.0831 -0.1442
  730loPI   C3A 9987   2.788   2.979   7.746  0.4065 -0.1265 -0.1751
  730loPI   C4A 9988   2.515   2.776   8.118  0.2165 -0.0117  0.0143
  730loPI   C5A 9989   2.310   2.331   8.208  0.2104 -0.2136 -0.2920
  730loPI   C6A 9990   1.936   2.014   8.258  0.2728 -0.2046  0.2045
  730loPI   C1B 9991   2.539   3.071   6.751 -0.1761  0.0714 -0.3407
  730loPI   C2B 9992   2.413   3.155   7.186  0.1247  0.1257  0.0008
  730loPI   C3B 9993   2.319   3.181   7.612  0.2648  0.0717  0.2348
  730loPI   C4B 9994   2.484   3.441   7.921 -0.3016  0.0514 -0.1085
  731loPI    C1 9995   6.152   4.035   5.935  0.3121  0.1564 -0.2622
  731loPI    C2 9996   6.232   3.644   5.963  0.3095  0.1754  0.0336
  731loPI    C3 9997   6.284   3.833   5.615  0.1785 -0.1164 -0.1485
  731loPI   PO4 9998   6.264   4.119   6.149 -0.0361  0.0760 -0.0033
  731loPI   GL1 9999   6.264   4.367   6.478 -0.1079 -0.0007  0.2183
  731loPI   GL210000   5.894   4.408   6.385  0.0186  0.0752  0.2823
  731loPI   C1A10001   6.307   4.312   6.907 -0.1236  0.0306 -0.2526
  731loPI   C2A10002   6.360   4.356   7.354  0.0120 -0.3067 -0.0597
  731loPI   C3A10003   6.264   4.287   7.828  0.3400 -0.2406 -0.0187
  731loPI   C4A10004   6.258   4.294   8.260  0.1484  0.0237 -0.2773
  731loPI   C5A10005   6.141   4.257   8.667 -0.0532 -0.0096  0.1184
  731loPI   C6A10006   6.028   3.835   8.736 -0.0146  0.0281 -0.0668
  731loPI   C1B10007   5.741   4.534   6.832 -0.1518 -0.1830  0.2890
  731loPI   C2B10008   5.826   4.343   7.150  0.1185 -0.1101 -0.1845
  731loPI   C3B10009   5.902   4.484   7.496 -0.0243 -0.2455  0.2823
  731loPI   C4B10010   5.728   4.570   7.883  0.1325  0.1816 -0.1086
  732loPI    C110011   5.555   7.042   6.211 -0.0681 -0.2578 -0.0746
  732loPI    C210012   5.620   7.217   5.858 -0.1005 -0.3527 -0.1279
  732loPI    C310013   5.904   7.224   6.140 -0.1961  0.0086 -0.0352
  732loPI   PO410014   5.403   6.790   6.050 -0.0038 -0.0929 -0.0327
  732loPI   GL110015   5.183   6.514   6.260 -0.1100 -0.0414 -0.0319
  732loPI   GL210016   5.131   6.789   6.443  0.0559  0.0532  0.0132
  732loPI   C1A10017   4.929   6.448   6.741 -0.0054  0.0155 -0.0791
  732loPI   C2A10018   4.783   6.605   7.093 -0.0810  0.1818  0.1466
  732loPI   C3A10019   4.876   6.854   7.459  0.2526  0.4739  0.1448
  732loPI   C4A10020   4.675   6.913   7.885 -0.2534  0.4723 -0.0373
  732loPI   C5A10021   4.473   6.809   8.341 -0.1337  0.0739  0.1298
  732loPI   C6A10022   4.622   6.581   8.675 -0.1140  0.0817  0.0463
  732loPI   C1B10023   5.232   6.805   6.887  0.2887 -0.1670  0.4014
  732loPI   C2B10024   5.362   6.875   7.316 -0.1446  0.1351  0.1024
  732loPI   C3B10025   5.256   6.866   7.764 -0.1999 -0.0802 -0.1738
  732loPI   C4B10026   5.299   6.602   8.230  0.1805 -0.0664  0.1069
  733loPI    C110027   4.979   2.021   5.945  0.0374  0.0980  0.2116
  733loPI    C210028   5.219   2.080   5.631  0.1072 -0.0318  0.2395
  733loPI    C310029   4.918   1.817   5.606  0.0336  0.0517  0.2399
  733loPI   PO410030   4.987   2.299   5.998  0.0738  0.1004  0.0086
  733loPI   GL110031   4.924   2.293   6.438  0.3366  0.0853 -0.1353
  733loPI   GL210032   4.703   2.356   6.638  0.2785 -0.1070  0.2185
  733loPI   C1A10033   5.232   2.047   6.686  0.1077  0.0221 -0.0732
  733loPI   C2A10034   5.338   1.960   7.038 -0.0832  0.1652  0.1194
  733loPI   C3A10035   5.434   1.953   7.435 -0.0054 -0.0161  0.0319
  733loPI   C4A10036   5.215   1.890   7.818 -0.1986 -0.1811 -0.2254
  733loPI   C5A10037   5.179   1.940   8.228 -0.4608 -0.0473 -0.0266
  733loPI   C6A10038   5.444   2.039   8.545  0.2423 -0.1120  0.0399
  733loPI   C1B10039   4.859   2.216   7.012  0.0230 -0.0180 -0.0850
  733loPI   C2B10040   4.935   2.140   7.413  0.1341  0.2388 -0.0559
  733loPI   C3B10041   4.804   2.156   7.754 -0.0169  0.0841  0.1207
  733loPI   C4B10042   4.935   2.501   7.967  0.0599  0.0333 -0.5627
  734loPI    C110043   9.567   8.654   6.160 -0.1852 -0.0217  0.1325
  734loPI    C210044   9.286   8.495   5.924  0.0691 -0.1558 -0.0858
  734loPI    C310045   9.673   8.446   5.836  0.1664 -0.0762  0.2776
  734loPI   PO410046   9.541   8.574   6.335  0.1554  0.2412  0.0333
  734loPI   GL110047   9.736   8.188   6.682  0.1669  0.0266 -0.1572
  734loPI   GL210048   9.721   7.839   6.548  0.0877 -0.1271  0.0769
  734loPI   C1A10049  10.006   8.332   7.020 -0.0072 -0.0607  0.0024
  734loPI   C2A10050   9.945   8.348   7.450  0.3113 -0.0491  0.0414
  734loPI   C3A10051  10.005   8.230   7.856 -0.2371 -0.0871 -0.2137
  734loPI   C4A10052  10.126   8.049   8.236 -0.0793  0.2460 -0.0831
  734loPI   C5A10053  10.610   7.984   8.423 -0.1512 -0.1173 -0.0678
  734loPI   C6A10054  10.921   7.653   8.379 -0.2147  0.1782  0.0950
  734loPI   C1B10055   9.789   7.853   7.062  0.1501 -0.0806  0.1729
  734loPI   C2B10056   9.892   7.828   7.476  0.0092  0.1856  0.0149
  734loPI   C3B10057   9.825   7.742   7.930 -0.1506 -0.3041 -0.0983
  734loPI   C4B10058   9.924   7.641   8.347 -0.1583  0.2742 -0.0258
  735loPI    C110059   9.235  14.990   5.871 -0.0474  0.1041  0.2928
  735loPI    C210060   9.245  14.591   5.894  0.0290  0.0773 -0.1303
  735loPI    C310061   8.909  14.776   5.782  0.0272  0.1252 -0.0460
  735loPI   PO410062   9.415  15.040   6.034 -0.0818  0.1405 -0.0357
  735loPI   GL110063   9.330  15.123   6.426 -0.1581 -0.0662 -0.1235
  735loPI   GL210064   9.214  15.306   6.563 -0.1813  0.0011  0.1128
  735loPI   C1A10065   9.636  15.001   6.698  0.3556 -0.0610 -0.0614
  735loPI   C2A10066   9.723  15.081   7.175 -0.2182  0.1243 -0.0090
  735loPI   C3A10067   9.691  15.019   7.664 -0.0855  0.0059 -0.0517
  735loPI   C4A10068   9.891  14.934   8.067 -0.0552  0.2702  0.2575
  735loPI   C5A10069   9.701  15.025   8.495 -0.0035 -0.1041  0.2204
  735loPI   C6A10070   9.532  15.108   8.908  0.4145 -0.2438  0.1347
  735loPI   C1B10071   9.421  15.466   6.869 -0.3624  0.2460  0.0077
  735loPI   C2B10072   9.518  15.605   7.234 -0.1565  0.1787 -0.3907
  735loPI   C3B10073   9.644  15.728   7.725  0.0791 -0.0925 -0.0509
  735loPI   C4B10074   9.235  15.669   7.806 -0.0133 -0.2022  0.3494
  736loPI    C110075   2.638  11.421   5.667  0.2140 -0.0087 -0.2139
  736loPI    C210076   2.473  11.508   5.313  0.1453  0.0145 -0.1763
  736loPI    C310077   2.553  11.801   5.574  0.0453 -0.0193 -0.1070
  736loPI   PO410078   2.529  11.317   5.783  0.2358 -0.0862  0.0228
  736loPI   GL110079   2.399  11.286   6.121  0.1928 -0.0074  0.1257
  736loPI   GL210080   2.470  10.966   6.277  0.0744 -0.1250 -0.0906
  736loPI   C1A10081   2.285  11.535   6.455  0.1704  0.3225  0.0232
  736loPI   C2A10082   2.177  11.480   6.825 -0.2733  0.0328 -0.0269
  736loPI   C3A10083   2.116  11.467   7.287 -0.0694 -0.4824  0.0641
  736loPI   C4A10084   2.265  11.409   7.704  0.1950  0.0010 -0.0023
  736loPI   C5A10085   2.003  11.363   7.993 -0.3647  0.1976 -0.2155
  736loPI   C6A10086   2.223  11.080   8.334 -0.2875 -0.2091 -0.0827
  736loPI   C1B10087   2.346  10.978   6.639 -0.2160 -0.0874 -0.3643
  736loPI   C2B10088   2.367  11.123   7.112 -0.0633 -0.2531  0.2163
  736loPI   C3B10089   2.417  10.992   7.521 -0.1474  0.0452 -0.1238
  736loPI   C4B10090   2.427  10.997   7.899  0.0863 -0.1140 -0.0106
  737loPI    C110091  12.298  16.956   5.148 -0.0654 -0.3053 -0.0538
  737loPI    C210092  12.583  16.882   4.878 -0.0300 -0.2514 -0.0314
  737loPI    C310093  12.242  17.057   4.766  0.1383  0.1219  0.0226
  737loPI   PO410094  12.371  17.157   5.329 -0.1494  0.1064  0.0915
  737loPI   GL110095  12.290  17.237   5.699  0.1321 -0.2808 -0.1223
  737loPI   GL210096  12.582  17.300   5.854  0.0694 -0.3897 -0.1196
  737loPI   C1A10097  12.301  16.969   6.041  0.0960  0.0032 -0.1379
  737loPI   C2A10098  12.255  16.830   6.407 -0.1500  0.2983  0.1473
  737loPI   C3A10099  12.431  16.824   6.850  0.0634  0.2824  0.1981
  737loPI   C4A10100  12.490  16.772   7.302 -0.1696 -0.1176 -0.0950
  737loPI   C5A10101  12.334  17.033   7.524 -0.0286 -0.1934  0.0484
  737loPI   C6A10102  12.529  17.399   7.794  0.0202  0.1036  0.0115
  737loPI   C1B10103  12.432  17.409   6.255 -0.2204 -0.1329 -0.1471
  737loPI   C2B10104  12.503  17.283   6.640  0.2570 -0.1115  0.0919
  737loPI   C3B10105  12.579  17.243   7.060  0.0698 -0.0903 -0.3074
  737loPI   C4B10106  12.819  17.190   7.469  0.1210  0.2670  0.1448
  738loPI    C110107  10.364  17.846   5.921 -0.1504  0.1836  0.0077
  738loPI    C210108  10.340  18.104   5.616 -0.1567 -0.0567 -0.1975
  738loPI    C310109  10.494  17.739   5.559  0.2537  0.0476  0.1871
  738loPI   PO410110  10.080  17.822   6.038  0.0730 -0.1104  0.2252
  738loPI   GL110111   9.917  17.927   6.535  0.1338  0.0688  0.1406
  738loPI   GL210112   9.572  17.868   6.532  0.1543 -0.0574  0.1556
  738loPI   C1A10113   9.944  17.969   6.912 -0.2245  0.1982 -0.1724
  738loPI   C2A10114   9.842  18.130   7.280  0.2949  0.1411  0.2314
  738loPI   C3A10115  10.042  18.080   7.771  0.2279  0.0616 -0.1303
  738loPI   C4A10116  10.223  18.080   8.179  0.2323 -0.1481  0.3310
  738loPI   C5A10117  10.320  18.262   8.527 -0.0435 -0.2102 -0.0293
  738loPI   C6A10118  10.418  18.415   8.876  0.1574  0.2406 -0.1523
  738loPI   C1B10119   9.507  18.173   6.770 -0.0551  0.1693 -0.1495
  738loPI   C2B10120   9.311  18.282   7.141  0.0977  0.2185 -0.0106
  738loPI   C3B10121   9.371  18.323   7.613  0.1036 -0.0080  0.0582
  738loPI   C4B10122   9.497  18.118   7.911  0.1164  0.0594 -0.1732
  739loPI    C110123   6.005  14.155   6.192 -0.0091 -0.0052 -0.0419
  739loPI    C210124   5.729  14.149   5.903 -0.0248 -0.1030 -0.0252
  739loPI    C310125   6.102  14.026   5.827  0.0623  0.1958 -0.0952
  739loPI   PO410126   5.866  14.040   6.356 -0.2049  0.0835 -0.1744
  739loPI   GL110127   5.596  14.135   6.771  0.0258 -0.1524 -0.1593
  739loPI   GL210128   5.427  14.472   6.799  0.0669 -0.1320 -0.0364
  739loPI   C1A10129   5.520  14.209   7.213  0.3040  0.2273 -0.1150
  739loPI   C2A10130   5.334  14.399   7.570 -0.1916 -0.0801 -0.0095
  739loPI   C3A10131   5.470  14.785   7.742 -0.0613 -0.1608 -0.0322
  739loPI   C4A10132   5.396  15.018   8.146 -0.1358 -0.1050  0.1314
  739loPI   C5A10133   5.214  15.379   8.389  0.1305 -0.0836  0.2090
  739loPI   C6A10134   5.160  15.937   8.422  0.1883  0.0338  0.1337
  739loPI   C1B10135   5.149  14.560   7.116 -0.0202  0.0467  0.1723
  739loPI   C2B10136   4.948  14.726   7.483 -0.0795 -0.1508  0.1040
  739loPI   C3B10137   5.003  14.876   7.942 -0.2460 -0.0795 -0.2791
  739loPI   C4B10138   4.917  14.988   8.436 -0.1689 -0.0855 -0.3224
  740loPI    C110139   2.865   8.724   5.971  0.2465  0.0651  0.0373
  740loPI    C210140   2.844   8.600   5.591 -0.1444  0.0820  0.0495
  740loPI    C310141   2.895   8.988   5.672  0.0267  0.0674  0.0156
  740loPI   PO410142   2.721   8.596   6.107 -0.0976  0.0614  0.1209
  740loPI   GL110143   2.486   8.626   6.458 -0.2352 -0.0492  0.0117
  740loPI   GL210144   2.205   8.608   6.531  0.1098 -0.0811 -0.0544
  740loPI   C1A10145   2.630   8.385   6.850  0.0024 -0.0503 -0.2368
  740loPI   C2A10146   2.767   8.422   7.298  0.2891 -0.0980  0.2884
  740loPI   C3A10147   2.817   8.223   7.730  0.2084  0.0317  0.4110
  740loPI   C4A10148   2.879   8.288   8.015  0.0261 -0.0247 -0.0660
  740loPI   C5A10149   2.875   8.600   8.359 -0.1696  0.3147 -0.0710
  740loPI   C6A10150   2.613   8.838   8.543 -0.1218 -0.2438  0.0389
  740loPI   C1B10151   2.152   8.506   7.009  0.4154  0.0111 -0.0654
  740loPI   C2B10152   1.987   8.269   7.129  0.1001  0.1993 -0.0999
  740loPI   C3B10153   1.948   8.140   7.588  0.0751  0.1103  0.0715
  740loPI   C4B10154   1.485   8.236   7.841 -0.1449  0.0308  0.2427
  741loPI    C110155   2.547  17.325   6.140 -0.1836  0.0461 -0.0357
  741loPI    C210156   2.265  17.351   5.857 -0.0437 -0.1390 -0.1954
  741loPI    C310157   2.555  17.077   5.826 -0.0838 -0.2300  0.1812
  741loPI   PO410158   2.456  17.500   6.320  0.0048 -0.1389  0.1611
  741loPI   GL110159   2.454  17.613   6.740  0.1101  0.2994  0.0016
  741loPI   GL210160   2.113  17.644   6.773  0.1629 -0.2213  0.0127
  741loPI   C1A10161   2.550  17.895   7.236 -0.0940 -0.3673  0.0027
  741loPI   C2A10162   2.593  17.897   7.685  0.0536 -0.2891  0.3405
  741loPI   C3A10163   2.538  18.089   7.982 -0.0935 -0.1368  0.0259
  741loPI   C4A10164   2.538  18.419   8.168 -0.3299  0.0281 -0.0889
  741loPI   C5A10165   2.815  18.771   8.220  0.1055  0.2604  0.0327
  741loPI   C6A10166   3.018  19.107   8.158 -0.2607  0.2727 -0.1648
  741loPI   C1B10167   2.086  17.577   7.107 -0.1474  0.1880  0.0081
  741loPI   C2B10168   2.187  17.523   7.469  0.0323  0.3306 -0.0192
  741loPI   C3B10169   2.385  17.535   7.910 -0.0687  0.0265 -0.2162
  741loPI   C4B10170   2.421  17.685   8.319 -0.0507  0.1706  0.0858
  742loPI    C110171  15.242  15.434   5.220  0.2432 -0.2326  0.1226
  742loPI    C210172  15.568  15.349   5.004  0.1433 -0.1023 -0.0829
  742loPI    C310173  15.242  15.119   4.973  0.1213 -0.0705 -0.0878
  742loPI   PO410174  15.315  15.503   5.383 -0.0609 -0.0677  0.0571
  742loPI   GL110175  15.245  15.331   5.792  0.0696 -0.1365  0.2609
  742loPI   GL210176  15.128  15.676   5.829 -0.2062  0.2360  0.2956
  742loPI   C1A10177  15.415  15.298   6.242  0.0260 -0.0126  0.1835
  742loPI   C2A10178  15.642  15.560   6.488  0.0404 -0.2489 -0.0573
  742loPI   C3A10179  15.810  15.735   6.967 -0.1465  0.0220 -0.2695
  742loPI   C4A10180  16.095  15.847   7.304  0.0214  0.0048 -0.0058
  742loPI   C5A10181  16.554  15.985   7.557  0.0519 -0.0504  0.0222
  742loPI   C6A10182  16.728  16.170   7.537 -0.1235  0.1906 -0.1781
  742loPI   C1B10183  15.030  15.547   6.207  0.0054  0.2745  0.0932
  742loPI   C2B10184  15.156  15.529   6.649 -0.2908  0.1161 -0.0973
  742loPI   C3B10185  15.381  15.490   7.063 -0.0437 -0.2989 -0.1596
  742loPI   C4B10186  15.388  15.331   7.539 -0.1743 -0.0417  0.4981
  743loPI    C110187  17.038   7.741   5.604 -0.0472 -0.0217 -0.0915
  743loPI    C210188  17.037   8.115   5.462 -0.1642  0.0199  0.0169
  743loPI    C310189  16.897   7.815   5.237  0.1461  0.0044 -0.1622
  743loPI   PO410190  16.963   7.772   5.834 -0.2017 -0.2066  0.2654
  743loPI   GL110191  16.739   7.558   6.201 -0.0032 -0.2265  0.1465
  743loPI   GL210192  16.520   7.406   6.393  0.2086 -0.1995 -0.1535
  743loPI   C1A10193  16.677   7.904   6.527 -0.3085  0.0661  0.1286
  743loPI   C2A10194  16.720   8.269   6.849 -0.1417 -0.0429  0.1307
  743loPI   C3A10195  16.824   8.418   7.279  0.1302  0.1268  0.1911
  743loPI   C4A10196  16.834   8.165   7.631  0.3752 -0.1819 -0.1068
  743loPI   C5A10197  16.828   7.726   7.728  0.0751  0.0949 -0.2298
  743loPI   C6A10198  16.966   7.534   8.060 -0.0672 -0.2110 -0.0917
  743loPI   C1B10199  16.575   7.405   6.832 -0.1193  0.0739 -0.0127
  743loPI   C2B10200  16.711   7.285   7.266  0.0458 -0.0815  0.1668
  743loPI   C3B10201  17.041   7.175   7.656  0.0625  0.0041  0.0362
  743loPI   C4B10202  17.288   7.074   7.962  0.2565  0.0816  0.1148
  744loPI    C110203   5.854   0.460   5.919  0.0095  0.0808 -0.2894
  744loPI    C210204   6.091   0.142   5.975 -0.1455 -0.0327 -0.2715
  744loPI    C310205   5.742   0.101   5.782 -0.2513  0.0907 -0.1094
  744loPI   PO410206   5.813   0.564   6.209 -0.0166  0.2348  0.1057
  744loPI   GL110207   5.684   0.563   6.543  0.2764 -0.2185 -0.4307
  744loPI   GL210208   5.765   0.987   6.458  0.0377 -0.0444 -0.1225
  744loPI   C1A10209   5.527   0.447   6.953 -0.1733 -0.0081  0.0178
  744loPI   C2A10210   5.347   0.370   7.357 -0.0303  0.1660  0.0342
  744loPI   C3A10211   5.196   0.212   7.691  0.2770 -0.0168  0.1345
  744loPI   C4A10212   5.113   0.405   8.027  0.0710  0.1352  0.1791
  744loPI   C5A10213   4.922   0.624   8.365  0.0962 -0.1121 -0.1709
  744loPI   C6A10214   4.500   0.694   8.350  0.0257  0.0334 -0.1126
  744loPI   C1B10215   5.878   0.993   6.908  0.0594  0.0396  0.0874
  744loPI   C2B10216   5.930   0.937   7.304 -0.0510  0.2700  0.1683
  744loPI   C3B10217   6.037   0.810   7.773  0.0269 -0.0606  0.2723
  744loPI   C4B10218   5.862   0.827   8.153  0.0273 -0.1756 -0.0709
  745loPI    C110219  16.301   7.723   6.034  0.0830 -0.0566  0.2674
  745loPI    C210220  16.241   7.344   5.920  0.2759 -0.0328  0.0805
  745loPI    C310221  16.506   7.571   5.726  0.0165  0.2609  0.0623
  745loPI   PO410222  16.021   7.874   6.081 -0.0946 -0.1060  0.1547
  745loPI   GL110223  15.883   8.043   6.418 -0.2085  0.2966 -0.0293
  745loPI   GL210224  15.685   7.930   6.662 -0.2049  0.3285  0.0265
  745loPI   C1A10225  16.173   8.013   6.728 -0.4346  0.1729 -0.1413
  745loPI   C2A10226  16.478   7.838   6.963 -0.2549  0.1066 -0.1311
  745loPI   C3A10227  16.502   7.795   7.372 -0.0594 -0.1025 -0.0007
  745loPI   C4A10228  16.427   7.525   7.605  0.0826  0.2430  0.2289
  745loPI   C5A10229  16.388   7.396   8.125 -0.0253  0.0550 -0.2670
  745loPI   C6A10230  16.645   7.520   8.419 -0.2085  0.0809 -0.2304
  745loPI   C1B10231  15.834   7.980   7.075  0.2373 -0.0540  0.0794
  745loPI   C2B10232  15.803   7.887   7.553 -0.4037 -0.3335  0.1858
  745loPI   C3B10233  15.828   8.095   8.067 -0.1578 -0.3071  0.1538
  745loPI   C4B10234  16.063   8.217   8.362  0.0395 -0.1486  0.0168
  746loPI    C110235   5.868   6.892   5.626 -0.1686  0.0400 -0.1414
  746loPI    C210236   6.133   6.692   5.403  0.0062  0.0702  0.0365
  746loPI    C310237   6.025   7.064   5.301 -0.1095 -0.0102 -0.1396
  746loPI   PO410238   5.949   6.770   5.881  0.0594  0.0599 -0.0551
  746loPI   GL110239   5.936   6.783   6.278 -0.1552 -0.1783 -0.0851
  746loPI   GL210240   6.275   6.864   6.522 -0.1044 -0.0537  0.2291
  746loPI   C1A10241   5.815   6.943   6.736 -0.0359 -0.1399 -0.0385
  746loPI   C2A10242   5.834   6.907   7.147 -0.2383  0.0962 -0.0770
  746loPI   C3A10243   5.822   6.906   7.528 -0.3081 -0.4759 -0.4308
  746loPI   C4A10244   6.176   6.992   7.932  0.1118  0.0216  0.0205
  746loPI   C5A10245   6.116   7.304   8.191 -0.1890  0.0350 -0.1779
  746loPI   C6A10246   6.157   7.566   8.585  0.1397  0.0424 -0.2942
  746loPI   C1B10247   6.326   6.922   6.944  0.2394 -0.1213  0.1166
  746loPI   C2B10248   6.374   6.968   7.332 -0.0126  0.1482 -0.1196
  746loPI   C3B10249   6.558   7.250   7.698 -0.1366 -0.1167 -0.1241
  746loPI   C4B10250   6.714   7.175   8.076  0.0827  0.4135  0.0967
  747loPI    C110251   6.770  11.252   5.876 -0.0250 -0.2764  0.0859
  747loPI    C210252   6.925  11.548   5.657 -0.2348 -0.0321  0.2605
  747loPI    C310253   6.999  11.167   5.560 -0.1661  0.0728 -0.1163
  747loPI   PO410254   6.601  11.296   6.078 -0.1027  0.0467 -0.1937
  747loPI   GL110255   6.511  11.123   6.433 -0.0494 -0.1647 -0.1635
  747loPI   GL210256   6.387  10.904   6.499 -0.3784  0.0616 -0.0979
  747loPI   C1A10257   6.574  11.147   6.931 -0.1565 -0.1697  0.3158
  747loPI   C2A10258   6.669  11.148   7.438  0.0602 -0.0251 -0.0742
  747loPI   C3A10259   6.878  11.082   7.906 -0.4103  0.1432  0.1891
  747loPI   C4A10260   7.024  10.866   8.242 -0.1386 -0.1166 -0.2302
  747loPI   C5A10261   7.358  10.581   8.451  0.0639 -0.0628 -0.0553
  747loPI   C6A10262   7.580  10.598   8.804 -0.0976  0.0936  0.0784
  747loPI   C1B10263   6.362  10.666   6.823 -0.0870  0.0055  0.1066
  747loPI   C2B10264   6.482  10.713   7.263  0.0511 -0.1660 -0.0088
  747loPI   C3B10265   6.540  10.749   7.684  0.1234  0.4039 -0.1036
  747loPI   C4B10266   6.571  10.710   8.091  0.0012 -0.2490  0.0212
  748loPI    C110267   8.624   7.414   5.749  0.3785  0.0782 -0.2134
  748loPI    C210268   8.698   7.806   5.718 -0.1887  0.2050 -0.0638
  748loPI    C310269   8.460   7.626   5.452  0.0208 -0.0293 -0.0965
  748loPI   PO410270   8.837   7.302   5.821 -0.0525 -0.0812  0.2725
  748loPI   GL110271   9.035   7.199   6.203 -0.1087 -0.1411  0.1210
  748loPI   GL210272   9.028   7.595   6.243  0.0703  0.0254  0.1954
  748loPI   C1A10273   9.002   6.922   6.623 -0.2520 -0.1417  0.0876
  748loPI   C2A10274   8.974   6.979   6.997  0.1585 -0.0439 -0.1709
  748loPI   C3A10275   8.721   7.120   7.381  0.1982 -0.0843 -0.0818
  748loPI   C4A10276   8.640   7.046   7.832  0.1292  0.1892  0.0449
  748loPI   C5A10277   8.289   7.237   8.046  0.2863 -0.0343  0.1757
  748loPI   C6A10278   8.137   7.194   8.454  0.0433 -0.2736  0.1642
  748loPI   C1B10279   8.921   7.565   6.629  0.2382 -0.3004  0.0159
  748loPI   C2B10280   8.859   7.478   7.105 -0.0069 -0.0607  0.0557
  748loPI   C3B10281   8.821   7.520   7.611 -0.0016  0.0076  0.1395
  748loPI   C4B10282   8.803   7.507   8.074 -0.0361 -0.2720  0.0746
  749loPI    C110283   9.641   1.143   5.740  0.1229 -0.0823 -0.2128
  749loPI    C210284   9.463   0.940   5.445 -0.1443 -0.0034 -0.1084
  749loPI    C310285   9.515   1.335   5.412  0.1071 -0.0414 -0.1827
  749loPI   PO410286   9.824   0.865   5.891 -0.2647 -0.1858  0.1197
  749loPI   GL110287   9.971   0.956   6.256 -0.0599 -0.0550 -0.0647
  749loPI   GL210288  10.225   0.826   6.296  0.4312  0.0575 -0.1703
  749loPI   C1A10289   9.712   1.058   6.617 -0.1481  0.1788 -0.0463
  749loPI   C2A10290   9.809   1.148   7.109  0.1926 -0.0251 -0.2744
  749loPI   C3A10291   9.810   1.303   7.631 -0.0522  0.1087  0.1761
  749loPI   C4A10292   9.927   1.257   8.075 -0.1331 -0.2505  0.0844
  749loPI   C5A10293  10.214   1.158   8.335  0.2969  0.2035  0.0340
  749loPI   C6A10294  10.504   0.788   8.384  0.1010  0.0017 -0.2687
  749loPI   C1B10295  10.189   1.012   6.792  0.2455 -0.0328  0.0186
  749loPI   C2B10296  10.257   0.927   7.210  0.0379  0.0955 -0.1435
  749loPI   C3B10297  10.291   1.190   7.581 -0.0462 -0.0177 -0.0494
  749loPI   C4B10298  10.549   1.236   7.973 -0.1587 -0.2947 -0.0180
  750loPI    C110299  14.884   0.856   5.250  0.1413  0.0230 -0.0443
  750loPI    C210300  14.835   0.513   5.049 -0.0701  0.0579 -0.0542
  750loPI    C310301  14.649   0.846   4.927  0.0103  0.1406  0.0463
  750loPI   PO410302  14.834   0.800   5.492 -0.0798  0.1462 -0.0459
  750loPI   GL110303  14.912   1.067   5.944 -0.0657 -0.0796  0.1911
  750loPI   GL210304  14.635   1.340   5.833  0.1699  0.2373  0.0242
  750loPI   C1A10305  14.893   0.999   6.398  0.1049  0.2286 -0.1216
  750loPI   C2A10306  14.950   0.860   6.844  0.1806  0.1137 -0.0955
  750loPI   C3A10307  15.012   0.856   7.316 -0.4977 -0.1655 -0.0828
  750loPI   C4A10308  14.811   0.979   7.698 -0.1433 -0.1904  0.3393
  750loPI   C5A10309  14.453   0.788   7.853 -0.3039 -0.3361 -0.0647
  750loPI   C6A10310  14.368   0.699   8.249 -0.3826  0.3151  0.1513
  750loPI   C1B10311  14.739   1.435   6.278  0.1879  0.1261  0.1701
  750loPI   C2B10312  14.720   1.487   6.725 -0.1782 -0.1536 -0.2513
  750loPI   C3B10313  14.823   1.258   7.092  0.1997 -0.0148 -0.2338
  750loPI   C4B10314  14.837   1.460   7.495  0.2812 -0.0441 -0.1543
  751loPI    C110315   8.345   6.480   5.538  0.0314  0.3031  0.0046
  751loPI    C210316   8.410   6.829   5.353  0.0886  0.1972 -0.1774
  751loPI    C310317   8.491   6.485   5.166 -0.2333  0.0786 -0.1059
  751loPI   PO410318   8.379   6.499   5.741  0.3194 -0.2500  0.1465
  751loPI   GL110319   8.570   6.674   6.060  0.2530  0.1025  0.1447
  751loPI   GL210320   8.630   6.979   6.138 -0.1724 -0.1174 -0.1186
  751loPI   C1A10321   8.658   6.566   6.467 -0.0814 -0.0119 -0.2133
  751loPI   C2A10322   8.781   6.486   6.871 -0.1192  0.0563 -0.1232
  751loPI   C3A10323   8.797   6.480   7.307  0.1373  0.2130 -0.0004
  751loPI   C4A10324   9.038   6.624   7.634  0.2819 -0.0667 -0.0637
  751loPI   C5A10325   8.953   6.760   8.116 -0.2046  0.1499 -0.0967
  751loPI   C6A10326   8.646   7.069   8.368  0.1596 -0.1326 -0.0032
  751loPI   C1B10327   8.596   7.230   6.450  0.0646  0.1856 -0.1621
  751loPI   C2B10328   8.512   7.240   6.802  0.1647  0.0824  0.2714
  751loPI   C3B10329   8.331   7.379   7.124  0.1106  0.1005  0.2462
  751loPI   C4B10330   8.206   7.294   7.583 -0.1943 -0.3001 -0.2940
  752loPI    C110331   5.661  10.958   5.847 -0.0861 -0.0903 -0.0866
  752loPI    C210332   5.836  11.213   5.593  0.1043 -0.2000 -0.0678
  752loPI    C310333   5.539  10.977   5.466  0.0174 -0.0650 -0.1188
  752loPI   PO410334   5.607  11.177   6.057 -0.1592  0.2950  0.1341
  752loPI   GL110335   5.687  11.394   6.488  0.1489 -0.0809  0.2202
  752loPI   GL210336   5.942  11.272   6.491 -0.1616  0.0917 -0.1053
  752loPI   C1A10337   5.573  11.809   6.539 -0.0624 -0.1465 -0.1541
  752loPI   C2A10338   5.732  12.011   6.962  0.1381  0.0926  0.0083
  752loPI   C3A10339   6.023  11.905   7.317 -0.1601 -0.2054  0.0809
  752loPI   C4A10340   5.896  11.846   7.710  0.1636 -0.0628 -0.1097
  752loPI   C5A10341   5.613  11.667   8.149  0.0854 -0.1142  0.2382
  752loPI   C6A10342   5.535  11.611   8.617  0.0607 -0.0348  0.1221
  752loPI   C1B10343   6.001  11.024   6.744 -0.1028  0.4129 -0.1164
  752loPI   C2B10344   6.135  11.024   7.150 -0.0022  0.2261  0.0574
  752loPI   C3B10345   6.172  11.052   7.562  0.2699  0.2294 -0.1512
  752loPI   C4B10346   6.412  11.161   7.936  0.3550 -0.1007 -0.0170
  753loPI    C110347   8.771   3.987   5.763 -0.0191  0.0348  0.1188
  753loPI    C210348   8.802   3.694   5.492 -0.2096  0.0573  0.0711
  753loPI    C310349   8.740   4.071   5.373 -0.2444  0.0747  0.1440
  753loPI   PO410350   8.940   4.132   5.998 -0.2314 -0.0620  0.3135
  753loPI   GL110351   9.078   4.025   6.388  0.3123 -0.2342 -0.0661
  753loPI   GL210352   8.827   4.228   6.444  0.0083 -0.0191 -0.1210
  753loPI   C1A10353   9.229   3.798   6.775  0.0112 -0.0994  0.2562
  753loPI   C2A10354   9.305   3.804   7.147 -0.1499  0.1466  0.0396
  753loPI   C3A10355   9.455   3.584   7.466 -0.1436  0.1726  0.1791
  753loPI   C4A10356   9.339   3.378   7.818 -0.0579  0.2161 -0.1036
  753loPI   C5A10357   9.368   2.981   8.035 -0.2311  0.2669 -0.3439
  753loPI   C6A10358   9.157   2.931   8.376 -0.0865 -0.0011  0.0689
  753loPI   C1B10359   8.898   4.159   6.820  0.0196  0.0541 -0.1984
  753loPI   C2B10360   8.917   4.229   7.275 -0.2217  0.0140  0.1014
  753loPI   C3B10361   9.158   3.974   7.595  0.0733  0.0558  0.2333
  753loPI   C4B10362   9.424   3.819   7.975 -0.1875 -0.1459 -0.0478
  754loPI    C110363   2.142  13.866   5.527 -0.2631  0.1978  0.0982
  754loPI    C210364   2.327  14.097   5.258  0.0239  0.0035  0.1232
  754loPI    C310365   2.058  13.827   5.138 -0.2649  0.2998  0.0881
  754loPI   PO410366   2.002  14.022   5.705  0.0791  0.0851 -0.0886
  754loPI   GL110367   1.918  13.994   6.092  0.4905 -0.0439 -0.0054
  754loPI   GL210368   2.055  13.814   6.323  0.0858  0.0610  0.2230
  754loPI   C1A10369   1.594  13.974   6.386  0.0514 -0.1680 -0.0137
  754loPI   C2A10370   1.469  14.091   6.727 -0.2213 -0.3126  0.1355
  754loPI   C3A10371   1.265  14.513   6.999 -0.0500 -0.2407 -0.1072
  754loPI   C4A10372   0.941  14.695   7.004 -0.2357  0.0028 -0.1416
  754loPI   C5A10373   0.548  14.638   7.223 -0.0321 -0.0523  0.3599
  754loPI   C6A10374   0.404  14.646   7.568 -0.0501 -0.2468  0.0757
  754loPI   C1B10375   1.906  13.799   6.748  0.3608  0.1576 -0.0192
  754loPI   C2B10376   1.838  13.989   7.065  0.3009  0.0088  0.0208
  754loPI   C3B10377   1.773  14.367   7.072  0.3252 -0.0747 -0.0348
  754loPI   C4B10378   1.671  14.631   6.714  0.1329 -0.2738 -0.3133
  755loPI    C110379  16.042   1.336   5.513  0.0955  0.0690  0.1018
  755loPI    C210380  15.875   1.655   5.338  0.1969  0.0573 -0.0176
  755loPI    C310381  16.271   1.641   5.394  0.2101 -0.1096 -0.1440
  755loPI   PO410382  15.854   1.260   5.724 -0.0875  0.0264  0.1348
  755loPI   GL110383  15.422   1.107   5.842 -0.1931 -0.0454 -0.2115
  755loPI   GL210384  15.650   0.963   6.024  0.0688 -0.2091  0.1270
  755loPI   C1A10385  15.273   1.379   6.281 -0.2121  0.1305 -0.3984
  755loPI   C2A10386  15.210   1.328   6.671  0.0765 -0.0279  0.0963
  755loPI   C3A10387  15.372   1.281   7.118 -0.1119 -0.0481  0.2341
  755loPI   C4A10388  15.342   1.322   7.541 -0.2197 -0.1628  0.2499
  755loPI   C5A10389  15.151   1.195   7.950  0.0329  0.0622  0.0318
  755loPI   C6A10390  14.895   0.879   8.293 -0.2656  0.1558 -0.0139
  755loPI   C1B10391  15.548   0.965   6.442 -0.3654 -0.1438 -0.1337
  755loPI   C2B10392  15.568   0.865   6.931  0.0177 -0.0079  0.1361
  755loPI   C3B10393  15.587   0.875   7.353 -0.3639 -0.0285  0.1578
  755loPI   C4B10394  15.603   0.995   7.814 -0.0216 -0.0267 -0.2251
  756loPI    C110395   6.923  10.788   6.039 -0.0552  0.2851  0.0455
  756loPI    C210396   6.567  10.835   5.863 -0.1744 -0.1202  0.1680
  756loPI    C310397   6.842  10.595   5.698 -0.0299  0.0377  0.1771
  756loPI   PO410398   6.847  10.755   6.307 -0.0733  0.2200 -0.1570
  756loPI   GL110399   7.010  10.517   6.613  0.4809 -0.2358  0.1006
  756loPI   GL210400   6.684  10.346   6.613  0.2068  0.3105  0.0562
  756loPI   C1A10401   7.327  10.387   6.903  0.0012  0.1822 -0.3034
  756loPI   C2A10402   7.490  10.521   7.256 -0.4045 -0.0675  0.1216
  756loPI   C3A10403   7.732  10.618   7.511  0.0504  0.0678  0.2211
  756loPI   C4A10404   7.996  10.783   7.849  0.0709 -0.2696 -0.3196
  756loPI   C5A10405   8.084  10.970   8.219 -0.1119 -0.0512  0.2406
  756loPI   C6A10406   8.124  11.446   8.309 -0.1968  0.2681 -0.0200
  756loPI   C1B10407   6.808  10.383   7.045  0.1020 -0.0784 -0.1103
  756loPI   C2B10408   6.765  10.214   7.395 -0.7203 -0.0123 -0.0870
  756loPI   C3B10409   6.905  10.428   7.842 -0.0047  0.0826 -0.0101
  756loPI   C4B10410   6.928  10.394   8.317  0.0054  0.0521  0.0746
  757loPI    C110411   4.330  13.930   5.939  0.1421  0.1824  0.0212
  757loPI    C210412   4.015  13.904   5.695  0.1006  0.1264  0.0805
  757loPI    C310413   4.345  14.096   5.575  0.0952  0.0647 -0.0351
  757loPI   PO410414   4.302  14.063   6.151  0.1091  0.0623 -0.3361
  757loPI   GL110415   4.188  14.125   6.603 -0.1831  0.0435 -0.0341
  757loPI   GL210416   4.209  14.432   6.742 -0.3052 -0.2274  0.4451
  757loPI   C1A10417   3.949  14.113   6.961 -0.1167  0.0870 -0.1766
  757loPI   C2A10418   3.928  14.282   7.340 -0.1069  0.2721  0.2144
  757loPI   C3A10419   3.880  14.640   7.622  0.0005  0.2053 -0.1810
  757loPI   C4A10420   4.025  14.714   7.991  0.0937  0.0853  0.0484
  757loPI   C5A10421   4.174  14.518   8.375  0.2491  0.1720  0.3036
  757loPI   C6A10422   4.209  14.213   8.642  0.0448 -0.0668 -0.0130
  757loPI   C1B10423   4.186  14.610   7.159  0.1141  0.2166  0.0833
  757loPI   C2B10424   4.408  14.728   7.558 -0.2193 -0.1327 -0.2491
  757loPI   C3B10425   4.537  14.652   7.980  0.0944 -0.0725 -0.0596
  757loPI   C4B10426   4.773  14.546   8.311 -0.2387 -0.0265  0.0546
  758loPI    C110427  15.180   5.687   5.614 -0.0408 -0.1586 -0.2301
  758loPI    C210428  14.944   5.386   5.731  0.0765 -0.1716 -0.0210
  758loPI    C310429  15.219   5.327   5.446  0.1501 -0.2829  0.0725
  758loPI   PO410430  15.289   5.758   5.809 -0.3727  0.2184  0.3375
  758loPI   GL110431  15.092   5.981   6.180  0.0953 -0.0397 -0.0399
  758loPI   GL210432  14.996   5.624   6.188  0.2347  0.0253  0.1913
  758loPI   C1A10433  15.063   5.995   6.568 -0.1971  0.0807 -0.0803
  758loPI   C2A10434  15.159   5.981   7.011 -0.0363  0.0139  0.0675
  758loPI   C3A10435  15.182   5.899   7.474 -0.3190 -0.0570 -0.1954
  758loPI   C4A10436  15.112   5.972   7.907 -0.1125 -0.4173 -0.0226
  758loPI   C5A10437  15.281   6.238   8.184 -0.0051 -0.0113 -0.2731
  758loPI   C6A10438  15.058   6.373   8.540  0.0364  0.0356 -0.0586
  758loPI   C1B10439  15.155   5.403   6.527 -0.2127 -0.2019 -0.1403
  758loPI   C2B10440  15.180   5.484   6.950 -0.0814 -0.0625  0.0122
  758loPI   C3B10441  15.247   5.412   7.342 -0.1970  0.0698  0.1319
  758loPI   C4B10442  15.318   5.488   7.746 -0.0370  0.1772  0.2128
  759loPI    C110443  16.010   9.453   5.750  0.1380 -0.1921 -0.0186
  759loPI    C210444  15.976   9.154   5.487 -0.0651 -0.2816  0.1068
  759loPI    C310445  16.282   9.161   5.745  0.1925 -0.1391 -0.1964
  759loPI   PO410446  15.696   9.490   5.830 -0.1847  0.3987 -0.1111
  759loPI   GL110447  15.568   9.265   6.236  0.0651  0.0579 -0.1626
  759loPI   GL210448  15.436   9.145   6.545  0.1181 -0.0648  0.0046
  759loPI   C1A10449  15.763   9.507   6.531 -0.0204  0.1117 -0.0924
  759loPI   C2A10450  15.779   9.387   6.981  0.0339  0.1346 -0.0122
  759loPI   C3A10451  15.868   9.329   7.442  0.1252 -0.2988  0.2700
  759loPI   C4A10452  15.754   9.118   7.720 -0.1613 -0.0105 -0.1743
  759loPI   C5A10453  15.711   8.880   8.083  0.1171  0.1392  0.4109
  759loPI   C6A10454  15.350   8.929   8.276  0.2975 -0.1865 -0.1018
  759loPI   C1B10455  15.368   9.079   6.980  0.1660  0.3420  0.0265
  759loPI   C2B10456  15.472   8.954   7.362 -0.0413 -0.0422 -0.0489
  759loPI   C3B10457  15.274   8.855   7.803  0.0760 -0.0322  0.0002
  759loPI   C4B10458  14.907   8.680   8.060 -0.2151 -0.2060  0.0141
  760loPI    C110459  12.154  17.561   5.064  0.1649  0.1579 -0.1906
  760loPI    C210460  11.898  17.256   5.091  0.2122  0.1350  0.0206
  760loPI    C310461  11.953  17.441   4.740 -0.0973  0.1451 -0.0257
  760loPI   PO410462  12.094  17.748   5.195  0.1941 -0.2124  0.1010
  760loPI   GL110463  12.446  18.034   5.498  0.2249  0.2905  0.2217
  760loPI   GL210464  12.306  17.834   5.740  0.0870  0.0337  0.0647
  760loPI   C1A10465  12.538  18.233   5.923 -0.1081 -0.1670  0.1260
  760loPI   C2A10466  12.304  18.318   6.357  0.0921  0.1960 -0.2212
  760loPI   C3A10467  12.300  18.159   6.793 -0.2097 -0.1012 -0.1112
  760loPI   C4A10468  12.126  17.970   7.120  0.2011 -0.0582  0.0623
  760loPI   C5A10469  12.383  17.978   7.412 -0.0903  0.0829 -0.1520
  760loPI   C6A10470  12.519  17.869   7.887  0.0769 -0.0066  0.0705
  760loPI   C1B10471  12.190  17.867   6.196  0.2760  0.1695 -0.0970
  760loPI   C2B10472  12.212  17.745   6.555  0.2127  0.0991  0.0018
  760loPI   C3B10473  12.181  17.491   6.990 -0.0211 -0.0972  0.1712
  760loPI   C4B10474  12.238  17.501   7.385  0.0183  0.0164  0.0073
  761loPI    C110475  12.100   5.605   5.709  0.0262  0.0883  0.1515
  761loPI    C210476  11.727   5.719   5.623  0.1568  0.1629 -0.3532
  761loPI    C310477  12.033   5.964   5.546  0.3153  0.1033  0.0595
  761loPI   PO410478  12.166   5.595   5.999 -0.1609 -0.1073  0.2043
  761loPI   GL110479  12.004   5.407   6.322  0.0114  0.0228  0.2072
  761loPI   GL210480  11.985   5.122   6.397  0.1624  0.0915  0.0694
  761loPI   C1A10481  12.245   5.504   6.736 -0.2285 -0.2479 -0.1080
  761loPI   C2A10482  12.295   5.446   7.069 -0.4061  0.2036  0.0409
  761loPI   C3A10483  12.450   5.459   7.481  0.0732  0.0615 -0.1192
  761loPI   C4A10484  12.381   5.547   7.873  0.0225 -0.0202 -0.0059
  761loPI   C5A10485  12.565   5.502   8.215  0.1561  0.3225 -0.0468
  761loPI   C6A10486  12.390   5.414   8.547 -0.0752 -0.2361  0.0798
  761loPI   C1B10487  11.873   5.222   6.913  0.2098 -0.1766 -0.0925
  761loPI   C2B10488  11.992   5.176   7.380 -0.2956  0.0626  0.0066
  761loPI   C3B10489  11.910   5.348   7.765 -0.1453  0.2502  0.2377
  761loPI   C4B10490  11.994   5.277   8.177  0.0447  0.0446  0.1462
  762loPI    C110491  15.900  13.729   5.181 -0.2403 -0.0880  0.2400
  762loPI    C210492  15.955  13.352   5.059  0.2237  0.1303 -0.2709
  762loPI    C310493  15.674  13.579   4.887  0.0501  0.0692 -0.0716
  762loPI   PO410494  16.132  13.676   5.381 -0.1228  0.4030 -0.0531
  762loPI   GL110495  16.225  13.734   5.764 -0.0693 -0.0977 -0.1285
  762loPI   GL210496  16.302  14.091   5.797  0.1630  0.2295  0.1033
  762loPI   C1A10497  16.476  13.659   6.123  0.0833 -0.1331 -0.2945
  762loPI   C2A10498  16.512  13.662   6.571 -0.1637 -0.1909  0.2522
  762loPI   C3A10499  16.535  13.652   7.071  0.0201  0.0434  0.0737
  762loPI   C4A10500  16.625  13.826   7.501  0.1336 -0.0636 -0.0369
  762loPI   C5A10501  16.874  13.956   7.815  0.1758 -0.0505  0.0464
  762loPI   C6A10502  16.957  14.195   8.130 -0.0681  0.1027 -0.0343
  762loPI   C1B10503  16.357  14.180   6.267  0.3843 -0.2721  0.0664
  762loPI   C2B10504  16.405  14.110   6.739 -0.0670 -0.0699  0.1058
  762loPI   C3B10505  16.508  14.179   7.169  0.0317  0.1602 -0.3540
  762loPI   C4B10506  16.778  14.370   7.513 -0.0835  0.1918 -0.0915
  763loPI    C110507  15.005  15.932   5.107  0.1792 -0.2276  0.0695
  763loPI    C210508  15.367  15.850   4.958  0.1822 -0.1780  0.0495
  763loPI    C310509  15.041  15.687   4.793  0.1891 -0.1591  0.0172
  763loPI   PO410510  15.055  15.969   5.327  0.0684  0.0290 -0.0179
  763loPI   GL110511  14.905  16.087   5.631 -0.0810  0.1094  0.0485
  763loPI   GL210512  14.687  16.344   5.701 -0.0942 -0.0707 -0.1212
  763loPI   C1A10513  15.039  16.120   6.118  0.1422  0.4046 -0.0851
  763loPI   C2A10514  15.188  16.020   6.524  0.0037 -0.1065  0.1762
  763loPI   C3A10515  15.319  16.040   6.882  0.0464 -0.0341 -0.1320
  763loPI   C4A10516  15.405  16.031   7.239  0.1210  0.0142  0.1518
  763loPI   C5A10517  15.649  15.782   7.600 -0.0464 -0.1327  0.1822
  763loPI   C6A10518  16.052  15.656   7.734  0.2682  0.0230  0.1814
  763loPI   C1B10519  14.564  16.289   6.110  0.3085 -0.1880 -0.2480
  763loPI   C2B10520  14.705  16.271   6.468 -0.1787 -0.1685  0.0579
  763loPI   C3B10521  14.819  16.284   6.825 -0.1653  0.0732 -0.1541
  763loPI   C4B10522  14.979  16.244   7.290  0.2700  0.0689  0.0627
  764loPI    C110523  16.721   1.898   5.752 -0.2870 -0.1203 -0.1032
  764loPI    C210524  16.773   1.746   5.385 -0.0230 -0.0597 -0.0926
  764loPI    C310525  16.857   2.131   5.456  0.0563 -0.1048  0.0625
  764loPI   PO410526  16.456   1.828   5.818 -0.0553 -0.2970  0.1355
  764loPI   GL110527  16.321   1.611   6.181 -0.0919 -0.1692 -0.1766
  764loPI   GL210528  16.683   1.551   6.169 -0.1654 -0.1680 -0.2670
  764loPI   C1A10529  16.361   1.592   6.575 -0.1115 -0.1201  0.3706
  764loPI   C2A10530  16.557   1.642   7.023  0.0553  0.0306  0.1058
  764loPI   C3A10531  16.791   1.547   7.425 -0.2372 -0.1977  0.2043
  764loPI   C4A10532  17.062   1.273   7.573 -0.2546 -0.0368 -0.1853
  764loPI   C5A10533  17.208   0.974   7.937  0.0746 -0.3577  0.1348
  764loPI   C6A10534  17.141   0.570   7.958  0.3522 -0.0049  0.0551
  764loPI   C1B10535  16.916   1.626   6.569 -0.1736  0.2606  0.0295
  764loPI   C2B10536  17.118   1.697   7.004 -0.1685 -0.0313 -0.0182
  764loPI   C3B10537  17.083   2.000   7.361 -0.0148  0.2419  0.1270
  764loPI   C4B10538  17.068   2.184   7.720 -0.0355  0.0101 -0.3122
  765loPI    C110539   9.516   2.061   5.691 -0.0582 -0.0765  0.0398
  765loPI    C210540   9.781   2.347   5.601  0.1800 -0.3135 -0.0249
  765loPI    C310541   9.474   2.274   5.355  0.1486 -0.1507 -0.0350
  765loPI   PO410542   9.472   2.039   5.932  0.2052 -0.1855  0.1107
  765loPI   GL110543   9.332   1.855   6.346  0.0330  0.1445 -0.1231
  765loPI   GL210544   9.417   1.586   6.434 -0.3024  0.0070  0.1220
  765loPI   C1A10545   9.388   2.040   6.696  0.2620 -0.0121  0.0257
  765loPI   C2A10546   9.240   1.956   7.166 -0.2516  0.1765 -0.0495
  765loPI   C3A10547   9.055   1.953   7.557  0.3567  0.0869  0.1945
  765loPI   C4A10548   9.168   1.893   8.021  0.1059  0.0559  0.0789
  765loPI   C5A10549   9.324   1.472   8.289 -0.3006  0.0388 -0.0407
  765loPI   C6A10550   9.551   1.086   8.275 -0.0452 -0.1042 -0.2356
  765loPI   C1B10551   9.644   1.610   6.782 -0.1470  0.1487  0.0581
  765loPI   C2B10552   9.655   1.665   7.192  0.3136 -0.0136 -0.0830
  765loPI   C3B10553   9.562   1.815   7.609  0.2093 -0.0329 -0.1390
  765loPI   C4B10554   9.722   1.657   7.924 -0.0702  0.0679 -0.0337
  766loPI    C110555   4.776  17.716   5.641 -0.0885  0.1867 -0.1600
  766loPI    C210556   4.733  18.086   5.496 -0.0587  0.1451 -0.2757
  766loPI    C310557   4.949  17.816   5.295 -0.0129  0.0883 -0.1510
  766loPI   PO410558   4.882  17.772   5.978  0.0172  0.0627  0.1295
  766loPI   GL110559   4.975  17.908   6.413  0.0194  0.1001 -0.0015
  766loPI   GL210560   4.611  17.846   6.452  0.0179 -0.2094 -0.0072
  766loPI   C1A10561   4.950  17.661   6.823  0.0085  0.1620  0.0358
  766loPI   C2A10562   4.707  17.545   7.116 -0.1452 -0.1641 -0.2797
  766loPI   C3A10563   4.542  17.343   7.561  0.0310 -0.0368  0.0053
  766loPI   C4A10564   4.519  17.164   7.938  0.0970  0.0094 -0.0017
  766loPI   C5A10565   4.555  16.785   8.155  0.3060 -0.0913 -0.0205
  766loPI   C6A10566   4.465  16.376   7.941 -0.0332  0.1079 -0.1826
  766loPI   C1B10567   4.511  18.011   6.894  0.0999 -0.1473  0.0929
  766loPI   C2B10568   4.347  17.961   7.354  0.1110  0.2289  0.4296
  766loPI   C3B10569   4.415  18.082   7.738  0.0272 -0.0159 -0.0154
  766loPI   C4B10570   4.593  18.124   8.086 -0.0167 -0.1851  0.3852
  767loPI    C110571   4.423   6.338   5.689 -0.0698  0.0250 -0.1439
  767loPI    C210572   4.205   6.462   6.001 -0.1116 -0.0851 -0.1288
  767loPI    C310573   4.331   6.726   5.728 -0.0297  0.0199  0.0088
  767loPI   PO410574   4.620   6.208   5.829 -0.1211 -0.2493 -0.4928
  767loPI   GL110575   4.925   6.108   6.279 -0.3539 -0.1301  0.1170
  767loPI   GL210576   5.240   6.027   6.414  0.3337  0.2205 -0.1784
  767loPI   C1A10577   4.937   5.839   6.736 -0.1665 -0.2402  0.1718
  767loPI   C2A10578   4.983   5.851   7.144  0.3321  0.1391  0.2927
  767loPI   C3A10579   5.036   5.771   7.584  0.1587  0.2306 -0.1217
  767loPI   C4A10580   5.253   5.709   8.036 -0.0384 -0.0136  0.2740
  767loPI   C5A10581   5.161   5.965   8.424  0.2504  0.1664  0.1102
  767loPI   C6A10582   5.411   6.262   8.612 -0.0937  0.0871 -0.2735
  767loPI   C1B10583   5.354   6.043   6.835 -0.1460 -0.2853 -0.0523
  767loPI   C2B10584   5.189   6.295   7.143 -0.0125  0.2298 -0.1971
  767loPI   C3B10585   5.063   6.267   7.558  0.1287 -0.0367  0.3852
  767loPI   C4B10586   5.170   6.251   7.904  0.1692 -0.1620 -0.2406
  768loPI    C110587   5.965   7.659   5.903 -0.3256  0.0466  0.2152
  768loPI    C210588   5.920   8.003   5.704 -0.3120  0.0217  0.1689
  768loPI    C310589   5.607   7.758   5.755 -0.2468 -0.1209 -0.0964
  768loPI   PO410590   6.047   7.715   6.098 -0.0890 -0.2108 -0.0656
  768loPI   GL110591   6.036   7.661   6.456 -0.0253 -0.7009 -0.0553
  768loPI   GL210592   5.910   7.470   6.555  0.3259  0.1041  0.0224
  768loPI   C1A10593   6.186   7.892   6.822 -0.2534  0.1323 -0.0216
  768loPI   C2A10594   6.189   7.868   7.232 -0.0260  0.1123  0.1416
  768loPI   C3A10595   6.177   7.888   7.625  0.2187  0.3127  0.0870
  768loPI   C4A10596   6.376   7.747   8.023 -0.0491 -0.0836  0.2166
  768loPI   C5A10597   6.647   7.598   8.310  0.1618 -0.2892 -0.1353
  768loPI   C6A10598   7.038   7.651   8.477  0.4413 -0.2858 -0.1238
  768loPI   C1B10599   6.103   7.400   7.011  0.2952  0.2423  0.0951
  768loPI   C2B10600   5.983   7.404   7.360  0.2775 -0.2024  0.0436
  768loPI   C3B10601   5.898   7.392   7.753 -0.1416 -0.1043 -0.5392
  768loPI   C4B10602   5.673   7.088   8.010  0.1235  0.3486  0.1814
  769loPI    C110603  13.465  15.067   5.151 -0.1545  0.3251  0.0611
  769loPI    C210604  13.093  15.053   5.004 -0.1356  0.2821  0.0173
  769loPI    C310605  13.391  15.201   4.782 -0.0368 -0.1354 -0.1376
  769loPI   PO410606  13.414  14.822   5.378 -0.6720  0.0556  0.0458
  769loPI   GL110607  13.460  15.042   5.782 -0.0107  0.0780  0.0515
  769loPI   GL210608  13.302  14.883   5.926 -0.0113 -0.0224  0.1164
  769loPI   C1A10609  13.582  15.274   6.262  0.0309 -0.2078  0.0845
  769loPI   C2A10610  13.734  15.283   6.717  0.3130 -0.0052 -0.0068
  769loPI   C3A10611  13.694  15.354   7.151  0.0482  0.1262  0.2903
  769loPI   C4A10612  13.758  15.436   7.579  0.1328 -0.3048 -0.0702
  769loPI   C5A10613  13.624  15.560   8.039  0.1738 -0.0797  0.3363
  769loPI   C6A10614  13.374  15.664   8.362 -0.0179 -0.0339 -0.1216
  769loPI   C1B10615  13.213  14.949   6.280  0.0353 -0.0557 -0.4031
  769loPI   C2B10616  13.349  14.980   6.719 -0.1776  0.2592 -0.0185
  769loPI   C3B10617  13.277  15.072   7.131 -0.0283 -0.0174 -0.0041
  769loPI   C4B10618  13.322  15.178   7.527  0.2072  0.4401 -0.1371
  770loPI    C110619   7.531  12.251   5.875  0.2463 -0.0314  0.0498
  770loPI    C210620   7.511  12.567   5.630 -0.1613 -0.0230  0.0878
  770loPI    C310621   7.560  12.200   5.479 -0.5902 -0.0381 -0.0276
  770loPI   PO410622   7.724  12.346   6.076  0.1652  0.1516  0.0445
  770loPI   GL110623   7.586  12.363   6.541 -0.0845 -0.1790  0.1144
  770loPI   GL210624   7.936  12.219   6.584  0.2000  0.1521  0.1074
  770loPI   C1A10625   7.435  12.511   6.872 -0.0108  0.2173  0.1081
  770loPI   C2A10626   7.310  12.368   7.346  0.1633 -0.1287 -0.2330
  770loPI   C3A10627   7.434  12.404   7.856  0.3138 -0.0216  0.0168
  770loPI   C4A10628   7.308  12.493   8.264  0.1508  0.1154  0.1097
  770loPI   C5A10629   7.431  12.719   8.557  0.1270 -0.6536 -0.1138
  770loPI   C6A10630   7.295  13.135   8.717 -0.1196 -0.0071 -0.2191
  770loPI   C1B10631   7.805  12.199   6.979 -0.2948  0.3503 -0.1482
  770loPI   C2B10632   7.737  12.099   7.381  0.2596  0.0178 -0.1556
  770loPI   C3B10633   7.845  11.999   7.791  0.1496 -0.1083  0.1813
  770loPI   C4B10634   7.997  11.896   8.146  0.1453 -0.0262 -0.0537
  771loPI    C110635  14.814  14.407   5.323  0.1090  0.1343 -0.0217
  771loPI    C210636  14.506  14.431   5.069  0.0802 -0.0637 -0.0073
  771loPI    C310637  14.728  14.755   5.146 -0.1480  0.0899  0.0129
  771loPI   PO410638  14.797  14.063   5.457 -0.1457  0.1288 -0.2385
  771loPI   GL110639  15.036  13.727   5.691 -0.0305 -0.0553  0.1804
  771loPI   GL210640  14.799  13.677   5.889 -0.2224 -0.1887 -0.1462
  771loPI   C1A10641  15.298  13.896   6.110 -0.0088  0.1373  0.2192
  771loPI   C2A10642  15.509  13.990   6.589  0.0591 -0.0382  0.1200
  771loPI   C3A10643  15.586  13.975   7.038  0.0119  0.2428 -0.3273
  771loPI   C4A10644  15.628  13.811   7.492  0.3877 -0.0272 -0.2253
  771loPI   C5A10645  15.495  13.796   7.861 -0.1908 -0.0974  0.1171
  771loPI   C6A10646  15.535  14.056   8.168 -0.0549 -0.2375  0.2050
  771loPI   C1B10647  14.627  13.656   6.352  0.3589 -0.0707  0.1809
  771loPI   C2B10648  14.646  13.705   6.797 -0.0572 -0.0390 -0.2420
  771loPI   C3B10649  14.746  13.718   7.295 -0.3483 -0.1068 -0.2450
  771loPI   C4B10650  14.542  13.680   7.711  0.0861 -0.1048  0.0227
  772loPI    C110651   3.218  16.424   6.160 -0.0487  0.0312 -0.2003
  772loPI    C210652   3.202  16.025   6.186  0.2062  0.0404  0.1853
  772loPI    C310653   3.092  16.208   5.848 -0.1749 -0.3362  0.0961
  772loPI   PO410654   3.160  16.562   6.317 -0.0621  0.2655  0.1105
  772loPI   GL110655   3.265  16.797   6.600 -0.0722  0.3511 -0.1868
  772loPI   GL210656   2.924  16.784   6.699  0.0701 -0.3246  0.0239
  772loPI   C1A10657   3.093  17.026   7.036 -0.0622  0.2581 -0.1743
  772loPI   C2A10658   3.169  17.058   7.398 -0.5994  0.0118  0.1495
  772loPI   C3A10659   3.321  17.068   7.802  0.1098 -0.2207  0.0015
  772loPI   C4A10660   3.320  17.090   8.278 -0.0848  0.0998 -0.0718
  772loPI   C5A10661   3.324  17.472   8.464 -0.0647 -0.0529  0.0583
  772loPI   C6A10662   3.184  17.934   8.615  0.0829 -0.1770 -0.2370
  772loPI   C1B10663   3.217  16.506   7.077  0.0229 -0.1057  0.1934
  772loPI   C2B10664   3.364  16.494   7.571 -0.0476 -0.1891  0.1486
  772loPI   C3B10665   3.586  16.663   7.927 -0.2903 -0.1518 -0.2414
  772loPI   C4B10666   3.578  16.641   8.440  0.0406 -0.0714  0.1523
  773loPI    C110667  17.067   8.509   5.783 -0.0765 -0.0235 -0.0436
  773loPI    C210668  17.069   8.674   5.418 -0.0740  0.0587 -0.0066
  773loPI    C310669  16.725   8.549   5.580 -0.0822  0.0693 -0.0161
  773loPI   PO410670  17.279   8.665   5.944  0.0545 -0.0188  0.1234
  773loPI   GL110671  17.379   8.560   6.317  0.1266  0.2663  0.1423
  773loPI   GL210672  17.541   8.306   6.302 -0.0687  0.3429 -0.0500
  773loPI   C1A10673  17.015   8.673   6.598 -0.0526  0.0241 -0.3608
  773loPI   C2A10674  16.720   8.780   6.869 -0.0007  0.0599 -0.0205
  773loPI   C3A10675  16.566   8.834   7.270  0.0752 -0.2060  0.1710
  773loPI   C4A10676  16.553   8.704   7.720  0.0042  0.2043 -0.1241
  773loPI   C5A10677  16.646   8.406   8.029  0.0919  0.2340 -0.2291
  773loPI   C6A10678  16.984   8.417   8.335  0.1805 -0.3999 -0.2984
  773loPI   C1B10679  17.703   8.018   6.597  0.1364 -0.1223  0.2055
  773loPI   C2B10680  17.783   8.006   7.018 -0.1455  0.0927  0.2437
  773loPI   C3B10681  17.877   8.101   7.487  0.0620  0.2013 -0.0852
  773loPI   C4B10682  17.862   8.303   7.800 -0.1867 -0.1705 -0.0061
  774loPI    C110683  14.626   8.925   5.947 -0.2281 -0.1320  0.1144
  774loPI    C210684  14.550   9.154   5.628  0.4071 -0.0546  0.0057
  774loPI    C310685  14.580   8.757   5.588  0.2532 -0.0674  0.0148
  774loPI   PO410686  14.552   9.103   6.110  0.2377 -0.0889 -0.3342
  774loPI   GL110687  14.200   9.031   6.339 -0.2042 -0.5080  0.1019
  774loPI   GL210688  14.134   9.397   6.398  0.1596 -0.2125  0.0543
  774loPI   C1A10689  14.283   9.194   6.785 -0.0547 -0.1341 -0.0129
  774loPI   C2A10690  14.342   9.347   7.163 -0.2268 -0.0060 -0.1145
  774loPI   C3A10691  14.479   9.378   7.527 -0.1240  0.2256  0.1034
  774loPI   C4A10692  14.360   9.199   7.861 -0.1646 -0.0435  0.2022
  774loPI   C5A10693  14.373   8.967   8.208 -0.0973 -0.0005  0.0191
  774loPI   C6A10694  14.195   8.970   8.591  0.0929  0.2265  0.0933
  774loPI   C1B10695  13.864   9.417   6.742 -0.0197  0.0396  0.1001
  774loPI   C2B10696  13.753   9.496   7.117 -0.1685  0.0975  0.0381
  774loPI   C3B10697  13.989   9.472   7.495  0.2085  0.1190  0.0298
  774loPI   C4B10698  14.045   9.690   7.814 -0.0080  0.0372  0.1281
  775loPI    C110699   9.503  11.491   6.065  0.1676  0.1815  0.1584
  775loPI    C210700   9.344  11.429   5.703  0.2189  0.0996  0.1497
  775loPI    C310701   9.627  11.183   5.842  0.3033  0.2157  0.1857
  775loPI   PO410702   9.319  11.539   6.191 -0.3026  0.2259 -0.0612
  775loPI   GL110703   9.128  11.905   6.372  0.3451  0.0655 -0.0031
  775loPI   GL210704   8.943  12.159   6.424  0.0340 -0.0781 -0.0495
  775loPI   C1A10705   9.304  11.792   6.822  0.3022 -0.1075 -0.1921
  775loPI   C2A10706   9.294  11.950   7.253  0.2869  0.1080 -0.1712
  775loPI   C3A10707   9.417  11.854   7.716 -0.1915  0.0626 -0.0453
  775loPI   C4A10708   9.329  11.800   8.061  0.0286  0.0417  0.0950
  775loPI   C5A10709   9.007  11.971   8.305 -0.4195 -0.2927 -0.1490
  775loPI   C6A10710   8.613  12.048   8.424 -0.0711  0.0261  0.2313
  775loPI   C1B10711   9.013  12.211   6.843 -0.2480 -0.1674  0.2693
  775loPI   C2B10712   9.250  12.434   7.085 -0.3840  0.0596  0.0473
  775loPI   C3B10713   9.431  12.354   7.549 -0.0337 -0.1900  0.1747
  775loPI   C4B10714   9.241  12.354   7.991  0.2615 -0.0815 -0.0626
  776loPI    C110715   3.872  12.044   6.089 -0.0726  0.1572  0.0023
  776loPI    C210716   3.871  12.041   5.689  0.1561  0.0779  0.0003
  776loPI    C310717   3.807  12.383   5.888 -0.3476  0.0485 -0.0969
  776loPI   PO410718   3.866  11.773   6.110  0.0351 -0.0704 -0.1706
  776loPI   GL110719   3.607  11.623   6.332 -0.0546 -0.0267  0.0536
  776loPI   GL210720   3.376  11.406   6.324 -0.0515 -0.3369 -0.0982
  776loPI   C1A10721   3.855  11.857   6.676 -0.1059 -0.1882 -0.0070
  776loPI   C2A10722   3.873  11.809   7.098  0.3088 -0.3401 -0.1843
  776loPI   C3A10723   3.654  11.877   7.505  0.2847  0.2026 -0.0618
  776loPI   C4A10724   3.789  12.092   7.864 -0.1073  0.0815  0.0729
  776loPI   C5A10725   4.084  12.291   8.142  0.2450 -0.1421 -0.0971
  776loPI   C6A10726   4.321  11.884   8.386  0.0412 -0.1323  0.2113
  776loPI   C1B10727   3.257  11.209   6.731  0.2321 -0.0703  0.4003
  776loPI   C2B10728   3.313  11.050   7.166 -0.1219  0.1379  0.3415
  776loPI   C3B10729   3.351  10.972   7.602 -0.0144 -0.1988 -0.1676
  776loPI   C4B10730   3.802  10.972   7.823 -0.0352 -0.0626  0.0721
  777loPI    C110731   8.187   1.609   5.639 -0.0276 -0.0389  0.1145
  777loPI    C210732   8.102   1.284   5.422  0.1548 -0.0752  0.0957
  777loPI    C310733   8.473   1.435   5.418  0.1614 -0.0789  0.3853
  777loPI   PO410734   7.993   1.492   5.876  0.0029 -0.2399  0.0116
  777loPI   GL110735   8.020   1.560   6.299 -0.0376  0.1005 -0.1253
  777loPI   GL210736   8.427   1.425   6.438  0.2727  0.2595  0.1132
  777loPI   C1A10737   7.963   1.517   6.723  0.1748  0.2951 -0.2293
  777loPI   C2A10738   7.966   1.686   7.053  0.2795  0.3133  0.0026
  777loPI   C3A10739   7.839   1.688   7.378  0.3640  0.2660  0.0116
  777loPI   C4A10740   7.665   1.565   7.831 -0.0351  0.2616  0.0855
  777loPI   C5A10741   7.364   1.331   8.139 -0.0392  0.1665 -0.3267
  777loPI   C6A10742   7.521   1.052   8.382  0.0383 -0.0146 -0.2585
  777loPI   C1B10743   8.635   1.178   6.681 -0.2113  0.0078 -0.0800
  777loPI   C2B10744   8.876   1.216   7.073  0.0998 -0.0198 -0.1518
  777loPI   C3B10745   8.772   1.161   7.479  0.1969  0.0466 -0.3781
  777loPI   C4B10746   8.891   1.228   7.977 -0.1148 -0.1099  0.1247
  778loPI    C110747  13.012  12.652   5.743 -0.2692 -0.2185  0.1830
  778loPI    C210748  12.940  12.262   5.794 -0.0121 -0.3251 -0.2218
  778loPI    C310749  13.068  12.397   5.440 -0.1973  0.1448 -0.1169
  778loPI   PO410750  13.175  12.759   5.970  0.1026 -0.0043  0.0127
  778loPI   GL110751  13.442  12.581   6.267  0.2491 -0.2848 -0.1666
  778loPI   GL210752  13.493  12.868   6.367  0.1465 -0.2485  0.2379
  778loPI   C1A10753  13.667  12.506   6.627 -0.0625 -0.2025  0.0707
  778loPI   C2A10754  13.829  12.398   6.959 -0.2352 -0.0778  0.3441
  778loPI   C3A10755  13.924  12.437   7.326 -0.1191 -0.0062 -0.0847
  778loPI   C4A10756  13.992  12.408   7.708  0.0533  0.1335  0.1306
  778loPI   C5A10757  14.029  12.312   8.081  0.1329 -0.2066 -0.0457
  778loPI   C6A10758  14.418  12.244   8.315  0.0044  0.0256  0.0140
  778loPI   C1B10759  13.440  12.933   6.789  0.0448  0.3778 -0.0324
  778loPI   C2B10760  13.582  12.781   7.144  0.1018 -0.0142  0.2839
  778loPI   C3B10761  13.805  12.858   7.484 -0.3310  0.0018  0.1551
  778loPI   C4B10762  13.792  12.903   7.904 -0.3577  0.0778 -0.1119
  779loPI    C110763  13.036   0.293   4.898 -0.2107  0.0827 -0.0088
  779loPI    C210764  13.309   0.049   4.736 -0.3069 -0.1022  0.1045
  779loPI    C310765  13.087   0.285   4.501 -0.0423  0.0588  0.0127
  779loPI   PO410766  12.929   0.118   5.155 -0.1038  0.0227  0.1479
  779loPI   GL110767  12.938   0.059   5.566 -0.0945  0.0299 -0.0668
  779loPI   GL210768  13.182   0.073   5.693 -0.2630 -0.1319  0.1226
  779loPI   C1A10769  12.761  -0.093   6.043  0.0095 -0.0403  0.0071
  779loPI   C2A10770  12.641   0.107   6.480 -0.0854  0.1591 -0.2603
  779loPI   C3A10771  12.607  -0.104   6.862 -0.1646  0.1210  0.0810
  779loPI   C4A10772  12.755  -0.232   7.331  0.0448 -0.0657  0.1492
  779loPI   C5A10773  13.026  -0.120   7.673  0.1885 -0.4178  0.0599
  779loPI   C6A10774  13.368  -0.103   7.873 -0.1665 -0.2534 -0.1227
  779loPI   C1B10775  13.257  -0.006   6.025  0.1135  0.0029  0.0549
  779loPI   C2B10776  13.428  -0.190   6.296 -0.3653 -0.0599  0.0507
  779loPI   C3B10777  13.461  -0.245   6.753  0.1867  0.0522  0.0683
  779loPI   C4B10778  13.645  -0.266   7.182 -0.0756  0.1250 -0.0105
  780loPI    C110779  13.243  16.002   5.308 -0.0814  0.2192  0.2367
  780loPI    C210780  13.241  16.211   4.967 -0.0790 -0.2123 -0.0353
  780loPI    C310781  12.896  16.092   5.131 -0.1007  0.3067  0.3184
  780loPI   PO410782  13.387  16.192   5.447 -0.2098 -0.4142  0.0792
  780loPI   GL110783  13.432  16.203   5.762 -0.1605  0.0389  0.2058
  780loPI   GL210784  13.714  16.235   5.989 -0.0543  0.0868  0.1308
  780loPI   C1A10785  13.204  16.000   6.129 -0.3256  0.0481  0.1047
  780loPI   C2A10786  13.242  15.964   6.530  0.1364  0.1165 -0.2030
  780loPI   C3A10787  13.267  16.084   6.912 -0.1730  0.0191  0.0396
  780loPI   C4A10788  13.561  16.026   7.269 -0.1446 -0.0087  0.0595
  780loPI   C5A10789  13.771  15.971   7.628  0.0575  0.1497  0.5058
  780loPI   C6A10790  13.887  16.055   8.022  0.1255  0.2129  0.0011
  780loPI   C1B10791  13.687  16.306   6.477 -0.1087 -0.1209  0.0003
  780loPI   C2B10792  13.875  16.328   6.890  0.2332 -0.1035  0.1685
  780loPI   C3B10793  14.029  16.220   7.295  0.0844 -0.0261 -0.0833
  780loPI   C4B10794  14.211  16.239   7.710 -0.2884  0.1492 -0.0565
  781loPI    C110795   2.611  14.897   5.862  0.1129 -0.0279  0.0459
  781loPI    C210796   2.584  14.888   5.463 -0.3126  0.3563  0.0587
  781loPI    C310797   2.893  15.072   5.639  0.0436 -0.0851 -0.0871
  781loPI   PO410798   2.552  14.658   5.917 -0.0919  0.1583  0.1415
  781loPI   GL110799   2.178  14.732   6.219 -0.1120 -0.3254 -0.1581
  781loPI   GL210800   2.130  14.462   6.091 -0.2123  0.0899  0.0381
  781loPI   C1A10801   2.217  14.774   6.655 -0.1113 -0.0886  0.0148
  781loPI   C2A10802   2.039  14.797   7.001  0.0304 -0.0130 -0.0589
  781loPI   C3A10803   1.646  14.819   7.262  0.1905  0.1714  0.0859
  781loPI   C4A10804   1.490  14.516   7.482 -0.0085 -0.2492  0.0441
  781loPI   C5A10805   1.377  14.135   7.278 -0.2471  0.0281  0.1403
  781loPI   C6A10806   1.042  13.824   7.381  0.1698  0.1072 -0.4755
  781loPI   C1B10807   1.969  14.321   6.468 -0.2856 -0.1225 -0.0256
  781loPI   C2B10808   2.227  14.211   6.800  0.1255  0.0659 -0.1011
  781loPI   C3B10809   2.281  14.038   7.279 -0.1831 -0.0468  0.1378
  781loPI   C4B10810   2.316  14.061   7.803  0.2156 -0.1270  0.1634
  782loPI    C110811   7.924   5.317   6.200  0.1071  0.3856  0.0270
  782loPI    C210812   7.657   5.122   6.424  0.1539  0.0033 -0.2395
  782loPI    C310813   7.645   5.521   6.401 -0.0322  0.0299  0.2040
  782loPI   PO410814   8.031   5.056   6.036  0.2517 -0.1965 -0.0897
  782loPI   GL110815   8.108   4.854   6.308 -0.1375 -0.0868 -0.1297
  782loPI   GL210816   8.000   4.546   6.272 -0.1318  0.3634 -0.0892
  782loPI   C1A10817   8.073   5.024   6.766 -0.1157  0.0699  0.1242
  782loPI   C2A10818   8.041   5.122   7.167 -0.1779  0.2547  0.3150
  782loPI   C3A10819   7.985   5.132   7.586  0.0524 -0.2502 -0.1725
  782loPI   C4A10820   7.976   5.260   7.933  0.1561  0.1637 -0.1854
  782loPI   C5A10821   7.950   5.498   8.278 -0.2318 -0.0130  0.0843
  782loPI   C6A10822   8.283   5.530   8.425  0.1974  0.0474  0.0684
  782loPI   C1B10823   8.003   4.555   6.721 -0.1985 -0.0015 -0.1058
  782loPI   C2B10824   7.947   4.558   7.225  0.0751  0.3262  0.1460
  782loPI   C3B10825   8.072   4.623   7.562  0.1338 -0.1140 -0.0925
  782loPI   C4B10826   8.298   4.420   7.888 -0.0663 -0.2588 -0.0677
  783loPI    C110827   6.894  14.240   6.491  0.0511 -0.0638 -0.0417
  783loPI    C210828   6.922  14.635   6.439  0.1028 -0.0428  0.1404
  783loPI    C310829   7.009  14.388   6.137 -0.0098  0.0860  0.0006
  783loPI   PO410830   6.612  14.205   6.576 -0.2438  0.0357 -0.1555
  783loPI   GL110831   6.504  14.314   6.897  0.0448  0.0315 -0.1291
  783loPI   GL210832   6.727  14.543   6.895  0.1233  0.1013 -0.0022
  783loPI   C1A10833   6.329  14.329   7.298 -0.2529 -0.3168  0.0033
  783loPI   C2A10834   6.258  14.288   7.686 -0.0990 -0.0166  0.3146
  783loPI   C3A10835   6.156  14.342   8.144  0.2562 -0.0240 -0.0549
  783loPI   C4A10836   6.132  14.210   8.542 -0.3695 -0.0453 -0.0779
  783loPI   C5A10837   6.174  13.792   8.670 -0.1537 -0.0736  0.1459
  783loPI   C6A10838   6.154  13.306   8.689 -0.0904  0.4001  0.0310
  783loPI   C1B10839   7.029  14.637   7.020 -0.0206  0.0733 -0.0843
  783loPI   C2B10840   7.009  14.805   7.460 -0.1051  0.1723  0.3023
  783loPI   C3B10841   7.023  14.856   7.906  0.3343 -0.1221  0.1554
  783loPI   C4B10842   6.753  15.177   8.095  0.0337 -0.3378  0.0164
  784loPI    C110843   9.501   4.696   5.782  0.0801  0.0313 -0.2589
  784loPI    C210844   9.203   4.722   5.517 -0.2060  0.0489  0.0578
  784loPI    C310845   9.275   4.375   5.702  0.0083  0.0305 -0.0570
  784loPI   PO410846   9.440   4.878   5.965 -0.4040  0.0953 -0.0303
  784loPI   GL110847   9.452   4.758   6.353 -0.0678 -0.3169  0.0732
  784loPI   GL210848   9.672   4.808   6.483 -0.1303 -0.0088  0.0407
  784loPI   C1A10849   9.106   4.658   6.596  0.2097  0.2764  0.2525
  784loPI   C2A10850   9.152   4.632   7.003 -0.1082 -0.2430 -0.1365
  784loPI   C3A10851   9.192   4.566   7.430  0.0643 -0.0770  0.2895
  784loPI   C4A10852   9.039   4.432   7.774 -0.0560 -0.0562 -0.2307
  784loPI   C5A10853   8.710   4.504   8.145  0.0606  0.0657 -0.0706
  784loPI   C6A10854   8.606   4.765   8.441 -0.2367  0.2031  0.2539
  784loPI   C1B10855   9.616   4.796   6.913  0.1448 -0.3255  0.1336
  784loPI   C2B10856   9.650   4.850   7.335  0.2455 -0.3650 -0.1719
  784loPI   C3B10857   9.491   4.773   7.795 -0.0249  0.2665 -0.0067
  784loPI   C4B10858   9.614   5.034   8.120  0.2369 -0.1327  0.0564
  785loPI    C110859   3.366   1.890   6.056  0.1265 -0.4983  0.1934
  785loPI    C210860   3.311   1.552   5.850  0.0371 -0.2562 -0.1910
  785loPI    C310861   3.095   1.877   5.763  0.2091 -0.0616  0.0900
  785loPI   PO410862   3.686   1.819   6.139  0.2209 -0.0780 -0.0271
  785loPI   GL110863   3.964   1.797   6.442  0.2282 -0.0005  0.0647
  785loPI   GL210864   4.267   1.777   6.427 -0.2251  0.2656 -0.4006
  785loPI   C1A10865   3.694   1.800   6.825  0.2242 -0.3111 -0.2790
  785loPI   C2A10866   3.585   1.871   7.236  0.3161 -0.0111 -0.1478
  785loPI   C3A10867   3.607   1.715   7.648 -0.2313 -0.0207  0.3123
  785loPI   C4A10868   3.774   1.703   8.012 -0.2539  0.0605 -0.1134
  785loPI   C5A10869   3.999   1.469   8.226  0.0226  0.0561 -0.0770
  785loPI   C6A10870   4.321   1.557   8.485 -0.3318  0.0528 -0.0181
  785loPI   C1B10871   4.334   1.976   6.780  0.1071 -0.0071  0.2096
  785loPI   C2B10872   4.080   2.085   7.087 -0.2141  0.0487 -0.2205
  785loPI   C3B10873   4.009   2.122   7.471 -0.1368 -0.0301 -0.0104
  785loPI   C4B10874   3.746   2.206   7.818 -0.1357  0.3154  0.1247
  786loPI    C110875   4.272  12.335   5.424  0.1114  0.0338 -0.1575
  786loPI    C210876   4.622  12.227   5.263  0.2242  0.2350 -0.0510
  786loPI    C310877   4.436  12.558   5.135 -0.0856 -0.0375 -0.3273
  786loPI   PO410878   4.295  12.274   5.724  0.1833 -0.1336 -0.1722
  786loPI   GL110879   4.242  12.322   6.101  0.2972  0.2760 -0.1960
  786loPI   GL210880   4.458  12.180   6.280  0.1297  0.2631 -0.0120
  786loPI   C1A10881   4.034  12.496   6.492  0.0880  0.2442 -0.0018
  786loPI   C2A10882   3.925  12.337   6.953 -0.1593  0.0973 -0.1297
  786loPI   C3A10883   3.911  12.343   7.433  0.0831 -0.0186  0.1920
  786loPI   C4A10884   4.137  12.477   7.706 -0.0596  0.3249 -0.0121
  786loPI   C5A10885   4.266  12.798   8.034 -0.0380  0.0224 -0.2162
  786loPI   C6A10886   4.405  13.204   8.228  0.0183  0.0618  0.1411
  786loPI   C1B10887   4.291  12.102   6.674 -0.2399 -0.0211  0.3227
  786loPI   C2B10888   4.384  12.103   7.126  0.2121 -0.1792  0.1620
  786loPI   C3B10889   4.171  11.938   7.489 -0.4369 -0.0624  0.1481
  786loPI   C4B10890   4.253  11.898   7.868 -0.0641  0.0166 -0.2614
  787loPI    C110891  14.005   3.770   5.645  0.0073 -0.0801 -0.2790
  787loPI    C210892  13.671   3.985   5.688 -0.0470 -0.1884 -0.1490
  787loPI    C310893  13.675   3.668   5.444 -0.0072 -0.1231 -0.2338
  787loPI   PO410894  14.080   3.611   5.857 -0.3386 -0.2866  0.0540
  787loPI   GL110895  13.958   3.346   6.194  0.3677  0.1393 -0.0302
  787loPI   GL210896  13.793   3.278   6.437  0.1190  0.2179  0.2495
  787loPI   C1A10897  14.239   3.651   6.471  0.0543  0.2520  0.3277
  787loPI   C2A10898  14.345   3.769   6.892 -0.2753 -0.0866  0.0089
  787loPI   C3A10899  14.409   3.772   7.293  0.0827  0.0119 -0.3539
  787loPI   C4A10900  14.284   3.664   7.732 -0.0437 -0.0556 -0.0901
  787loPI   C5A10901  14.186   4.015   8.121 -0.0995  0.3209 -0.3395
  787loPI   C6A10902  14.065   4.419   8.198  0.0038 -0.0501 -0.1383
  787loPI   C1B10903  13.691   3.016   6.811 -0.2424  0.1030 -0.0510
  787loPI   C2B10904  13.577   3.127   7.218  0.0431  0.1824  0.1581
  787loPI   C3B10905  13.688   2.927   7.502  0.1086 -0.0250 -0.0720
  787loPI   C4B10906  13.770   2.515   7.646  0.2966 -0.2305 -0.0222
  788loPI    C110907  13.717  11.933   5.600 -0.0535 -0.0694 -0.0566
  788loPI    C210908  13.815  12.103   5.251  0.1750  0.0198  0.0489
  788loPI    C310909  13.430  12.042   5.343  0.1106  0.0606 -0.1869
  788loPI   PO410910  13.889  12.088   5.766  0.2752 -0.1173  0.1855
  788loPI   GL110911  13.783  12.238   6.084  0.0742  0.5627  0.1363
  788loPI   GL210912  14.146  12.151   6.204  0.4501 -0.1046 -0.0125
  788loPI   C1A10913  13.765  11.892   6.464 -0.0591  0.0338 -0.1625
  788loPI   C2A10914  13.882  11.913   6.799  0.2147  0.0268 -0.0289
  788loPI   C3A10915  13.949  11.954   7.265  0.2779  0.1691  0.1809
  788loPI   C4A10916  14.166  11.909   7.585  0.0861  0.0203 -0.1039
  788loPI   C5A10917  14.334  11.846   8.016 -0.2321 -0.0794  0.0840
  788loPI   C6A10918  14.628  11.504   8.077 -0.0988  0.1937  0.2846
  788loPI   C1B10919  14.133  12.311   6.584 -0.0163  0.2692 -0.2888
  788loPI   C2B10920  14.295  12.354   7.039 -0.2961  0.4765 -0.0161
  788loPI   C3B10921  14.418  12.268   7.394 -0.2867  0.0082 -0.1109
  788loPI   C4B10922  14.534  12.334   7.801  0.4974  0.0463 -0.0635
  789loPI    C110923  12.229   2.363   5.892  0.0438  0.0199 -0.0953
  789loPI    C210924  11.993   2.598   5.670 -0.2630 -0.1257  0.0702
  789loPI    C310925  11.843   2.271   5.845  0.0727 -0.2413  0.1508
  789loPI   PO410926  12.340   2.467   6.052  0.0028  0.0019  0.1019
  789loPI   GL110927  12.380   2.501   6.521  0.1962  0.0498  0.3217
  789loPI   GL210928  12.291   2.892   6.564  0.0244  0.0385  0.0487
  789loPI   C1A10929  12.351   2.555   6.889 -0.1617  0.2126 -0.0124
  789loPI   C2A10930  12.198   2.608   7.353 -0.0597  0.1081 -0.2483
  789loPI   C3A10931  12.079   2.397   7.694 -0.1742  0.1046 -0.0526
  789loPI   C4A10932  12.115   2.393   8.157 -0.2050  0.1888  0.0682
  789loPI   C5A10933  12.104   2.446   8.588 -0.0220 -0.0490  0.0332
  789loPI   C6A10934  11.939   2.866   8.846  0.1889  0.2219 -0.0729
  789loPI   C1B10935  12.263   3.022   7.038 -0.0067  0.2187  0.0938
  789loPI   C2B10936  12.167   3.160   7.511  0.0561  0.3114 -0.0335
  789loPI   C3B10937  12.286   2.844   7.876  0.0458 -0.1608 -0.1447
  789loPI   C4B10938  12.400   2.767   8.263  0.1692  0.0515  0.0388
  790loPI    C110939   2.595  13.994   5.698 -0.0047 -0.1138 -0.1380
  790loPI    C210940   2.761  13.724   5.942 -0.0855 -0.0557 -0.0174
  790loPI    C310941   2.696  13.634   5.557  0.0840 -0.1321 -0.0287
  790loPI   PO410942   2.419  14.139   5.918 -0.0472 -0.2043  0.0160
  790loPI   GL110943   2.455  14.077   6.344 -0.1808 -0.2841  0.0643
  790loPI   GL210944   2.518  14.449   6.429 -0.1150  0.1148  0.2202
  790loPI   C1A10945   2.445  13.768   6.787  0.0276  0.0263  0.1126
  790loPI   C2A10946   2.621  13.705   7.148 -0.1703  0.2720  0.0791
  790loPI   C3A10947   2.454  13.361   7.409  0.4033 -0.1999  0.3293
  790loPI   C4A10948   2.291  13.294   7.692  0.2135  0.0225 -0.1023
  790loPI   C5A10949   2.290  13.038   8.058  0.1721 -0.0229 -0.1135
  790loPI   C6A10950   2.642  12.675   8.066  0.3213  0.0420  0.2578
  790loPI   C1B10951   2.651  14.654   6.800 -0.0499 -0.1822 -0.1720
  790loPI   C2B10952   2.381  14.516   7.200  0.0241  0.2574  0.0879
  790loPI   C3B10953   2.068  14.473   7.526  0.0762  0.1024  0.0777
  790loPI   C4B10954   1.845  14.093   7.519 -0.0115  0.1491  0.1518
  791loPI    C110955  13.806   0.785   5.488  0.1663 -0.2252 -0.0781
  791loPI    C210956  13.731   0.392   5.503  0.2213 -0.2268  0.2151
  791loPI    C310957  13.997   0.555   5.754  0.0866  0.0228  0.1989
  791loPI   PO410958  13.522   0.908   5.547  0.2075 -0.1036 -0.0895
  791loPI   GL110959  13.468   1.000   5.998  0.2306  0.0234 -0.1299
  791loPI   GL210960  13.797   0.960   6.032 -0.1428 -0.1868 -0.0996
  791loPI   C1A10961  13.334   0.895   6.312 -0.1057  0.0614  0.0457
  791loPI   C2A10962  13.177   0.606   6.645 -0.2778  0.1224 -0.0053
  791loPI   C3A10963  13.225   0.633   7.133  0.4664  0.1228 -0.0868
  791loPI   C4A10964  13.388   0.795   7.540  0.1292  0.1251  0.1794
  791loPI   C5A10965  13.390   0.895   7.959 -0.3091 -0.1652  0.1012
  791loPI   C6A10966  13.523   1.289   8.094  0.0739  0.1388  0.0505
  791loPI   C1B10967  13.821   0.865   6.474 -0.1363 -0.2423  0.0814
  791loPI   C2B10968  13.609   0.852   6.866  0.2007  0.0615 -0.3486
  791loPI   C3B10969  13.499   1.149   7.115 -0.1898  0.0758  0.0536
  791loPI   C4B10970  13.361   1.385   7.613  0.1011 -0.0232 -0.1038
  792loPI    C110971   8.384  15.305   5.547  0.2436  0.2281  0.1596
  792loPI    C210972   8.617  15.297   5.222 -0.1334  0.1146 -0.1139
  792loPI    C310973   8.555  14.962   5.431 -0.2425  0.0907 -0.1833
  792loPI   PO410974   8.409  15.559   5.708  0.2832 -0.0488 -0.0329
  792loPI   GL110975   8.457  15.806   6.108 -0.0254  0.1537 -0.4500
  792loPI   GL210976   8.352  15.559   6.232 -0.1518 -0.1742 -0.0663
  792loPI   C1A10977   8.392  16.029   6.505  0.0973 -0.0726  0.4074
  792loPI   C2A10978   8.374  16.308   6.833  0.0275 -0.1766  0.0700
  792loPI   C3A10979   8.225  16.466   7.260  0.2567  0.1972 -0.1267
  792loPI   C4A10980   7.927  16.413   7.578 -0.2075 -0.0359  0.1717
  792loPI   C5A10981   7.833  16.582   7.879  0.0873 -0.1116 -0.1256
  792loPI   C6A10982   7.376  16.735   8.005  0.3355  0.1543  0.1346
  792loPI   C1B10983   8.459  15.431   6.679 -0.0155  0.0065 -0.1851
  792loPI   C2B10984   8.371  15.513   7.185 -0.1013 -0.0437  0.1020
  792loPI   C3B10985   8.288  15.498   7.624 -0.1334 -0.1154  0.3472
  792loPI   C4B10986   8.183  15.669   8.046 -0.0965 -0.3723 -0.6972
  793loPI    C110987   0.932  10.734   5.595 -0.0998  0.2961  0.1538
  793loPI    C210988   0.811  10.923   5.265  0.0747 -0.0145 -0.0938
  793loPI    C310989   0.710  10.541   5.324  0.1567  0.0003  0.1493
  793loPI   PO410990   0.966  10.825   5.776  0.2994  0.0388  0.0202
  793loPI   GL110991   0.849  10.842   6.129  0.2884 -0.0615  0.0491
  793loPI   GL210992   0.932  11.253   6.075  0.1880  0.1928  0.2816
  793loPI   C1A10993   1.082  10.964   6.468 -0.0963  0.0178 -0.1145
  793loPI   C2A10994   1.100  10.645   6.860 -0.1837  0.0028  0.1408
  793loPI   C3A10995   1.120  10.516   7.292 -0.0309 -0.5746 -0.0998
  793loPI   C4A10996   1.123  10.287   7.614 -0.1100 -0.1871 -0.0284
  793loPI   C5A10997   1.075  10.011   7.980  0.2477 -0.1059  0.6114
  793loPI   C6A10998   1.011   9.721   8.290  0.0222  0.0746  0.0190
  793loPI   C1B10999   0.935  11.436   6.537  0.2036  0.0340  0.1159
  793loPI   C2B11000   0.957  11.520   6.951 -0.1069 -0.0270  0.1030
  793loPI   C3B11001   1.261  11.668   7.194  0.1181 -0.2474  0.1349
  793loPI   C4B11002   1.396  11.908   7.544  0.0212 -0.1609 -0.0753
  794loPI    C111003  11.957   1.001   5.183 -0.0655  0.2313 -0.2446
  794loPI    C211004  11.801   0.761   4.904  0.0158  0.0149 -0.1065
  794loPI    C311005  12.166   0.916   4.853  0.1160 -0.1912 -0.0290
  794loPI   PO411006  11.935   0.835   5.474 -0.2221 -0.1451 -0.0428
  794loPI   GL111007  12.320   0.849   5.779  0.2072 -0.4132  0.1582
  794loPI   GL211008  12.080   0.754   6.040 -0.1206  0.0630 -0.1140
  794loPI   C1A11009  12.578   0.808   6.091  0.0502  0.3545 -0.3759
  794loPI   C2A11010  12.757   0.718   6.422  0.0249 -0.0568 -0.2746
  794loPI   C3A11011  12.711   0.489   6.759 -0.1010 -0.0616  0.3069
  794loPI   C4A11012  12.644   0.434   7.134 -0.3171 -0.0683  0.0780
  794loPI   C5A11013  12.814   0.437   7.504  0.2555 -0.1023 -0.1019
  794loPI   C6A11014  13.124   0.417   7.783 -0.2797  0.1122  0.0611
  794loPI   C1B11015  11.833   0.634   6.386 -0.0735  0.3400 -0.1700
  794loPI   C2B11016  11.838   0.836   6.773 -0.1773  0.0731  0.1309
  794loPI   C3B11017  11.804   0.937   7.229  0.0229 -0.2200 -0.2274
  794loPI   C4B11018  11.662   0.898   7.717 -0.0942  0.4459 -0.4449
  795loPI    C111019  16.056   3.593   5.803 -0.1490 -0.0883  0.2470
  795loPI    C211020  15.788   3.791   5.582  0.1314 -0.0150 -0.0346
  795loPI    C311021  15.953   3.455   5.442 -0.1552 -0.3177  0.3353
  795loPI   PO411022  15.957   3.512   6.017 -0.1192  0.1834 -0.0028
  795loPI   GL111023  15.734   3.549   6.419  0.4434 -0.2807  0.0820
  795loPI   GL211024  15.712   3.855   6.504 -0.1255 -0.2032  0.2212
  795loPI   C1A11025  15.580   3.348   6.807 -0.4895  0.1675 -0.0961
  795loPI   C2A11026  15.656   3.178   7.155 -0.3031 -0.0303  0.1665
  795loPI   C3A11027  15.616   3.114   7.444 -0.1810  0.1848  0.0815
  795loPI   C4A11028  15.718   3.000   7.905 -0.2589 -0.2448 -0.2510
  795loPI   C5A11029  15.942   2.852   8.284  0.1138 -0.2037  0.5222
  795loPI   C6A11030  16.342   2.638   8.598  0.3969 -0.0331 -0.1417
  795loPI   C1B11031  15.483   3.812   6.927 -0.0206 -0.1270 -0.0672
  795loPI   C2B11032  15.481   3.641   7.322 -0.0433  0.3183  0.0951
  795loPI   C3B11033  15.465   3.787   7.691 -0.0248 -0.1852 -0.0947
  795loPI   C4B11034  15.269   3.620   8.080 -0.0028 -0.0382  0.1411
  796loPI    C111035  16.941   0.037   5.215 -0.1224 -0.1040 -0.1430
  796loPI    C211036  16.619  -0.109   5.027 -0.0400 -0.0828 -0.3026
  796loPI    C311037  16.954  -0.034   4.822  0.1427 -0.3213 -0.0978
  796loPI   PO411038  16.780   0.109   5.490  0.2102  0.1424  0.2032
  796loPI   GL111039  16.732  -0.124   5.848  0.0908 -0.2452  0.1594
  796loPI   GL211040  16.525   0.119   6.022  0.1594  0.3146  0.1817
  796loPI   C1A11041  16.797  -0.249   6.248 -0.1006  0.1422  0.2229
  796loPI   C2A11042  16.846  -0.228   6.720  0.0015  0.2847 -0.1716
  796loPI   C3A11043  16.759  -0.562   7.065  0.1714  0.1310  0.0234
  796loPI   C4A11044  16.767  -0.725   7.526 -0.0820  0.1111  0.1788
  796loPI   C5A11045  16.664  -0.638   7.875 -0.0636  0.0641 -0.0562
  796loPI   C6A11046  16.851  -0.464   8.126 -0.1912 -0.2095  0.3839
  796loPI   C1B11047  16.518   0.179   6.384 -0.1122  0.0004  0.0072
  796loPI   C2B11048  16.563   0.197   6.793 -0.1899 -0.1320  0.1547
  796loPI   C3B11049  16.452   0.277   7.233 -0.3581 -0.0256 -0.0386
  796loPI   C4B11050  16.416   0.396   7.656  0.0052  0.0346 -0.0241
  797loPI    C111051  17.697  12.749   5.357 -0.0598 -0.1602  0.2350
  797loPI    C211052  17.935  12.486   5.542  0.2543  0.0198  0.0955
  797loPI    C311053  17.950  12.524   5.144 -0.0021  0.0422  0.0864
  797loPI   PO411054  17.640  13.027   5.530  0.0026 -0.0561  0.0167
  797loPI   GL111055  17.477  13.208   5.868  0.1031 -0.1246  0.2879
  797loPI   GL211056  17.275  12.873   5.858 -0.0252  0.2165  0.0914
  797loPI   C1A11057  17.479  13.435   6.165 -0.1698 -0.4230 -0.1484
  797loPI   C2A11058  17.337  13.530   6.587 -0.0930  0.0998  0.3565
  797loPI   C3A11059  16.976  13.488   6.931  0.0376  0.0229  0.2081
  797loPI   C4A11060  16.965  13.437   7.363 -0.1947  0.1025  0.1099
  797loPI   C5A11061  16.853  13.466   7.805 -0.1898 -0.2895 -0.0312
  797loPI   C6A11062  16.954  13.051   8.123  0.2514 -0.2849  0.2633
  797loPI   C1B11063  17.269  13.053   6.341  0.0464 -0.0615  0.0007
  797loPI   C2B11064  17.133  12.985   6.790 -0.2561 -0.1814 -0.0672
  797loPI   C3B11065  17.070  12.921   7.176  0.2399 -0.0561  0.3036
  797loPI   C4B11066  16.715  12.877   7.536  0.0143  0.0492 -0.1257
  798loPI    C111067   5.329   8.052   6.201  0.1749 -0.0113  0.1281
  798loPI    C211068   5.459   8.234   5.870  0.1647  0.0823  0.1752
  798loPI    C311069   5.721   8.088   6.134  0.1739  0.1751  0.2177
  798loPI   PO411070   5.080   8.239   6.294 -0.2854 -0.3195 -0.0280
  798loPI   GL111071   4.763   8.416   6.620 -0.0200 -0.0359  0.2024
  798loPI   GL211072   4.800   8.717   6.760  0.0188 -0.0196  0.0362
  798loPI   C1A11073   4.630   8.099   6.931  0.3564 -0.0098 -0.2365
  798loPI   C2A11074   4.601   7.862   7.338 -0.1473  0.3460 -0.0156
  798loPI   C3A11075   4.523   7.442   7.364  0.3946 -0.1521 -0.3695
  798loPI   C4A11076   4.323   7.176   7.686 -0.0295  0.1163 -0.0711
  798loPI   C5A11077   4.179   7.125   8.043 -0.0141  0.0788 -0.0713
  798loPI   C6A11078   3.877   6.910   8.295 -0.3000 -0.2995 -0.0510
  798loPI   C1B11079   4.663   8.711   7.137 -0.0166  0.1276 -0.0952
  798loPI   C2B11080   4.704   8.723   7.669  0.0237 -0.1237  0.2049
  798loPI   C3B11081   4.664   8.711   8.138 -0.2115 -0.1582 -0.2326
  798loPI   C4B11082   4.692   8.589   8.668 -0.1589 -0.1228 -0.1253
  799loPI    C111083  11.881  15.632   5.143 -0.1511 -0.2085 -0.1405
  799loPI    C211084  11.628  15.833   4.908 -0.0142  0.1095 -0.0214
  799loPI    C311085  12.021  15.854   4.841 -0.0070 -0.2635 -0.1146
  799loPI   PO411086  11.719  15.785   5.444 -0.0739 -0.2385  0.0804
  799loPI   GL111087  11.539  15.663   5.785  0.0452  0.1622  0.0165
  799loPI   GL211088  11.728  15.854   5.960  0.1178  0.0390  0.3685
  799loPI   C1A11089  11.865  15.422   6.150 -0.1097  0.0009  0.2270
  799loPI   C2A11090  11.928  15.100   6.505 -0.3086  0.0622  0.2128
  799loPI   C3A11091  12.004  14.982   6.966  0.0613  0.1379 -0.1798
  799loPI   C4A11092  12.131  15.093   7.343  0.1654 -0.1570 -0.3200
  799loPI   C5A11093  12.411  15.104   7.781  0.1699  0.1127  0.0078
  799loPI   C6A11094  12.625  14.695   8.136 -0.0306 -0.3408 -0.3773
  799loPI   C1B11095  11.634  16.044   6.243  0.1956  0.0335  0.0283
  799loPI   C2B11096  11.707  16.163   6.645 -0.1695  0.0456  0.2368
  799loPI   C3B11097  11.821  16.115   7.095 -0.2490 -0.0339 -0.0851
  799loPI   C4B11098  11.988  15.987   7.456 -0.1529  0.1902 -0.0018
  800loPI    C111099  11.118   1.897   5.763  0.1317 -0.1351  0.0723
  800loPI    C211100  11.399   2.131   5.599  0.2689 -0.3943 -0.0673
  800loPI    C311101  11.466   1.739   5.644 -0.0534 -0.4513 -0.0588
  800loPI   PO411102  10.983   2.049   5.952  0.2835  0.2556 -0.2997
  800loPI   GL111103  11.058   2.158   6.352  0.0463 -0.0481  0.0706
  800loPI   GL211104  10.898   2.377   6.397  0.0800  0.0452  0.2750
  800loPI   C1A11105  10.968   1.935   6.686 -0.1180 -0.0399  0.0056
  800loPI   C2A11106  10.992   1.683   7.030 -0.1434  0.1095 -0.6109
  800loPI   C3A11107  11.242   1.548   7.420  0.1460 -0.0096 -0.0296
  800loPI   C4A11108  11.655   1.451   7.490 -0.1361 -0.1945 -0.0186
  800loPI   C5A11109  12.029   1.252   7.666  0.0386  0.0542 -0.2213
  800loPI   C6A11110  12.331   0.967   7.548 -0.2106  0.3308 -0.2122
  800loPI   C1B11111  10.820   2.485   6.853 -0.0056 -0.1439  0.2169
  800loPI   C2B11112  11.012   2.269   7.021  0.0320 -0.1309 -0.0150
  800loPI   C3B11113  11.186   2.013   7.390  0.2356  0.0631  0.1327
  800loPI   C4B11114  11.405   1.879   7.756 -0.0530 -0.1181  0.0528
  801loPI    C111115  12.583  16.537   5.240  0.0629 -0.1799  0.0498
  801loPI    C211116  12.193  16.470   5.186  0.0419 -0.1163  0.1213
  801loPI    C311117  12.454  16.372   4.899 -0.0479  0.0356 -0.0138
  801loPI   PO411118  12.608  16.625   5.439 -0.2681  0.0217 -0.1475
  801loPI   GL111119  12.788  16.648   5.759 -0.1098 -0.2319 -0.1978
  801loPI   GL211120  13.088  16.586   5.837  0.1362 -0.0716  0.1266
  801loPI   C1A11121  12.692  16.412   6.136  0.1756  0.3083  0.1108
  801loPI   C2A11122  12.657  16.415   6.585  0.0388 -0.1184  0.0010
  801loPI   C3A11123  12.851  16.397   6.953 -0.0696  0.1692  0.1265
  801loPI   C4A11124  13.078  16.320   7.378  0.2996  0.1035 -0.3989
  801loPI   C5A11125  13.468  16.355   7.643  0.1648  0.0769 -0.1209
  801loPI   C6A11126  13.825  16.522   7.631 -0.1798  0.1307  0.2914
  801loPI   C1B11127  13.219  16.571   6.113  0.0688 -0.1201 -0.0427
  801loPI   C2B11128  13.242  16.513   6.536  0.0984  0.3019  0.1124
  801loPI   C3B11129  13.342  16.569   6.924 -0.0444  0.1761  0.1789
  801loPI   C4B11130  13.532  16.615   7.201 -0.1796 -0.0292  0.1960
  802loPI    C111131   6.602   1.802   5.785 -0.1914 -0.0700 -0.1024
  802loPI    C211132   6.756   1.515   5.552  0.2375 -0.0968  0.2020
  802loPI    C311133   6.877   1.894   5.509  0.1861 -0.0734  0.2626
  802loPI   PO411134   6.621   1.686   6.011 -0.1619 -0.0379  0.0959
  802loPI   GL111135   6.381   1.713   6.295  0.0991 -0.1641 -0.0397
  802loPI   GL211136   6.156   1.983   6.433  0.3383  0.0791 -0.0443
  802loPI   C1A11137   6.460   1.686   6.693  0.0471  0.1030  0.1060
  802loPI   C2A11138   6.458   1.679   7.165  0.0403  0.1769 -0.0763
  802loPI   C3A11139   6.345   1.791   7.545 -0.2589 -0.1438  0.1268
  802loPI   C4A11140   6.378   1.804   7.980  0.1638 -0.2261  0.0459
  802loPI   C5A11141   6.254   1.989   8.344 -0.0254 -0.2139  0.3413
  802loPI   C6A11142   5.944   1.809   8.662  0.0055  0.5099  0.1384
  802loPI   C1B11143   6.042   1.962   6.900  0.0434  0.2983 -0.2070
  802loPI   C2B11144   5.911   1.867   7.339 -0.0324  0.1144  0.1272
  802loPI   C3B11145   5.766   1.748   7.802 -0.2425 -0.2350  0.0535
  802loPI   C4B11146   5.754   1.811   8.223  0.1812 -0.0711 -0.0779
  803loPI    C111147   1.952   1.120   5.793 -0.0878 -0.0642 -0.0229
  803loPI    C211148   2.332   1.232   5.738 -0.0890 -0.0160  0.0645
  803loPI    C311149   2.096   1.162   5.423 -0.0086 -0.0429  0.0101
  803loPI   PO411150   2.043   0.947   6.050 -0.0174 -0.0688 -0.0535
  803loPI   GL111151   1.948   0.884   6.414 -0.3355 -0.1940 -0.0172
  803loPI   GL211152   2.157   0.705   6.514 -0.0654  0.1847  0.1195
  803loPI   C1A11153   2.165   1.215   6.692  0.1054 -0.2787 -0.2969
  803loPI   C2A11154   2.310   1.207   7.097 -0.1001  0.1277 -0.0778
  803loPI   C3A11155   2.199   1.250   7.610  0.0123 -0.1772  0.0668
  803loPI   C4A11156   2.116   1.440   7.862 -0.1726 -0.2923  0.1509
  803loPI   C5A11157   2.079   1.530   8.265  0.0435  0.2267  0.1424
  803loPI   C6A11158   1.836   1.236   8.506  0.1028  0.0383  0.0092
  803loPI   C1B11159   2.105   0.805   6.981  0.0929 -0.1435  0.0731
  803loPI   C2B11160   2.000   0.776   7.368  0.1420 -0.0566 -0.1071
  803loPI   C3B11161   1.834   0.991   7.741  0.0079 -0.1538  0.2305
  803loPI   C4B11162   1.658   1.155   8.029 -0.2134  0.0475  0.2231
  804loPI    C111163  14.492   5.590   5.702 -0.1820  0.1630 -0.0234
  804loPI    C211164  14.743   5.900   5.739  0.1681 -0.1140 -0.0247
  804loPI    C311165  14.708   5.711   5.388  0.0276 -0.1363  0.0008
  804loPI   PO411166  14.373   5.564   5.908 -0.2350 -0.0889 -0.0766
  804loPI   GL111167  14.460   5.371   6.268  0.4070 -0.1062  0.0127
  804loPI   GL211168  14.254   5.237   6.339  0.1198 -0.1387  0.0445
  804loPI   C1A11169  14.659   5.548   6.591  0.0657 -0.0148 -0.0988
  804loPI   C2A11170  14.752   5.679   6.863 -0.0080 -0.0769 -0.1086
  804loPI   C3A11171  14.752   5.636   7.255  0.0145  0.1532 -0.1200
  804loPI   C4A11172  14.782   5.702   7.690  0.1121 -0.0945 -0.1526
  804loPI   C5A11173  14.636   5.826   8.182  0.2284 -0.2555 -0.0931
  804loPI   C6A11174  14.284   5.913   8.344  0.0452  0.1923  0.1087
  804loPI   C1B11175  14.224   5.340   6.699 -0.0697  0.0464  0.3201
  804loPI   C2B11176  14.378   5.312   7.141  0.0397 -0.0584  0.6281
  804loPI   C3B11177  14.384   5.328   7.495 -0.0556 -0.1339  0.0667
  804loPI   C4B11178  14.255   5.004   7.866  0.2363 -0.1973 -0.0818
  805loPI    C111179   7.709   0.919   5.590 -0.0275 -0.2088  0.0507
  805loPI    C211180   7.927   0.825   5.268 -0.2604 -0.1551 -0.1247
  805loPI    C311181   7.648   0.571   5.403  0.1034 -0.3548  0.2744
  805loPI   PO411182   7.874   0.927   5.775 -0.0881  0.1240  0.0126
  805loPI   GL111183   7.959   1.003   6.175 -0.1418 -0.1523  0.2205
  805loPI   GL211184   7.666   0.840   6.231  0.1939 -0.0681 -0.1604
  805loPI   C1A11185   8.018   1.078   6.606 -0.1109 -0.2566 -0.0896
  805loPI   C2A11186   7.926   1.139   7.141 -0.2555  0.1381 -0.0231
  805loPI   C3A11187   7.905   1.217   7.548 -0.1383 -0.1157 -0.1945
  805loPI   C4A11188   7.753   1.103   7.935  0.0968 -0.1330 -0.1501
  805loPI   C5A11189   8.022   0.957   8.230  0.1937  0.0212 -0.2521
  805loPI   C6A11190   8.143   0.877   8.606  0.1432 -0.0966  0.0916
  805loPI   C1B11191   7.525   0.794   6.654 -0.1812  0.0268  0.0451
  805loPI   C2B11192   7.591   0.818   7.059 -0.2584 -0.0572  0.0046
  805loPI   C3B11193   7.584   0.871   7.483  0.0984 -0.2938 -0.3207
  805loPI   C4B11194   7.324   0.877   7.834  0.3678  0.2273  0.0596
  806loPI    C111195  12.434   3.489   5.765 -0.0495  0.0238  0.0006
  806loPI    C211196  12.420   3.398   5.376 -0.4255 -0.0358  0.0239
  806loPI    C311197  12.309   3.762   5.501 -0.0617  0.0690  0.0528
  806loPI   PO411198  12.297   3.416   5.893 -0.0481  0.4972  0.0847
  806loPI   GL111199  12.238   3.580   6.311  0.2705  0.1693 -0.1297
  806loPI   GL211200  12.535   3.706   6.329 -0.4291  0.1300  0.0438
  806loPI   C1A11201  12.106   3.351   6.642 -0.1634  0.2146 -0.3784
  806loPI   C2A11202  12.046   3.517   7.073  0.2268 -0.2366  0.0507
  806loPI   C3A11203  11.932   3.649   7.604 -0.2295 -0.0468 -0.5027
  806loPI   C4A11204  11.847   3.814   7.981 -0.0180 -0.0754  0.0011
  806loPI   C5A11205  11.807   4.119   8.275 -0.0467  0.0989  0.3124
  806loPI   C6A11206  11.773   4.532   8.594  0.0196 -0.3022 -0.0990
  806loPI   C1B11207  12.321   3.792   6.736  0.3018  0.1335 -0.1599
  806loPI   C2B11208  12.274   4.011   7.110 -0.0778 -0.1726 -0.2969
  806loPI   C3B11209  12.135   4.049   7.413  0.0273  0.2567  0.0457
  806loPI   C4B11210  12.306   4.244   7.839 -0.0556 -0.0305  0.0221
  807loPI    C111211   5.180   9.061   5.808 -0.1236 -0.0145 -0.0838
  807loPI    C211212   5.187   9.214   5.438 -0.0373  0.1090 -0.0320
  807loPI    C311213   5.272   8.827   5.496 -0.0026  0.1006 -0.1358
  807loPI   PO411214   5.243   9.310   5.979 -0.0836  0.2598  0.0454
  807loPI   GL111215   5.164   9.233   6.435  0.0459 -0.1827  0.0030
  807loPI   GL211216   5.517   9.402   6.620  0.1882  0.0153 -0.3990
  807loPI   C1A11217   5.130   9.175   6.893 -0.0185  0.3725  0.0114
  807loPI   C2A11218   5.026   9.180   7.253  0.0945  0.1389 -0.1319
  807loPI   C3A11219   4.881   9.174   7.641 -0.0140 -0.2953 -0.0025
  807loPI   C4A11220   4.974   9.066   7.993  0.3095  0.3008  0.1360
  807loPI   C5A11221   4.985   9.044   8.376  0.0118 -0.1895 -0.0215
  807loPI   C6A11222   5.170   9.332   8.645 -0.3546  0.2543  0.1501
  807loPI   C1B11223   5.623   9.496   7.020 -0.0620 -0.4333  0.0654
  807loPI   C2B11224   5.502   9.516   7.424  0.1587  0.1019  0.0670
  807loPI   C3B11225   5.302   9.385   7.786 -0.0473  0.0902  0.3208
  807loPI   C4B11226   5.498   9.270   8.248  0.1779 -0.1352 -0.1365
  808loPI    C111227   7.463   3.724   6.027 -0.0883 -0.0354 -0.0736
  808loPI    C211228   7.088   3.783   6.153 -0.1032 -0.1036 -0.0857
  808loPI    C311229   7.208   3.937   5.804 -0.1562 -0.1850 -0.1403
  808loPI   PO411230   7.605   3.730   6.262 -0.1147  0.0935  0.1671
  808loPI   GL111231   7.657   3.566   6.687  0.0364  0.2582  0.0683
  808loPI   GL211232   7.771   3.368   6.568  0.0822 -0.1088 -0.0140
  808loPI   C1A11233   7.672   3.698   7.117 -0.2119  0.2327  0.0978
  808loPI   C2A11234   7.459   3.684   7.491 -0.1947 -0.0381 -0.0169
  808loPI   C3A11235   7.697   3.802   7.889 -0.1000 -0.0450  0.2478
  808loPI   C4A11236   7.877   3.611   8.255  0.1167 -0.2197 -0.2919
  808loPI   C5A11237   7.907   3.201   8.394 -0.2318 -0.0540  0.0357
  808loPI   C6A11238   8.069   2.817   8.457 -0.0834 -0.1160 -0.0696
  808loPI   C1B11239   7.824   3.108   6.945 -0.0788 -0.1450 -0.1598
  808loPI   C2B11240   8.091   3.066   7.296 -0.4632 -0.0352 -0.0090
  808loPI   C3B11241   8.061   2.915   7.636  0.0383 -0.2902 -0.1863
  808loPI   C4B11242   7.907   2.916   7.940 -0.3636 -0.0758 -0.0322
  809loPI    C111243   1.443  10.732   5.449  0.2175 -0.2427  0.0115
  809loPI    C211244   1.467  10.920   5.097 -0.0634 -0.0161  0.1094
  809loPI    C311245   1.260  10.580   5.128  0.1075 -0.1299  0.0200
  809loPI   PO411246   1.621  10.699   5.544  0.0870 -0.2067  0.2849
  809loPI   GL111247   1.788  10.729   5.955 -0.1776 -0.2647 -0.0675
  809loPI   GL211248   1.977  10.575   6.063 -0.0674 -0.0711  0.0477
  809loPI   C1A11249   1.649  10.991   6.337 -0.0017  0.1113 -0.4717
  809loPI   C2A11250   1.851  11.156   6.644  0.3897 -0.2529 -0.0248
  809loPI   C3A11251   1.855  11.085   7.068 -0.1429  0.0221 -0.2349
  809loPI   C4A11252   1.934  11.067   7.523  0.0022 -0.1529  0.0338
  809loPI   C5A11253   1.892  10.887   7.954  0.0419 -0.0723  0.0234
  809loPI   C6A11254   1.752  10.973   8.250  0.2562 -0.2475  0.2144
  809loPI   C1B11255   2.058  10.598   6.450 -0.1662  0.0656  0.0017
  809loPI   C2B11256   2.070  10.637   6.902  0.0862  0.0232 -0.2005
  809loPI   C3B11257   2.002  10.639   7.336  0.0581  0.3375  0.0510
  809loPI   C4B11258   2.165  10.584   7.643  0.1556  0.0886 -0.0063
  810loPI    C111259  10.274  11.016   5.921 -0.0704  0.1356  0.1112
  810loPI    C211260   9.991  10.746   5.837  0.0182  0.0326  0.1412
  810loPI    C311261  10.246  10.864   5.552 -0.0227  0.0879  0.1271
  810loPI   PO411262  10.083  11.278   6.011  0.1110  0.1841  0.1468
  810loPI   GL111263   9.877  11.322   6.495 -0.2272 -0.3716  0.0250
  810loPI   GL211264   9.540  11.222   6.570 -0.4042  0.1350  0.0024
  810loPI   C1A11265   9.771  11.516   6.917 -0.0976 -0.0360  0.3425
  810loPI   C2A11266   9.704  11.596   7.316  0.0657 -0.2075  0.4854
  810loPI   C3A11267   9.884  11.535   7.624 -0.2316  0.0689 -0.1239
  810loPI   C4A11268   9.814  11.549   8.075 -0.1126 -0.1629 -0.1757
  810loPI   C5A11269   9.625  11.722   8.436 -0.1602 -0.2431  0.0192
  810loPI   C6A11270   9.431  12.145   8.433  0.0636  0.1826 -0.2807
  810loPI   C1B11271   9.628  11.055   7.026 -0.2894 -0.0109  0.0790
  810loPI   C2B11272   9.694  11.048   7.462  0.0793  0.2529 -0.1580
  810loPI   C3B11273   9.831  11.048   7.848 -0.0827  0.0084 -0.2015
  810loPI   C4B11274   9.566  10.995   8.293  0.0106 -0.1054 -0.0490
  811loPI    C111275   6.686   3.578   5.808  0.0135 -0.0733 -0.1248
  811loPI    C211276   6.710   3.968   5.894 -0.0924 -0.1075  0.0632
  811loPI    C311277   6.783   3.841   5.522  0.1824  0.0640  0.0558
  811loPI   PO411278   6.705   3.462   6.067 -0.1406 -0.3040 -0.0604
  811loPI   GL111279   6.573   3.377   6.521 -0.0635  0.0651  0.0215
  811loPI   GL211280   6.452   3.722   6.432 -0.1567 -0.0678 -0.1223
  811loPI   C1A11281   6.544   3.385   6.953 -0.0457  0.1281  0.1309
  811loPI   C2A11282   6.476   3.442   7.366  0.1323  0.2966  0.2244
  811loPI   C3A11283   6.550   3.446   7.822  0.0719 -0.0084  0.0523
  811loPI   C4A11284   6.802   3.628   8.205  0.2006  0.1835  0.1031
  811loPI   C5A11285   6.951   3.906   8.329 -0.0468  0.4902 -0.1016
  811loPI   C6A11286   7.129   3.969   8.714  0.1591  0.0631 -0.2713
  811loPI   C1B11287   6.477   3.851   6.825 -0.0637  0.1970  0.0939
  811loPI   C2B11288   6.547   3.903   7.212 -0.4159  0.0564  0.0348
  811loPI   C3B11289   6.579   3.962   7.585  0.0832 -0.4553  0.0983
  811loPI   C4B11290   6.631   4.071   7.981  0.0780  0.2037  0.3584
  812loPI    C111291   3.385  14.473   5.807 -0.1204 -0.1322 -0.1013
  812loPI    C211292   3.030  14.595   5.671 -0.0446 -0.0862 -0.2611
  812loPI    C311293   3.360  14.804   5.584  0.0104 -0.0747 -0.0319
  812loPI   PO411294   3.388  14.441   6.031 -0.0212  0.0494  0.2123
  812loPI   GL111295   3.499  14.349   6.371 -0.1141  0.0818 -0.0934
  812loPI   GL211296   3.623  14.197   6.584 -0.0908  0.1209  0.1453
  812loPI   C1A11297   3.201  14.595   6.656 -0.0432 -0.1781  0.2045
  812loPI   C2A11298   3.108  14.540   7.066 -0.3250 -0.0068  0.3144
  812loPI   C3A11299   2.852  14.625   7.268  0.4142  0.0502 -0.1566
  812loPI   C4A11300   2.554  14.524   7.642  0.3789 -0.1729 -0.2804
  812loPI   C5A11301   2.290  14.559   8.039  0.2407  0.1904  0.1649
  812loPI   C6A11302   2.296  14.331   8.457 -0.1986 -0.1277 -0.1916
  812loPI   C1B11303   3.469  14.242   7.018  0.4019  0.1078  0.1184
  812loPI   C2B11304   3.437  14.476   7.508  0.1679 -0.1493 -0.2775
  812loPI   C3B11305   3.053  14.571   7.710  0.0203 -0.0161 -0.1675
  812loPI   C4B11306   2.880  14.987   7.895  0.1045 -0.1334  0.1197
  813loPI    C111307   7.720  16.489   5.825 -0.1818 -0.0891  0.1001
  813loPI    C211308   7.614  16.111   5.749 -0.0355 -0.1193  0.0432
  813loPI    C311309   7.384  16.340   5.984 -0.2158 -0.1886 -0.0634
  813loPI   PO411310   8.008  16.481   5.817 -0.0121 -0.0350  0.0804
  813loPI   GL111311   8.252  16.407   6.165  0.1957  0.0864 -0.2667
  813loPI   GL211312   7.956  16.110   6.150 -0.0471  0.2909 -0.1687
  813loPI   C1A11313   8.259  16.653   6.529  0.0816  0.0255  0.0135
  813loPI   C2A11314   8.089  16.917   6.869  0.0374  0.4211  0.0041
  813loPI   C3A11315   7.983  16.909   7.376  0.1409 -0.1430  0.0392
  813loPI   C4A11316   7.840  17.066   7.762 -0.0209  0.0920  0.0256
  813loPI   C5A11317   7.815  17.076   8.226 -0.2508 -0.0945  0.1237
  813loPI   C6A11318   7.685  17.095   8.570 -0.0889  0.0914  0.0913
  813loPI   C1B11319   7.855  16.216   6.552 -0.2350 -0.0344 -0.1977
  813loPI   C2B11320   7.886  16.487   6.886 -0.4224 -0.1352 -0.2534
  813loPI   C3B11321   7.649  16.585   7.170  0.3895  0.1340 -0.0681
  813loPI   C4B11322   7.490  16.749   7.483  0.0962  0.0367  0.1294
  814loPI    C111323  16.753  14.602   4.569  0.0676  0.0194  0.0973
  814loPI    C211324  16.504  14.315   4.695 -0.1650  0.1480 -0.0599
  814loPI    C311325  16.567  14.366   4.304  0.0940  0.1319 -0.0221
  814loPI   PO411326  16.905  14.606   4.840 -0.0767  0.0761  0.0664
  814loPI   GL111327  16.984  14.679   5.279 -0.0594 -0.2945 -0.0520
  814loPI   GL211328  16.839  14.991   5.317  0.1401  0.0270  0.1129
  814loPI   C1A11329  17.021  14.783   5.739  0.1629 -0.1666  0.1864
  814loPI   C2A11330  16.886  14.973   6.105 -0.1276 -0.4018  0.0601
  814loPI   C3A11331  16.969  15.266   6.434 -0.2144  0.0123 -0.1676
  814loPI   C4A11332  16.877  15.381   6.892 -0.1428  0.0899 -0.0234
  814loPI   C5A11333  16.993  15.336   7.408  0.0064 -0.1891 -0.2400
  814loPI   C6A11334  17.028  15.740   7.803  0.0822 -0.3074 -0.2929
  814loPI   C1B11335  16.786  15.272   5.744 -0.1067  0.0083  0.0822
  814loPI   C2B11336  16.535  15.311   6.112 -0.0094  0.3209 -0.0999
  814loPI   C3B11337  16.348  15.258   6.501  0.2406  0.1359  0.1490
  814loPI   C4B11338  16.434  15.106   7.006 -0.0118  0.1786 -0.2128
  815loPI    C111339   0.033   5.551   5.755  0.1020 -0.1163  0.1039
  815loPI    C211340  -0.193   5.638   5.436 -0.1712 -0.1458  0.2862
  815loPI    C311341   0.164   5.465   5.387 -0.0985  0.0817 -0.0170
  815loPI   PO411342  -0.155   5.397   5.942 -0.0962 -0.2058 -0.2221
  815loPI   GL111343  -0.229   5.523   6.335 -0.0200 -0.1535 -0.1579
  815loPI   GL211344  -0.332   5.819   6.467  0.0048  0.2035  0.0829
  815loPI   C1A11345   0.046   5.579   6.599  0.0021  0.2045  0.0403
  815loPI   C2A11346   0.097   5.576   6.991  0.0460  0.3150  0.0040
  815loPI   C3A11347   0.068   5.605   7.413  0.1588 -0.0644  0.2158
  815loPI   C4A11348   0.075   5.387   7.726  0.1246 -0.0000  0.1163
  815loPI   C5A11349   0.025   5.600   8.176  0.0231  0.0659 -0.2834
  815loPI   C6A11350  -0.120   5.324   8.481 -0.2887  0.0224 -0.0393
  815loPI   C1B11351  -0.370   5.723   6.906 -0.1953 -0.1707  0.1014
  815loPI   C2B11352  -0.401   5.793   7.428 -0.0079 -0.1794  0.0553
  815loPI   C3B11353  -0.321   5.911   7.833  0.5974 -0.0844 -0.1548
  815loPI   C4B11354  -0.338   6.077   8.297  0.0642  0.3306  0.2280
  816loPI    C111355  11.169   5.952   5.658 -0.1149 -0.4379  0.0224
  816loPI    C211356  11.503   6.141   5.545 -0.3920  0.1184  0.0988
  816loPI    C311357  11.361   5.838   5.326  0.2415 -0.2366  0.1540
  816loPI   PO411358  11.226   5.913   5.922 -0.1878  0.2134 -0.0494
  816loPI   GL111359  11.168   6.182   6.222 -0.0104  0.1336 -0.0932
  816loPI   GL211360  11.474   6.171   6.347  0.0724 -0.1418 -0.3015
  816loPI   C1A11361  10.876   6.259   6.555  0.1728 -0.0357 -0.1817
  816loPI   C2A11362  10.857   6.368   6.995 -0.2078  0.2475 -0.1008
  816loPI   C3A11363  11.104   6.560   7.319  0.0422  0.2742  0.0496
  816loPI   C4A11364  11.188   6.432   7.682 -0.0568 -0.3711  0.0471
  816loPI   C5A11365  11.552   6.315   7.931  0.0562 -0.0820  0.0958
  816loPI   C6A11366  11.577   6.509   8.289 -0.0134 -0.2850  0.1896
  816loPI   C1B11367  11.729   6.184   6.754  0.1286  0.1860 -0.0921
  816loPI   C2B11368  11.718   6.257   7.191 -0.1611  0.2268  0.0989
  816loPI   C3B11369  11.606   6.553   7.366 -0.0842  0.0181 -0.1050
  816loPI   C4B11370  11.555   6.810   7.703 -0.0368 -0.1954 -0.4055
  817loPI    C111371   5.766   9.336   5.933 -0.0384 -0.0718  0.1316
  817loPI    C211372   6.080   9.124   5.807 -0.1338  0.0384 -0.3080
  817loPI    C311373   5.710   8.988   5.744 -0.1836  0.0574 -0.0664
  817loPI   PO411374   5.768   9.346   6.095  0.0253  0.0925 -0.2749
  817loPI   GL111375   5.990   9.314   6.440  0.3137  0.0986  0.0808
  817loPI   GL211376   5.914   9.651   6.501 -0.0289 -0.1874 -0.0763
  817loPI   C1A11377   5.987   9.218   6.851 -0.1277 -0.1108  0.1101
  817loPI   C2A11378   6.009   9.282   7.277 -0.0662 -0.1397  0.0708
  817loPI   C3A11379   5.952   9.513   7.696  0.2575 -0.0547 -0.0537
  817loPI   C4A11380   5.943   9.350   8.091  0.1182  0.0220  0.1247
  817loPI   C5A11381   6.094   9.250   8.529  0.1396  0.0622 -0.1382
  817loPI   C6A11382   6.030   8.946   8.841 -0.0894 -0.0930 -0.0993
  817loPI   C1B11383   6.081   9.722   6.951 -0.1674  0.0365 -0.0490
  817loPI   C2B11384   6.289   9.668   7.312 -0.1514 -0.0342 -0.1825
  817loPI   C3B11385   6.435   9.642   7.794  0.0114  0.0667 -0.0415
  817loPI   C4B11386   6.437   9.563   8.333 -0.1344  0.2501 -0.2793
  818loPI    C111387  16.442   3.302   5.881 -0.0998 -0.0802  0.0162
  818loPI    C211388  16.490   2.912   5.807  0.0076 -0.0775  0.0686
  818loPI    C311389  16.354   3.155   5.520 -0.2406 -0.1851  0.0920
  818loPI   PO411390  16.689   3.403   6.024  0.2897  0.0117 -0.1633
  818loPI   GL111391  16.676   3.192   6.430  0.2151 -0.0809  0.3372
  818loPI   GL211392  16.296   3.046   6.305 -0.0911 -0.0306 -0.2713
  818loPI   C1A11393  16.591   3.080   6.735 -0.3970  0.0405 -0.1278
  818loPI   C2A11394  16.212   3.043   7.077 -0.3481 -0.1004  0.3634
  818loPI   C3A11395  16.090   3.028   7.526 -0.0644  0.1879  0.0875
  818loPI   C4A11396  16.126   3.274   7.898 -0.2212  0.1949 -0.5081
  818loPI   C5A11397  16.245   3.404   8.292 -0.1437 -0.1978 -0.1595
  818loPI   C6A11398  16.286   3.629   8.777 -0.0041  0.0150 -0.1694
  818loPI   C1B11399  16.074   3.299   6.671 -0.0247  0.0672 -0.0006
  818loPI   C2B11400  16.027   3.475   7.087 -0.1236 -0.2583  0.0488
  818loPI   C3B11401  15.924   3.544   7.533 -0.1710 -0.0054 -0.0290
  818loPI   C4B11402  15.821   3.683   8.013  0.2086 -0.0816  0.0480
  819loPI    C111403   3.623   6.028   5.763 -0.2024  0.1488  0.3152
  819loPI    C211404   3.943   6.226   5.627 -0.0508  0.0559  0.5306
  819loPI    C311405   3.589   6.270   5.446  0.2609 -0.5353 -0.2899
  819loPI   PO411406   3.576   6.088   6.014  0.4300 -0.0017 -0.3143
  819loPI   GL111407   3.428   6.111   6.434  0.2103 -0.0943 -0.0652
  819loPI   GL211408   3.140   6.205   6.400  0.2724 -0.0593 -0.1802
  819loPI   C1A11409   3.398   6.062   6.808  0.2429 -0.0544 -0.0593
  819loPI   C2A11410   3.462   6.194   7.156 -0.2952 -0.1388  0.1106
  819loPI   C3A11411   3.580   6.311   7.539  0.0705 -0.1519  0.0515
  819loPI   C4A11412   3.647   6.318   7.998 -0.1139 -0.2651  0.0178
  819loPI   C5A11413   4.074   6.219   8.381  0.3157  0.2671  0.0929
  819loPI   C6A11414   4.509   6.127   8.402 -0.1219 -0.2078  0.2660
  819loPI   C1B11415   2.974   6.235   6.796 -0.0108 -0.0025 -0.4918
  819loPI   C2B11416   3.001   6.146   7.271 -0.0651 -0.1059 -0.2045
  819loPI   C3B11417   2.969   6.080   7.687  0.3244  0.3770  0.1564
  819loPI   C4B11418   2.869   6.120   8.151  0.0031  0.0286 -0.0606
  820loPI    C111419   0.583   3.280   5.786 -0.0336  0.1002 -0.0351
  820loPI    C211420   0.358   3.480   5.522  0.0266  0.0366 -0.1353
  820loPI    C311421   0.756   3.525   5.522  0.0355 -0.0401 -0.1215
  820loPI   PO411422   0.488   3.315   6.021 -0.3694  0.1929  0.0179
  820loPI   GL111423   0.296   3.139   6.390 -0.2394 -0.0149 -0.1373
  820loPI   GL211424   0.054   3.487   6.382  0.2646 -0.3010  0.2538
  820loPI   C1A11425   0.383   3.115   6.784  0.1332 -0.2313 -0.2283
  820loPI   C2A11426   0.283   3.114   7.154 -0.0704  0.0328  0.0381
  820loPI   C3A11427   0.548   3.125   7.503 -0.3684 -0.1104  0.1583
  820loPI   C4A11428   0.665   3.033   7.911 -0.0151 -0.0715  0.0947
  820loPI   C5A11429   0.510   2.877   8.420 -0.0001  0.1356  0.0627
  820loPI   C6A11430   0.214   2.877   8.761 -0.0039  0.1233 -0.1158
  820loPI   C1B11431   0.072   3.474   6.829 -0.1598 -0.0636 -0.1997
  820loPI   C2B11432   0.035   3.661   7.255  0.2019  0.0792  0.2799
  820loPI   C3B11433   0.173   3.404   7.655 -0.0587  0.0119 -0.2023
  820loPI   C4B11434   0.146   3.032   7.898 -0.0022 -0.0266  0.0116
  821loPI    C111435   3.938   5.075   6.025 -0.1166  0.0727  0.0675
  821loPI    C211436   4.265   4.875   5.908 -0.1360  0.0076  0.1239
  821loPI    C311437   4.154   5.208   5.716  0.1360  0.2012  0.2953
  821loPI   PO411438   4.008   4.888   6.339  0.1025 -0.0791  0.2086
  821loPI   GL111439   4.001   4.826   6.824  0.1543  0.0578  0.3570
  821loPI   GL211440   4.393   4.748   6.737 -0.0456 -0.1252 -0.0837
  821loPI   C1A11441   3.752   4.741   7.277  0.3005  0.1712 -0.2266
  821loPI   C2A11442   3.720   4.682   7.664  0.0532  0.1241 -0.1544
  821loPI   C3A11443   3.587   4.878   8.012 -0.2099 -0.0217  0.1191
  821loPI   C4A11444   3.408   5.018   8.319 -0.0412 -0.2250 -0.2812
  821loPI   C5A11445   3.249   5.395   8.352 -0.1426  0.2487 -0.0320
  821loPI   C6A11446   2.739   5.628   8.353  0.5829  0.0983  0.2411
  821loPI   C1B11447   4.304   4.660   7.106 -0.0543 -0.2563 -0.0261
  821loPI   C2B11448   4.161   4.800   7.518  0.0820 -0.1384  0.2787
  821loPI   C3B11449   4.229   4.833   7.942 -0.1371 -0.0901  0.1532
  821loPI   C4B11450   4.351   4.832   8.404 -0.0035 -0.5525 -0.1959
  822loPI    C111451  10.891   8.369   5.861 -0.1152  0.2548  0.0167
  822loPI    C211452  10.611   8.347   5.577  0.1146  0.1090 -0.2024
  822loPI    C311453  10.868   8.653   5.580  0.0003  0.2047 -0.0439
  822loPI   PO411454  10.774   8.336   6.108  0.0180  0.3168  0.4527
  822loPI   GL111455  10.930   8.229   6.561 -0.0420  0.2166 -0.1978
  822loPI   GL211456  11.143   8.081   6.472  0.0262 -0.3447  0.2117
  822loPI   C1A11457  11.105   8.099   6.958 -0.1078  0.3303 -0.0350
  822loPI   C2A11458  11.032   8.033   7.424 -0.0696  0.1797  0.2945
  822loPI   C3A11459  10.783   8.295   7.612 -0.2142 -0.0127  0.1405
  822loPI   C4A11460  10.564   8.572   7.690 -0.0089  0.0847 -0.1034
  822loPI   C5A11461  10.289   8.724   7.402 -0.2934 -0.0738 -0.2043
  822loPI   C6A11462  10.352   8.730   6.905  0.0126  0.1163 -0.3479
  822loPI   C1B11463  11.458   7.820   6.734 -0.0119 -0.1272  0.0776
  822loPI   C2B11464  11.552   7.457   6.985 -0.1870  0.0933  0.0342
  822loPI   C3B11465  11.274   7.011   6.812  0.2410 -0.1402 -0.3092
  822loPI   C4B11466  11.382   6.521   6.874 -0.1631 -0.2151  0.0887
  823loPI    C111467   3.537  13.194   5.684  0.0829  0.1085  0.0091
  823loPI    C211468   3.852  12.971   5.789 -0.1013 -0.0974  0.1339
  823loPI    C311469   3.847  13.155   5.434  0.1093 -0.1859  0.0833
  823loPI   PO411470   3.397  13.153   5.928 -0.1587 -0.0750  0.0722
  823loPI   GL111471   3.039  12.897   6.157 -0.1392 -0.0145 -0.2016
  823loPI   GL211472   2.777  12.723   6.292  0.0824 -0.2139 -0.1577
  823loPI   C1A11473   3.167  13.113   6.518 -0.2522 -0.1565  0.3048
  823loPI   C2A11474   3.340  13.369   6.765 -0.2967  0.0897 -0.3033
  823loPI   C3A11475   3.529  13.588   7.062 -0.1842 -0.1775 -0.0167
  823loPI   C4A11476   3.667  13.882   7.336  0.0061  0.1167  0.2489
  823loPI   C5A11477   3.908  13.870   7.654 -0.2522 -0.0101 -0.0136
  823loPI   C6A11478   3.828  13.651   8.015 -0.1204 -0.2100  0.3409
  823loPI   C1B11479   2.932  12.701   6.741 -0.1447  0.0080 -0.0189
  823loPI   C2B11480   3.254  12.872   6.983  0.2080 -0.0517 -0.1381
  823loPI   C3B11481   3.635  13.074   7.182  0.0040 -0.1283 -0.2334
  823loPI   C4B11482   3.931  12.830   7.341 -0.1566  0.0118 -0.3416
  824loPI    C111483   9.062  12.675   5.796  0.0667 -0.1244  0.0356
  824loPI    C211484   8.922  12.852   5.466  0.1835  0.0071  0.0556
  824loPI    C311485   8.842  12.466   5.535 -0.1280  0.0663  0.0436
  824loPI   PO411486   9.040  12.896   5.966  0.2412 -0.0342  0.3422
  824loPI   GL111487   9.119  12.746   6.381  0.3479 -0.0852 -0.0146
  824loPI   GL211488   8.929  12.611   6.451 -0.0490 -0.1046 -0.1104
  824loPI   C1A11489   9.240  12.928   6.822  0.2117 -0.0595 -0.1805
  824loPI   C2A11490   9.266  12.853   7.259  0.2502  0.1446  0.0628
  824loPI   C3A11491   9.172  12.735   7.710  0.0965  0.0771 -0.0611
  824loPI   C4A11492   9.039  12.986   8.035  0.1370 -0.0194 -0.1491
  824loPI   C5A11493   9.314  13.112   8.410 -0.0286 -0.0715  0.2181
  824loPI   C6A11494   9.527  13.305   8.730  0.3771 -0.0916  0.1985
  824loPI   C1B11495   8.783  12.699   6.845  0.0992 -0.1037  0.1835
  824loPI   C2B11496   8.832  12.625   7.333  0.1379  0.3097  0.0089
  824loPI   C3B11497   8.924  12.301   7.492 -0.0353  0.2118 -0.2951
  824loPI   C4B11498   8.776  12.105   7.873 -0.2973 -0.0268 -0.1445
  825loPI    C111499  10.330  15.111   5.898  0.0271 -0.0450  0.1248
  825loPI    C211500  10.683  15.079   5.713 -0.0229  0.0881  0.0039
  825loPI    C311501  10.357  14.916   5.550 -0.0313  0.0313  0.0770
  825loPI   PO411502  10.408  15.039   6.132 -0.0272  0.0317  0.1130
  825loPI   GL111503  10.320  15.002   6.646  0.2387 -0.0143 -0.0174
  825loPI   GL211504  10.632  15.129   6.831  0.2986 -0.0711  0.0491
  825loPI   C1A11505  10.177  14.908   7.058  0.1755  0.1498  0.0099
  825loPI   C2A11506  10.172  14.951   7.427  0.0548  0.1542 -0.1761
  825loPI   C3A11507  10.134  15.217   7.749  0.0045  0.0699  0.0750
  825loPI   C4A11508   9.857  15.434   8.091  0.1400  0.0431  0.1145
  825loPI   C5A11509   9.719  15.853   8.175  0.3501  0.0150 -0.0728
  825loPI   C6A11510   9.831  16.128   8.441  0.0144 -0.2853 -0.2942
  825loPI   C1B11511  10.675  15.224   7.215  0.0040  0.0069 -0.0010
  825loPI   C2B11512  10.649  15.118   7.734  0.1676  0.0187  0.0777
  825loPI   C3B11513  10.925  15.288   8.041 -0.0573  0.0636 -0.3170
  825loPI   C4B11514  11.135  15.333   8.346  0.1048  0.0608  0.0221
  826loPI    C111515   4.901   3.387   5.661  0.1566 -0.0460 -0.0482
  826loPI    C211516   4.670   3.675   5.508 -0.0416 -0.0650  0.2080
  826loPI    C311517   5.061   3.740   5.561 -0.0171  0.0284 -0.0673
  826loPI   PO411518   4.669   3.317   5.870 -0.0298 -0.3071  0.0970
  826loPI   GL111519   4.741   3.202   6.259 -0.0463  0.0446  0.0447
  826loPI   GL211520   4.885   2.967   6.229 -0.1644 -0.2629  0.1181
  826loPI   C1A11521   4.734   3.324   6.701  0.0253  0.0490 -0.2442
  826loPI   C2A11522   4.587   3.392   7.154 -0.1350 -0.2300 -0.0718
  826loPI   C3A11523   4.592   3.374   7.516  0.0681  0.3822 -0.2310
  826loPI   C4A11524   4.513   3.434   7.973 -0.0594 -0.1493 -0.1902
  826loPI   C5A11525   4.145   3.518   8.271 -0.3201 -0.1199  0.0176
  826loPI   C6A11526   3.767   3.478   8.578 -0.2136 -0.2378  0.3220
  826loPI   C1B11527   4.780   2.858   6.653 -0.0921  0.0294  0.1242
  826loPI   C2B11528   4.811   2.681   7.064  0.0218 -0.2159  0.0926
  826loPI   C3B11529   4.889   2.648   7.490  0.4553  0.1732  0.0176
  826loPI   C4B11530   4.846   2.971   7.771  0.1492 -0.0743 -0.0881
  827loPI    C111531   5.140  13.538   6.040  0.1261 -0.2402 -0.0233
  827loPI    C211532   4.997  13.484   5.671 -0.0147  0.0880 -0.0201
  827loPI    C311533   5.278  13.761   5.738  0.2126 -0.1607  0.0738
  827loPI   PO411534   5.066  13.249   6.165 -0.0476 -0.1347 -0.4163
  827loPI   GL111535   4.811  13.199   6.531  0.1665  0.1625 -0.1116
  827loPI   GL211536   4.613  13.003   6.325 -0.3280 -0.0233 -0.2949
  827loPI   C1A11537   4.794  12.985   6.880 -0.1007 -0.0114 -0.1295
  827loPI   C2A11538   4.914  12.780   7.299  0.1005 -0.1354 -0.0156
  827loPI   C3A11539   5.144  12.604   7.681 -0.1107  0.0914 -0.1386
  827loPI   C4A11540   5.088  12.285   7.986 -0.1188  0.3263 -0.0575
  827loPI   C5A11541   5.295  12.011   8.238  0.0458  0.0404  0.0817
  827loPI   C6A11542   5.460  12.111   8.641  0.3741 -0.1324 -0.0600
  827loPI   C1B11543   4.516  12.615   6.524 -0.1507 -0.2499 -0.0389
  827loPI   C2B11544   4.768  12.403   6.957 -0.0492  0.0356 -0.0805
  827loPI   C3B11545   4.649  12.362   7.456  0.0123  0.0255  0.1264
  827loPI   C4B11546   4.527  12.298   7.873  0.1543  0.1859 -0.0647
  828loPI    C111547   7.257   9.886   5.744 -0.0691 -0.1046 -0.0586
  828loPI    C211548   7.605  10.083   5.735  0.0073 -0.2349  0.0202
  828loPI    C311549   7.476   9.890   5.409 -0.0220 -0.1342 -0.0282
  828loPI   PO411550   7.270   9.848   6.004 -0.2302 -0.0118  0.2523
  828loPI   GL111551   7.253   9.590   6.416  0.3012 -0.0952  0.1340
  828loPI   GL211552   7.439   9.414   6.401 -0.0655  0.1653 -0.1347
  828loPI   C1A11553   7.089   9.509   6.763  0.0467 -0.0650 -0.5214
  828loPI   C2A11554   7.260   9.468   7.216 -0.1256  0.1242  0.0076
  828loPI   C3A11555   7.189   9.376   7.671  0.1279 -0.0441 -0.1377
  828loPI   C4A11556   7.003   9.415   8.079 -0.1074  0.1839 -0.0402
  828loPI   C5A11557   7.114   9.856   8.286 -0.1141 -0.0726 -0.2517
  828loPI   C6A11558   7.417  10.167   8.180  0.0610  0.1322  0.2812
  828loPI   C1B11559   7.555   9.213   6.829 -0.1791  0.2175  0.1959
  828loPI   C2B11560   7.537   9.079   7.309 -0.0953  0.2469 -0.0187
  828loPI   C3B11561   7.644   9.234   7.648  0.0650  0.1483  0.1787
  828loPI   C4B11562   7.623   9.226   8.031 -0.0677 -0.1572  0.0380
  829loPI    C111563  11.706  12.823   5.996  0.0917 -0.0544  0.0705
  829loPI    C211564  11.680  12.595   5.668  0.0902 -0.0035  0.0352
  829loPI    C311565  11.460  12.928   5.699 -0.1311 -0.1625  0.2135
  829loPI   PO411566  11.864  12.866   6.078 -0.1991  0.1131  0.1538
  829loPI   GL111567  12.142  12.642   6.247 -0.0754 -0.0169  0.0044
  829loPI   GL211568  12.355  12.629   6.391  0.1658 -0.2020  0.2532
  829loPI   C1A11569  12.178  13.035   6.620  0.1584 -0.0374  0.2235
  829loPI   C2A11570  12.227  13.027   7.101 -0.0917  0.1335 -0.3316
  829loPI   C3A11571  12.367  13.150   7.544  0.0422 -0.2606  0.0509
  829loPI   C4A11572  12.587  13.292   7.945  0.0221  0.0862  0.2976
  829loPI   C5A11573  12.797  13.651   8.060  0.1996 -0.1794  0.1536
  829loPI   C6A11574  12.843  13.809   8.456  0.3584  0.0559 -0.1301
  829loPI   C1B11575  12.542  12.671   6.867  0.1214  0.1360 -0.1316
  829loPI   C2B11576  12.653  12.722   7.253  0.0629 -0.2079 -0.2911
  829loPI   C3B11577  12.815  12.927   7.710  0.0408  0.0924  0.0074
  829loPI   C4B11578  12.832  12.893   8.157  0.0983 -0.1752  0.1249
  830loPI    C111579   4.648   4.098   6.284  0.1809 -0.0347  0.1157
  830loPI    C211580   4.412   4.090   5.961  0.0320 -0.0084  0.2231
  830loPI    C311581   4.708   3.824   5.999  0.1424  0.0793 -0.0034
  830loPI   PO411582   4.433   4.104   6.485  0.1205 -0.1970 -0.3215
  830loPI   GL111583   4.583   3.880   6.820  0.1528 -0.0346  0.1134
  830loPI   GL211584   4.235   3.860   6.873  0.2419 -0.0282  0.0150
  830loPI   C1A11585   4.460   4.184   7.165 -0.3468 -0.1418  0.0004
  830loPI   C2A11586   4.478   4.365   7.592  0.4351 -0.0708  0.0236
  830loPI   C3A11587   4.462   4.427   8.087 -0.0488 -0.3017  0.2714
  830loPI   C4A11588   4.289   4.319   8.368  0.2033 -0.1250  0.0388
  830loPI   C5A11589   3.960   4.027   8.567 -0.0261 -0.2069  0.0764
  830loPI   C6A11590   3.804   3.987   8.848 -0.0545  0.1079  0.0957
  830loPI   C1B11591   4.256   3.777   7.273 -0.0823  0.3091  0.2607
  830loPI   C2B11592   4.298   3.740   7.648  0.0009  0.0405  0.1832
  830loPI   C3B11593   4.275   3.976   8.045 -0.1195 -0.1666  0.0860
  830loPI   C4B11594   4.482   3.869   8.520 -0.1183  0.1546 -0.1988
  831loPI    C111595   0.119   2.291   5.940 -0.0521 -0.1082  0.0636
  831loPI    C211596   0.269   2.303   5.570 -0.0588  0.2995  0.0692
  831loPI    C311597   0.004   2.021   5.669  0.3404 -0.1414 -0.0771
  831loPI   PO411598   0.322   2.395   6.113 -0.0730 -0.3455  0.1415
  831loPI   GL111599   0.235   2.668   6.446  0.0951  0.0413 -0.1630
  831loPI   GL211600  -0.111   2.391   6.392 -0.3172 -0.0042 -0.1066
  831loPI   C1A11601   0.108   2.704   6.872 -0.0311  0.1630 -0.1697
  831loPI   C2A11602  -0.010   2.760   7.402 -0.1469 -0.1495  0.2324
  831loPI   C3A11603  -0.093   2.582   7.808 -0.0879 -0.0397  0.1236
  831loPI   C4A11604  -0.083   2.694   8.192 -0.1855 -0.1182 -0.3507
  831loPI   C5A11605  -0.117   2.974   8.416 -0.0401 -0.4854  0.0484
  831loPI   C6A11606  -0.593   3.120   8.474  0.0099 -0.0097  0.2352
  831loPI   C1B11607  -0.395   2.600   6.675  0.2053  0.1379 -0.0462
  831loPI   C2B11608  -0.420   2.662   7.120  0.4674  0.0477 -0.1467
  831loPI   C3B11609  -0.609   2.706   7.567 -0.0885 -0.0954  0.3571
  831loPI   C4B11610  -0.628   2.598   7.945  0.2681  0.0026  0.3029
  832loPI    C111611  14.773  11.441   5.635 -0.0169  0.0692  0.1570
  832loPI    C211612  14.491  11.478   5.354  0.0938  0.1729  0.0587
  832loPI    C311613  14.823  11.270   5.277  0.0504  0.0618  0.1700
  832loPI   PO411614  14.655  11.375   5.811 -0.2382  0.2034  0.0179
  832loPI   GL111615  14.749  11.518   6.174 -0.1382  0.1513 -0.2659
  832loPI   GL211616  14.843  11.207   6.215 -0.2177  0.0162 -0.2486
  832loPI   C1A11617  14.770  11.585   6.593 -0.0526 -0.1513 -0.0786
  832loPI   C2A11618  14.906  11.662   6.947  0.2800 -0.1761 -0.0135
  832loPI   C3A11619  15.121  11.706   7.284  0.0006 -0.0661 -0.1905
  832loPI   C4A11620  15.249  11.723   7.722  0.0783  0.0678 -0.1624
  832loPI   C5A11621  15.160  11.514   8.161 -0.1382 -0.2587  0.1371
  832loPI   C6A11622  15.021  11.113   8.203  0.0608  0.3504  0.1163
  832loPI   C1B11623  14.962  11.124   6.603 -0.2305  0.0915  0.1487
  832loPI   C2B11624  15.124  11.147   6.948  0.1156  0.2135 -0.1216
  832loPI   C3B11625  15.283  11.224   7.389  0.0385  0.1099  0.1574
  832loPI   C4B11626  15.388  11.222   7.823  0.4531  0.2923  0.1856
  833loPI    C111627   2.828  13.210   5.803  0.1496  0.0831  0.0552
  833loPI    C211628   2.722  13.041   5.456 -0.0680  0.2634  0.0315
  833loPI    C311629   3.104  13.137   5.523  0.0439 -0.1462  0.0078
  833loPI   PO411630   2.671  13.242   5.986  0.1295  0.0393 -0.5808
  833loPI   GL111631   2.590  13.174   6.317 -0.0945  0.0812  0.0201
  833loPI   GL211632   2.577  13.546   6.377 -0.1779  0.0966  0.0823
  833loPI   C1A11633   2.581  13.058   6.726  0.1195  0.0722  0.1689
  833loPI   C2A11634   2.661  12.918   7.114 -0.3361 -0.0439  0.1174
  833loPI   C3A11635   2.953  12.638   7.288 -0.1292 -0.0821  0.0680
  833loPI   C4A11636   2.977  12.579   7.686 -0.0491  0.0418 -0.0865
  833loPI   C5A11637   2.785  12.179   7.880 -0.0996 -0.1081 -0.2234
  833loPI   C6A11638   2.810  11.894   8.197 -0.1860  0.0986 -0.2839
  833loPI   C1B11639   2.861  13.504   6.746  0.1371 -0.0500 -0.1529
  833loPI   C2B11640   2.935  13.348   7.140  0.0967 -0.1489 -0.0987
  833loPI   C3B11641   3.240  13.269   7.387  0.0790 -0.2256 -0.0715
  833loPI   C4B11642   3.593  13.498   7.603  0.1137 -0.1026  0.0880
  834loPI    C111643   7.666  17.116   6.059 -0.1725  0.0037  0.2142
  834loPI    C211644   7.826  17.298   5.741 -0.4427 -0.2533 -0.0764
  834loPI    C311645   8.018  16.993   5.914 -0.1734  0.0499  0.1724
  834loPI   PO411646   7.430  17.247   6.037  0.2742  0.0907 -0.2216
  834loPI   GL111647   7.291  17.438   6.371 -0.1423  0.0262 -0.0341
  834loPI   GL211648   6.998  17.224   6.353  0.0722 -0.1780 -0.2601
  834loPI   C1A11649   7.166  17.504   6.770 -0.2880 -0.1586 -0.1392
  834loPI   C2A11650   7.215  17.470   7.215 -0.0956  0.2177 -0.0074
  834loPI   C3A11651   7.020  17.619   7.662 -0.0794 -0.1056  0.0855
  834loPI   C4A11652   7.144  17.717   8.021  0.0929 -0.1642  0.0051
  834loPI   C5A11653   7.219  17.903   8.350 -0.0222  0.0994 -0.0241
  834loPI   C6A11654   7.276  17.770   8.798  0.0847 -0.1510 -0.0526
  834loPI   C1B11655   6.820  17.076   6.747 -0.1709  0.0478 -0.0283
  834loPI   C2B11656   6.713  17.003   7.084  0.0755 -0.1050 -0.0949
  834loPI   C3B11657   6.571  16.905   7.496 -0.2396  0.2509 -0.1171
  834loPI   C4B11658   6.526  17.014   7.814 -0.0850  0.0637  0.2982
  835loPI    C111659   7.262  13.859   6.127  0.0947  0.0720  0.0927
  835loPI    C211660   7.235  13.673   5.774 -0.1378  0.1105  0.0886
  835loPI    C311661   7.567  13.638   5.993 -0.0095  0.0495 -0.1125
  835loPI   PO411662   7.043  13.783   6.284 -0.0490  0.2596  0.0372
  835loPI   GL111663   7.026  13.601   6.683  0.0337  0.0276 -0.2422
  835loPI   GL211664   6.706  13.743   6.732  0.2784  0.1678  0.1389
  835loPI   C1A11665   7.018  13.641   7.209  0.3124 -0.0027  0.2312
  835loPI   C2A11666   6.853  13.592   7.619  0.1012 -0.1494  0.1193
  835loPI   C3A11667   6.837  13.658   8.011  0.2343 -0.0741 -0.2115
  835loPI   C4A11668   6.657  13.398   8.277  0.0749  0.5040 -0.0653
  835loPI   C5A11669   6.679  13.260   8.638 -0.2459 -0.1098 -0.0305
  835loPI   C6A11670   6.841  12.909   8.704 -0.2261  0.0423 -0.0527
  835loPI   C1B11671   6.596  13.881   7.179 -0.0428  0.0785 -0.3496
  835loPI   C2B11672   6.412  13.846   7.654  0.2123  0.1280  0.1400
  835loPI   C3B11673   6.384  13.841   8.225  0.0933 -0.1605  0.0225
  835loPI   C4B11674   6.682  13.848   8.576  0.0540  0.0555  0.2100
  836loPI    C111675  15.314  10.959   5.898  0.0132  0.1100  0.1086
  836loPI    C211676  15.517  11.296   5.972 -0.0769  0.2197 -0.1331
  836loPI    C311677  15.295  11.265   5.641  0.0977 -0.1559 -0.2205
  836loPI   PO411678  15.173  10.792   6.088  0.1277  0.1194 -0.2932
  836loPI   GL111679  15.043  10.525   6.379  0.0882 -0.1367  0.0833
  836loPI   GL211680  15.110  10.268   6.284  0.1093 -0.0893  0.3273
  836loPI   C1A11681  15.171  10.674   6.813 -0.0933  0.2218 -0.0172
  836loPI   C2A11682  15.256  10.700   7.244 -0.0189 -0.1962 -0.2917
  836loPI   C3A11683  15.417  10.744   7.577  0.0896  0.0200  0.0948
  836loPI   C4A11684  15.574  10.693   7.953 -0.2213  0.1968 -0.0726
  836loPI   C5A11685  15.605  10.260   8.200  0.3052  0.0079 -0.2257
  836loPI   C6A11686  15.496   9.773   8.361 -0.0028 -0.2749  0.1569
  836loPI   C1B11687  15.188  10.123   6.756 -0.2892  0.0435  0.1819
  836loPI   C2B11688  15.135  10.213   7.118  0.3548  0.2042  0.2640
  836loPI   C3B11689  15.105  10.296   7.518  0.0750 -0.0382 -0.3222
  836loPI   C4B11690  15.232  10.315   7.905  0.0728 -0.0324 -0.1809
  837loPI    C111691  14.117   6.087   5.784 -0.2146  0.0812 -0.1253
  837loPI    C211692  14.248   5.964   5.427 -0.0702  0.1996 -0.1142
  837loPI    C311693  13.888   6.136   5.460 -0.2435 -0.1499 -0.1412
  837loPI   PO411694  14.369   6.236   5.893  0.5086 -0.3354  0.0056
  837loPI   GL111695  14.738   6.365   6.129 -0.0066 -0.1041  0.2758
  837loPI   GL211696  14.398   6.335   6.382 -0.2767 -0.1004 -0.1042
  837loPI   C1A11697  14.888   6.500   6.566 -0.1959 -0.0250  0.0168
  837loPI   C2A11698  14.939   6.623   6.874 -0.0805 -0.0431  0.0517
  837loPI   C3A11699  15.064   6.596   7.251  0.0831  0.2305 -0.0826
  837loPI   C4A11700  15.085   6.437   7.655  0.1276 -0.0846 -0.0886
  837loPI   C5A11701  14.895   6.467   8.084  0.2639  0.1468 -0.0155
  837loPI   C6A11702  14.481   6.407   8.169  0.0140 -0.1872 -0.1576
  837loPI   C1B11703  14.532   6.106   6.682  0.1327  0.0119 -0.0108
  837loPI   C2B11704  14.737   6.227   7.086  0.0115 -0.1142  0.0064
  837loPI   C3B11705  14.716   6.228   7.445  0.0889  0.0067 -0.3495
  837loPI   C4B11706  14.673   6.171   7.789  0.2281  0.1483  0.1558
  838loPI    C111707   4.454   1.652   5.974  0.2043  0.0862 -0.0851
  838loPI    C211708   4.438   1.972   5.735  0.0167  0.0213 -0.1610
  838loPI    C311709   4.108   1.843   5.920  0.0732 -0.1772 -0.1955
  838loPI   PO411710   4.718   1.632   6.046  0.0197 -0.2463  0.4910
  838loPI   GL111711   4.940   1.770   6.415 -0.0000  0.1421 -0.0734
  838loPI   GL211712   4.711   1.793   6.556  0.0542 -0.1639  0.2639
  838loPI   C1A11713   5.078   1.541   6.798  0.0740  0.1648  0.0630
  838loPI   C2A11714   5.257   1.300   6.993 -0.1213 -0.1931 -0.3366
  838loPI   C3A11715   5.402   0.896   7.248  0.2590  0.0358  0.1085
  838loPI   C4A11716   5.232   0.845   7.636  0.0618  0.2296  0.1656
  838loPI   C5A11717   5.439   0.715   7.873  0.0355  0.1854  0.0860
  838loPI   C6A11718   5.399   0.821   8.405 -0.0056  0.2157 -0.0820
  838loPI   C1B11719   4.730   1.760   7.048 -0.1362  0.0338  0.0422
  838loPI   C2B11720   5.045   1.657   7.381  0.3863 -0.0618  0.1186
  838loPI   C3B11721   5.134   1.391   7.606 -0.2126 -0.0483 -0.2295
  838loPI   C4B11722   5.373   1.428   8.034 -0.1806 -0.1071 -0.3812
  839loPI    C111723  11.872   8.141   5.483 -0.1620  0.2715 -0.1241
  839loPI    C211724  12.053   8.451   5.306  0.0841  0.1522 -0.0853
  839loPI    C311725  11.951   8.130   5.091  0.0488  0.1601 -0.0802
  839loPI   PO411726  12.043   8.038   5.664 -0.3090  0.0173  0.0743
  839loPI   GL111727  11.976   8.086   6.011 -0.0893  0.1075  0.0503
  839loPI   GL211728  11.916   7.770   6.083  0.0672  0.2353 -0.4314
  839loPI   C1A11729  12.312   7.987   6.330 -0.0173  0.2112 -0.3703
  839loPI   C2A11730  12.311   8.063   6.807 -0.1856  0.1602  0.0201
  839loPI   C3A11731  12.474   8.101   7.274  0.1240 -0.1910 -0.0060
  839loPI   C4A11732  12.710   7.916   7.606 -0.3564 -0.0506 -0.2481
  839loPI   C5A11733  13.127   7.990   7.899 -0.0553  0.0141  0.3695
  839loPI   C6A11734  13.576   7.943   8.074 -0.1851 -0.1199 -0.0785
  839loPI   C1B11735  11.990   7.726   6.599 -0.1197  0.0911 -0.0083
  839loPI   C2B11736  12.022   7.724   7.029  0.2122 -0.1387 -0.1141
  839loPI   C3B11737  12.023   7.949   7.353  0.0973  0.2983  0.1302
  839loPI   C4B11738  12.047   8.390   7.476 -0.1220  0.2820 -0.1647
  840loPI    C111739  13.144   2.246   5.657  0.1552 -0.0602 -0.0330
  840loPI    C211740  13.069   1.954   5.395 -0.1658 -0.1449  0.1474
  840loPI    C311741  12.908   2.316   5.342  0.0451 -0.0642  0.0477
  840loPI   PO411742  13.074   2.095   5.927  0.1317 -0.2524  0.1654
  840loPI   GL111743  12.855   2.209   6.313 -0.2070  0.4096  0.0467
  840loPI   GL211744  12.581   2.063   6.214  0.0608  0.3129 -0.1494
  840loPI   C1A11745  12.833   2.306   6.748  0.0286 -0.2525  0.0545
  840loPI   C2A11746  12.671   2.434   7.217  0.0811 -0.0983 -0.0377
  840loPI   C3A11747  12.638   2.498   7.696  0.0370  0.0863 -0.0829
  840loPI   C4A11748  12.800   2.699   7.980 -0.0057  0.1588  0.3663
  840loPI   C5A11749  12.964   2.682   8.381 -0.3399 -0.1151 -0.0293
  840loPI   C6A11750  13.381   2.701   8.525 -0.1686 -0.2807 -0.0118
  840loPI   C1B11751  12.461   2.035   6.580 -0.1470 -0.2569  0.1460
  840loPI   C2B11752  12.354   2.093   7.051  0.0375  0.2355 -0.1671
  840loPI   C3B11753  12.297   1.887   7.472  0.1248 -0.0937  0.0616
  840loPI   C4B11754  12.412   2.069   7.863 -0.0692  0.1410 -0.1794
  841loPI    C111755  17.289  11.083   5.296 -0.0414 -0.0111 -0.1276
  841loPI    C211756  16.976  11.153   5.056 -0.0005  0.4319 -0.0594
  841loPI    C311757  17.322  11.025   4.901 -0.1648  0.0906 -0.1535
  841loPI   PO411758  17.185  10.975   5.634 -0.1059  0.2645 -0.3625
  841loPI   GL111759  17.393  10.782   5.960 -0.3161 -0.1448 -0.1394
  841loPI   GL211760  17.477  10.465   6.082  0.4802 -0.3258 -0.1865
  841loPI   C1A11761  17.573  10.808   6.429 -0.3932 -0.0807 -0.2150
  841loPI   C2A11762  17.570  10.954   6.805 -0.0497  0.0774 -0.1299
  841loPI   C3A11763  17.651  10.859   7.221  0.1798 -0.1321 -0.0173
  841loPI   C4A11764  17.683  10.740   7.631  0.1350  0.2349  0.1512
  841loPI   C5A11765  17.884  11.067   7.908 -0.0561  0.1242 -0.0818
  841loPI   C6A11766  18.042  11.314   8.175  0.2975  0.0666  0.2279
  841loPI   C1B11767  17.532  10.343   6.514  0.1639  0.2949  0.0836
  841loPI   C2B11768  17.610  10.356   6.912  0.0611  0.0459 -0.1524
  841loPI   C3B11769  17.476  10.367   7.313  0.2410  0.1152  0.3269
  841loPI   C4B11770  17.258  10.311   7.666  0.0410  0.0132  0.0609
  842loPI    C111771   0.588   9.474   5.296 -0.0206 -0.0437  0.1260
  842loPI    C211772   0.947   9.299   5.318 -0.1130 -0.2533 -0.0005
  842loPI    C311773   0.919   9.697   5.288  0.1126 -0.2454 -0.1197
  842loPI   PO411774   0.391   9.331   5.527 -0.0644  0.0626  0.0067
  842loPI   GL111775   0.194   9.428   5.854  0.3274 -0.0471  0.0069
  842loPI   GL211776   0.165   9.724   6.009 -0.2401  0.0825 -0.1656
  842loPI   C1A11777   0.198   9.294   6.266 -0.1229 -0.1373 -0.1036
  842loPI   C2A11778   0.077   9.198   6.640  0.0450 -0.2402  0.0274
  842loPI   C3A11779  -0.133   8.970   7.015 -0.0646  0.0256  0.2327
  842loPI   C4A11780  -0.332   8.892   7.493  0.0834 -0.0376 -0.1110
  842loPI   C5A11781  -0.521   8.497   7.634 -0.2062 -0.0983  0.1929
  842loPI   C6A11782  -0.748   8.174   7.967 -0.0524  0.2183 -0.1281
  842loPI   C1B11783  -0.252   9.450   6.277 -0.1761 -0.0013 -0.1225
  842loPI   C2B11784  -0.366   9.409   6.772 -0.0009  0.2440  0.1574
  842loPI   C3B11785  -0.516   9.297   7.220  0.2461  0.1298  0.0985
  842loPI   C4B11786  -0.638   9.344   7.632 -0.0438 -0.3898  0.1903
  843loPI    C111787   4.547   9.958   5.599  0.1005  0.0508 -0.0871
  843loPI    C211788   4.187   9.946   5.426 -0.0626 -0.0269  0.2493
  843loPI    C311789   4.405  10.281   5.409 -0.0133 -0.0751 -0.2185
  843loPI   PO411790   4.512   9.852   5.871  0.4350 -0.0667  0.2019
  843loPI   GL111791   4.340   9.740   6.291  0.0076 -0.3803 -0.1090
  843loPI   GL211792   4.088   9.665   6.303 -0.0258  0.0950  0.1676
  843loPI   C1A11793   4.591   9.719   6.646 -0.0135  0.2938  0.1269
  843loPI   C2A11794   4.936   9.584   6.709  0.2845 -0.1688 -0.0746
  843loPI   C3A11795   5.159   9.665   7.079 -0.1365 -0.0596  0.2440
  843loPI   C4A11796   5.164   9.866   7.489 -0.0670  0.0505 -0.0462
  843loPI   C5A11797   5.384   9.934   7.867  0.0868 -0.1153  0.0087
  843loPI   C6A11798   5.618   9.712   8.026 -0.0130 -0.2111  0.3002
  843loPI   C1B11799   4.134   9.579   6.785  0.1902 -0.0797 -0.0524
  843loPI   C2B11800   4.173   9.527   7.166 -0.3370  0.2057 -0.0270
  843loPI   C3B11801   4.096   9.576   7.659 -0.3034 -0.2081 -0.1997
  843loPI   C4B11802   3.745   9.728   7.997 -0.2799  0.4747 -0.1160
  844loPI    C111803  14.520  17.681   5.411 -0.2789 -0.0142  0.1348
  844loPI    C211804  14.568  17.288   5.465 -0.1848  0.0010  0.1609
  844loPI    C311805  14.234  17.426   5.294 -0.1538 -0.1015  0.0164
  844loPI   PO411806  14.602  17.760   5.599  0.0282 -0.1416  0.0583
  844loPI   GL111807  14.600  17.554   5.950  0.1279 -0.2423  0.0508
  844loPI   GL211808  14.660  17.252   5.940 -0.1574  0.0996 -0.1554
  844loPI   C1A11809  14.391  17.591   6.471 -0.1220 -0.1899  0.0383
  844loPI   C2A11810  14.364  17.562   6.859 -0.2170  0.0215 -0.1889
  844loPI   C3A11811  14.316  17.570   7.232  0.0974  0.0133  0.2094
  844loPI   C4A11812  14.225  17.488   7.619  0.0786 -0.0983  0.2443
  844loPI   C5A11813  14.341  17.248   8.010 -0.2066 -0.0209  0.1184
  844loPI   C6A11814  14.665  17.016   7.914  0.0070 -0.0373 -0.1426
  844loPI   C1B11815  14.757  17.223   6.401  0.2912 -0.0738  0.2989
  844loPI   C2B11816  14.816  17.347   6.771 -0.2491  0.0219  0.1180
  844loPI   C3B11817  14.763  17.398   7.217 -0.0480  0.3242 -0.1823
  844loPI   C4B11818  14.692  17.619   7.653  0.3627 -0.2310 -0.1788
  845loPI    C111819   3.643   5.166   5.599  0.1140 -0.1920 -0.2459
  845loPI    C211820   3.343   5.183   5.335  0.0031 -0.1502 -0.1187
  845loPI    C311821   3.678   5.393   5.271 -0.2444  0.3069  0.0479
  845loPI   PO411822   3.437   5.197   5.844  0.1281  0.0412  0.0831
  845loPI   GL111823   3.472   5.233   6.255 -0.1193  0.0397 -0.0354
  845loPI   GL211824   3.717   5.219   6.541  0.0432 -0.0503  0.2260
  845loPI   C1A11825   3.242   4.864   6.522 -0.0992 -0.3152  0.1676
  845loPI   C2A11826   3.176   4.744   6.902 -0.1121  0.1012 -0.0083
  845loPI   C3A11827   2.999   4.540   7.229  0.1095  0.0013 -0.0422
  845loPI   C4A11828   2.964   4.506   7.558 -0.0674 -0.0641 -0.0412
  845loPI   C5A11829   2.985   4.259   8.014 -0.1814  0.1276  0.0570
  845loPI   C6A11830   2.933   4.016   8.468 -0.3479  0.0103  0.0560
  845loPI   C1B11831   3.544   5.084   6.954  0.2896  0.0859  0.0346
  845loPI   C2B11832   3.447   5.146   7.326  0.3637 -0.0105 -0.1508
  845loPI   C3B11833   3.265   4.916   7.604 -0.1942  0.1490  0.3358
  845loPI   C4B11834   3.073   4.788   8.040  0.2138 -0.1831  0.0401
  846loPI    C111835   7.699   5.810   5.611  0.0074  0.3637 -0.2154
  846loPI    C211836   7.644   5.571   5.295 -0.1575  0.2176 -0.0787
  846loPI    C311837   7.332   5.762   5.458 -0.1016  0.1562  0.1013
  846loPI   PO411838   7.814   5.651   5.874  0.0384 -0.2512 -0.0715
  846loPI   GL111839   7.996   5.801   6.250  0.3345  0.2309 -0.1281
  846loPI   GL211840   7.782   5.985   6.334  0.1871  0.2538 -0.0007
  846loPI   C1A11841   8.157   5.687   6.630 -0.3544 -0.0403  0.0114
  846loPI   C2A11842   8.175   5.660   7.167 -0.1064  0.1316  0.1023
  846loPI   C3A11843   8.145   5.773   7.658 -0.1830 -0.0953 -0.0662
  846loPI   C4A11844   8.133   5.873   8.024  0.0990 -0.0847 -0.0355
  846loPI   C5A11845   7.677   6.072   8.075  0.0120 -0.0715 -0.2238
  846loPI   C6A11846   7.565   6.500   8.272  0.0587  0.0359  0.0068
  846loPI   C1B11847   7.466   6.003   6.491 -0.0510 -0.1449 -0.2539
  846loPI   C2B11848   7.240   5.886   6.707 -0.1705  0.2266  0.0878
  846loPI   C3B11849   7.332   5.825   7.142 -0.2050  0.0479  0.1131
  846loPI   C4B11850   7.310   5.928   7.546  0.0180  0.2683 -0.2080
  847loPI    C111851   8.652  14.032   5.813 -0.0028 -0.1936  0.1871
  847loPI    C211852   8.960  13.780   5.849  0.0625 -0.1161  0.1752
  847loPI    C311853   8.778  13.824   5.495  0.0996 -0.0903  0.1592
  847loPI   PO411854   8.800  14.262   5.978  0.1797 -0.0481 -0.1299
  847loPI   GL111855   8.738  14.257   6.414  0.2649  0.0424 -0.1850
  847loPI   GL211856   8.646  14.529   6.633  0.0282  0.3425  0.0198
  847loPI   C1A11857   8.645  14.025   6.837 -0.1504  0.0291 -0.1355
  847loPI   C2A11858   8.365  13.990   7.171 -0.0217 -0.1491  0.1573
  847loPI   C3A11859   8.162  14.007   7.654 -0.2907 -0.0943  0.1129
  847loPI   C4A11860   7.980  14.035   8.043  0.0551 -0.1536  0.1709
  847loPI   C5A11861   7.682  14.132   8.307 -0.0942 -0.0193  0.2130
  847loPI   C6A11862   7.555  14.193   8.728  0.2040 -0.2893 -0.2182
  847loPI   C1B11863   8.717  14.738   6.927  0.0180  0.0421 -0.1807
  847loPI   C2B11864   8.892  14.691   7.327 -0.0746 -0.0045  0.0299
  847loPI   C3B11865   8.760  14.603   7.727 -0.0521 -0.0973 -0.2294
  847loPI   C4B11866   8.943  14.389   8.031  0.3214 -0.1509  0.1188
  848loPI    C111867  14.895   4.954   5.417  0.3448  0.1619 -0.1900
  848loPI    C211868  14.574   5.181   5.344  0.1743 -0.0268 -0.0427
  848loPI    C311869  14.641   4.853   5.125  0.1389 -0.1150  0.0778
  848loPI   PO411870  14.877   4.852   5.714 -0.0902 -0.2484  0.2030
  848loPI   GL111871  14.702   4.834   6.150  0.1540 -0.0629  0.0858
  848loPI   GL211872  14.917   5.128   6.212 -0.1913 -0.3538  0.1244
  848loPI   C1A11873  14.343   4.796   6.489 -0.0474  0.3094 -0.1805
  848loPI   C2A11874  14.278   4.740   6.939  0.1062  0.3246  0.1040
  848loPI   C3A11875  14.351   4.847   7.405 -0.2143  0.1276  0.0219
  848loPI   C4A11876  14.482   4.598   7.804  0.0198 -0.1919  0.1358
  848loPI   C5A11877  14.652   4.287   8.159  0.2905  0.0352 -0.3308
  848loPI   C6A11878  14.407   4.112   8.510 -0.1322 -0.1138 -0.0029
  848loPI   C1B11879  14.823   5.012   6.571  0.0016 -0.2429  0.1995
  848loPI   C2B11880  14.829   5.148   6.936  0.1694  0.3896  0.1200
  848loPI   C3B11881  14.820   5.108   7.361  0.0050 -0.1008  0.1415
  848loPI   C4B11882  14.758   5.064   7.685 -0.0784 -0.3920 -0.3857
  849loPI    C111883   0.986  10.253   5.919  0.0137 -0.1778  0.0575
  849loPI    C211884   0.883  10.150   5.546 -0.3837  0.0064  0.1116
  849loPI    C311885   1.226  10.345   5.612 -0.0679 -0.4612 -0.0949
  849loPI   PO411886   0.834  10.368   5.983 -0.0554 -0.1312  0.0986
  849loPI   GL111887   0.532  10.342   6.195  0.0864  0.0829 -0.2023
  849loPI   GL211888   0.493  10.048   6.181  0.2471 -0.1748  0.1270
  849loPI   C1A11889   0.660  10.474   6.658 -0.2376 -0.0030  0.3431
  849loPI   C2A11890   0.623  10.440   7.080  0.1438  0.0640  0.0370
  849loPI   C3A11891   0.659  10.381   7.458 -0.0114 -0.0553 -0.2662
  849loPI   C4A11892   0.339  10.232   7.692 -0.0711 -0.3485 -0.0046
  849loPI   C5A11893   0.054  10.504   8.007 -0.3794 -0.1358 -0.0054
  849loPI   C6A11894  -0.341  10.662   8.124 -0.0513  0.0866  0.3517
  849loPI   C1B11895   0.288   9.770   6.450 -0.2031  0.4931 -0.0260
  849loPI   C2B11896   0.297   9.650   6.708  0.1377  0.0164  0.3007
  849loPI   C3B11897   0.208   9.362   7.076  0.0855  0.2056  0.0484
  849loPI   C4B11898   0.177   9.196   7.380  0.0142  0.0735  0.0104
  850loPI    C111899  15.478  13.179   5.037  0.0470  0.0807 -0.2717
  850loPI    C211900  15.163  13.425   5.050  0.1716  0.2348 -0.1195
  850loPI    C311901  15.227  13.200   4.726  0.0345  0.3739 -0.2450
  850loPI   PO411902  15.468  13.038   5.210  0.0365 -0.2288  0.1615
  850loPI   GL111903  15.822  13.041   5.448  0.2980  0.0014  0.0119
  850loPI   GL211904  15.974  13.269   5.555 -0.0817  0.1079 -0.0905
  850loPI   C1A11905  15.781  12.955   5.948 -0.1428  0.1962  0.4092
  850loPI   C2A11906  15.809  13.022   6.460 -0.0851 -0.0641  0.1754
  850loPI   C3A11907  15.692  12.939   6.840  0.0637  0.0928 -0.2754
  850loPI   C4A11908  15.703  12.913   7.263  0.2090  0.1643 -0.0074
  850loPI   C5A11909  15.674  12.825   7.722 -0.0180 -0.0558 -0.0141
  850loPI   C6A11910  15.499  13.092   8.059 -0.1297 -0.0944  0.1741
  850loPI   C1B11911  15.730  13.541   5.809  0.0986 -0.2305 -0.1399
  850loPI   C2B11912  15.693  13.513   6.207 -0.1552  0.1574  0.1951
  850loPI   C3B11913  15.620  13.451   6.614 -0.1703  0.1041 -0.0283
  850loPI   C4B11914  15.644  13.469   7.040 -0.0260 -0.0414 -0.2356
  851loPI    C111915  13.849   2.873   5.590 -0.1043  0.0306  0.0527
  851loPI    C211916  14.139   3.083   5.768 -0.1737  0.0842  0.1028
  851loPI    C311917  13.789   3.257   5.683 -0.1813  0.0275  0.0167
  851loPI   PO411918  13.671   2.606   5.671 -0.0975 -0.0102 -0.0526
  851loPI   GL111919  13.607   2.230   5.988 -0.3166 -0.0201  0.1018
  851loPI   GL211920  13.374   2.466   6.073 -0.0859  0.1848  0.0559
  851loPI   C1A11921  13.504   1.947   6.439 -0.1644  0.1233  0.1292
  851loPI   C2A11922  13.394   1.691   6.818  0.0299  0.0866  0.3043
  851loPI   C3A11923  13.294   1.705   7.241 -0.0601 -0.3634 -0.2086
  851loPI   C4A11924  13.267   1.846   7.640 -0.2222  0.2125 -0.2954
  851loPI   C5A11925  13.110   1.752   7.965  0.0950  0.2415 -0.0914
  851loPI   C6A11926  12.706   1.754   8.130  0.0301 -0.1747 -0.1666
  851loPI   C1B11927  13.332   2.436   6.518  0.0347 -0.0517  0.0369
  851loPI   C2B11928  13.327   2.174   6.836 -0.0428  0.0821  0.1957
  851loPI   C3B11929  13.167   2.238   7.193  0.1848  0.1018  0.0448
  851loPI   C4B11930  13.223   2.472   7.481 -0.1507 -0.3598 -0.1964
  852loPI    C111931  16.257  14.155   5.229 -0.2013 -0.0021 -0.1143
  852loPI    C211932  16.169  14.021   4.863  0.0505 -0.0926 -0.1439
  852loPI    C311933  16.509  13.909   5.040  0.1182  0.2619 -0.0416
  852loPI   PO411934  16.139  14.344   5.331  0.1171  0.0263  0.2364
  852loPI   GL111935  16.222  14.587   5.626 -0.0413 -0.0759 -0.2951
  852loPI   GL211936  16.416  14.802   5.646 -0.1797 -0.3997  0.1913
  852loPI   C1A11937  15.958  14.453   6.011 -0.2374 -0.0029 -0.1186
  852loPI   C2A11938  15.918  14.367   6.418 -0.1495  0.2768  0.1659
  852loPI   C3A11939  15.908  14.260   6.866  0.1234 -0.2230  0.3908
  852loPI   C4A11940  15.978  14.215   7.270  0.1515 -0.0105 -0.1079
  852loPI   C5A11941  15.729  14.341   7.611 -0.0101 -0.0689 -0.0670
  852loPI   C6A11942  15.589  14.522   7.933 -0.1089  0.1214 -0.1347
  852loPI   C1B11943  16.265  14.845   6.127  0.0630  0.0146  0.4689
  852loPI   C2B11944  16.193  14.772   6.576 -0.0052  0.0513 -0.1315
  852loPI   C3B11945  16.535  14.594   6.883 -0.0613  0.2204 -0.0404
  852loPI   C4B11946  16.908  14.392   6.962  0.1558  0.1176  0.2544
  853loPI    C111947   1.785  15.579   5.631  0.1049 -0.2272  0.0594
  853loPI    C211948   1.507  15.467   5.366  0.0279  0.1083 -0.0063
  853loPI    C311949   1.607  15.853   5.400  0.2032  0.0396  0.2938
  853loPI   PO411950   1.678  15.459   5.844 -0.0172 -0.3116 -0.1837
  853loPI   GL111951   1.486  15.571   6.315 -0.1192  0.2288  0.1217
  853loPI   GL211952   1.151  15.622   6.239 -0.2005  0.2645 -0.1704
  853loPI   C1A11953   1.514  15.460   6.725  0.0062  0.1207  0.0112
  853loPI   C2A11954   1.553  15.317   7.161  0.2058 -0.1569 -0.1942
  853loPI   C3A11955   1.524  15.185   7.580  0.1568  0.1787 -0.1103
  853loPI   C4A11956   1.732  14.842   7.769 -0.0492 -0.0528  0.0648
  853loPI   C5A11957   1.768  14.462   8.108 -0.2877 -0.0078 -0.1923
  853loPI   C6A11958   1.839  13.994   8.059  0.1116 -0.2325  0.0689
  853loPI   C1B11959   1.029  15.488   6.665  0.3224 -0.1409 -0.2712
  853loPI   C2B11960   1.019  15.521   7.144 -0.1828 -0.1645 -0.2298
  853loPI   C3B11961   1.030  15.400   7.673  0.0208  0.1407 -0.2148
  853loPI   C4B11962   0.934  15.829   7.864  0.0773 -0.1351  0.0631
  854loPI    C111963   0.451   5.030   5.829  0.1625 -0.1294 -0.0368
  854loPI    C211964   0.067   5.042   5.717  0.1718 -0.0792 -0.0635
  854loPI    C311965   0.356   5.044   5.441  0.1900 -0.1857 -0.0456
  854loPI   PO411966   0.561   4.812   6.023 -0.1810 -0.3095  0.0128
  854loPI   GL111967   0.397   4.655   6.317  0.3519 -0.3927 -0.1188
  854loPI   GL211968   0.482   4.409   6.408 -0.0226  0.0045  0.0852
  854loPI   C1A11969   0.633   4.763   6.774 -0.1044  0.0297 -0.0189
  854loPI   C2A11970   0.764   4.822   7.163  0.2649 -0.0198  0.2118
  854loPI   C3A11971   0.871   4.570   7.568  0.0519  0.1813  0.3085
  854loPI   C4A11972   0.574   4.501   7.953  0.0053 -0.3211 -0.6116
  854loPI   C5A11973   0.259   4.755   8.167 -0.0017 -0.0130  0.1063
  854loPI   C6A11974   0.016   4.830   8.578  0.1846  0.1518  0.0934
  854loPI   C1B11975   0.766   4.297   6.837 -0.1676 -0.2438 -0.0842
  854loPI   C2B11976   0.689   4.246   7.153  0.4101 -0.0728  0.2842
  854loPI   C3B11977   0.616   4.136   7.584  0.0874 -0.0095 -0.2208
  854loPI   C4B11978   0.679   3.991   8.022  0.2276 -0.0547  0.3157
  855loPI    C111979   3.085  10.180   6.035 -0.0853  0.0547 -0.0044
  855loPI    C211980   3.388   9.931   5.959 -0.0266  0.1917 -0.2310
  855loPI    C311981   3.341  10.261   5.738 -0.2895  0.2178 -0.1392
  855loPI   PO411982   3.084  10.063   6.313 -0.3564  0.1823  0.0968
  855loPI   GL111983   2.861  10.218   6.611 -0.0022 -0.0684 -0.0329
  855loPI   GL211984   2.764   9.996   6.719  0.1802  0.0800  0.3765
  855loPI   C1A11985   2.598  10.509   6.718 -0.1733  0.0466 -0.3826
  855loPI   C2A11986   2.497  10.663   7.113  0.3233  0.1798 -0.1078
  855loPI   C3A11987   2.669  10.589   7.402  0.1134  0.1291 -0.2810
  855loPI   C4A11988   2.714  10.559   7.713  0.0357 -0.1101  0.0994
  855loPI   C5A11989   2.697  10.371   8.163  0.0504 -0.3314  0.0443
  855loPI   C6A11990   2.821   9.991   8.447 -0.2090 -0.0964  0.1142
  855loPI   C1B11991   2.905  10.174   7.204 -0.1902  0.3443 -0.0027
  855loPI   C2B11992   2.981  10.100   7.595  0.2151  0.0745  0.0752
  855loPI   C3B11993   3.094  10.147   7.960 -0.1315 -0.3024  0.1960
  855loPI   C4B11994   3.220  10.249   8.459  0.0788 -0.0217  0.1948
  856loPI    C111995   1.715   8.477   5.958  0.3209 -0.0136  0.2077
  856loPI    C211996   1.736   8.856   5.829  0.0085 -0.0227  0.1204
  856loPI    C311997   1.786   8.554   5.571 -0.0289 -0.0411  0.1346
  856loPI   PO411998   1.781   8.310   6.212  0.1530 -0.2088 -0.3171
  856loPI   GL111999   1.750   8.450   6.613  0.0999 -0.2359 -0.0215
  856loPI   GL212000   1.636   8.178   6.772 -0.0160  0.0142 -0.2856
  856loPI   C1A12001   1.656   8.683   7.020 -0.0083  0.1733 -0.2190
  856loPI   C2A12002   1.500   8.640   7.433  0.2502  0.2650 -0.2118
  856loPI   C3A12003   1.223   8.675   7.744  0.2405 -0.2452 -0.4357
  856loPI   C4A12004   1.039   8.781   8.236  0.1042  0.3745  0.1366
  856loPI   C5A12005   1.032   8.713   8.736  0.3184 -0.0795 -0.2217
  856loPI   C6A12006   1.175   8.365   9.099  0.2334 -0.0585 -0.0970
  856loPI   C1B12007   1.473   8.207   7.148  0.1646  0.2630  0.0249
  856loPI   C2B12008   1.325   7.911   7.436 -0.1505 -0.2125 -0.0726
  856loPI   C3B12009   1.206   7.705   7.884  0.0081 -0.0198  0.4077
  856loPI   C4B12010   1.223   7.782   8.334  0.0126 -0.1871 -0.0599
  857loPI    C112011   1.999  16.115   5.514 -0.0004 -0.1091  0.0201
  857loPI    C212012   2.314  15.893   5.409  0.0441  0.0233 -0.1310
  857loPI    C312013   2.049  16.006   5.133  0.0963  0.2733 -0.0815
  857loPI   PO412014   1.879  16.078   5.773  0.1792 -0.1388  0.2774
  857loPI   GL112015   1.834  15.944   6.106 -0.0528  0.3346  0.0351
  857loPI   GL212016   1.541  16.087   6.220  0.1841 -0.0195  0.3498
  857loPI   C1A12017   2.051  16.041   6.504 -0.1187 -0.1247  0.0602
  857loPI   C2A12018   2.227  16.170   6.920  0.1428 -0.1303 -0.0471
  857loPI   C3A12019   2.124  16.057   7.387  0.1880  0.0366  0.0844
  857loPI   C4A12020   1.967  16.359   7.699 -0.2747  0.2634  0.1166
  857loPI   C5A12021   2.104  16.529   8.012 -0.3379  0.2146 -0.2768
  857loPI   C6A12022   1.959  16.848   8.232 -0.1257  0.0812 -0.1878
  857loPI   C1B12023   1.564  15.942   6.650  0.0178 -0.3651  0.0523
  857loPI   C2B12024   1.367  15.833   7.069 -0.1556 -0.2408  0.0441
  857loPI   C3B12025   1.127  16.005   7.324 -0.0675  0.3191  0.0080
  857loPI   C4B12026   0.801  16.224   7.136  0.1460 -0.2273  0.5739
  858loPI    C112027   2.069   5.187   5.537  0.0138  0.0336  0.2293
  858loPI    C212028   2.286   5.447   5.750  0.3835  0.0119 -0.1078
  858loPI    C312029   2.348   5.411   5.356  0.0818 -0.3276 -0.1295
  858loPI   PO412030   2.059   4.985   5.675 -0.0191  0.2119  0.3260
  858loPI   GL112031   2.118   5.099   6.084 -0.2685  0.0768 -0.2444
  858loPI   GL212032   1.803   4.838   6.119 -0.0684  0.4891 -0.2274
  858loPI   C1A12033   2.067   5.113   6.594  0.3404 -0.0420 -0.0045
  858loPI   C2A12034   2.075   4.976   6.906 -0.0681 -0.0050  0.2941
  858loPI   C3A12035   2.028   4.906   7.344  0.0886  0.0754 -0.1799
  858loPI   C4A12036   2.108   5.003   7.821 -0.2093 -0.1550  0.0779
  858loPI   C5A12037   2.383   5.262   8.088  0.0489  0.0325 -0.0547
  858loPI   C6A12038   2.762   5.154   8.212  0.0780  0.1898 -0.3754
  858loPI   C1B12039   2.182   4.628   6.380  0.2001  0.0101 -0.0787
  858loPI   C2B12040   2.131   4.485   6.804 -0.0800 -0.1647 -0.0572
  858loPI   C3B12041   2.056   4.407   7.203  0.1850 -0.1779 -0.2100
  858loPI   C4B12042   1.884   4.524   7.571  0.0500 -0.1188  0.0530
  859loPI    C112043   6.705   8.627   5.603  0.0727 -0.1100 -0.0539
  859loPI    C212044   6.406   8.800   5.402  0.1319  0.2518  0.1612
  859loPI    C312045   6.783   8.846   5.277  0.1438  0.2386  0.1922
  859loPI   PO412046   6.636   8.680   5.810  0.1008 -0.1674 -0.7694
  859loPI   GL112047   6.363   8.799   6.087  0.0827  0.2532 -0.1314
  859loPI   GL212048   6.091   8.862   6.315 -0.0625  0.0301  0.4326
  859loPI   C1A12049   6.636   8.729   6.463  0.1511 -0.1042 -0.0747
  859loPI   C2A12050   6.671   8.721   6.897 -0.0540 -0.3121 -0.0264
  859loPI   C3A12051   6.585   8.738   7.230  0.2653 -0.0717 -0.0321
  859loPI   C4A12052   6.636   8.582   7.676  0.2279 -0.0890 -0.0674
  859loPI   C5A12053   6.620   8.644   8.075  0.0718  0.3341  0.1539
  859loPI   C6A12054   6.793   8.553   8.536  0.0877  0.0024  0.0755
  859loPI   C1B12055   6.179   8.754   6.676  0.2369 -0.0155 -0.0356
  859loPI   C2B12056   6.075   8.825   7.099 -0.0605 -0.1953  0.0733
  859loPI   C3B12057   6.229   8.931   7.564 -0.2967 -0.1223 -0.1786
  859loPI   C4B12058   6.269   8.965   8.020  0.1364  0.1328 -0.0062
  860loPI    C112059   3.319  15.313   5.690 -0.0828 -0.1217  0.0593
  860loPI    C212060   3.111  15.645   5.771  0.0685 -0.0148  0.0142
  860loPI    C312061   3.152  15.522   5.393 -0.1391 -0.1862  0.0455
  860loPI   PO412062   3.327  15.204   5.934 -0.1098 -0.1050  0.2055
  860loPI   GL112063   3.172  15.323   6.327  0.2464  0.0604  0.0437
  860loPI   GL212064   3.258  15.563   6.240 -0.3009  0.1752  0.1845
  860loPI   C1A12065   3.005  15.048   6.661 -0.1197  0.1688  0.0086
  860loPI   C2A12066   3.003  15.025   7.052  0.0614 -0.0716  0.3312
  860loPI   C3A12067   3.014  15.181   7.478  0.0069 -0.0139 -0.1487
  860loPI   C4A12068   3.235  15.361   7.859 -0.0582 -0.1768  0.0741
  860loPI   C5A12069   3.546  15.299   8.205 -0.0366  0.3346  0.3061
  860loPI   C6A12070   4.009  15.302   8.378  0.1275 -0.0520  0.1934
  860loPI   C1B12071   3.314  15.822   6.565  0.0559 -0.1384  0.2561
  860loPI   C2B12072   3.366  16.043   6.985  0.0222  0.0392  0.0522
  860loPI   C3B12073   3.432  16.031   7.336  0.0428  0.0601 -0.0292
  860loPI   C4B12074   3.427  16.064   7.787 -0.5897  0.1263  0.2007
  861loPI    C112075   0.357  17.543   5.621  0.1716  0.0998  0.1982
  861loPI    C212076   0.587  17.635   5.935  0.2874  0.0231  0.1367
  861loPI    C312077   0.752  17.482   5.605  0.1383 -0.1036  0.1196
  861loPI   PO412078   0.128  17.805   5.680 -0.4218  0.0437 -0.1739
  861loPI   GL112079   0.072  17.824   6.053  0.2195  0.3829 -0.2477
  861loPI   GL212080   0.100  17.495   6.118 -0.0479 -0.0693  0.0945
  861loPI   C1A12081  -0.248  17.838   6.410 -0.0997 -0.0236  0.2214
  861loPI   C2A12082  -0.215  17.626   6.759  0.3905  0.0394 -0.0167
  861loPI   C3A12083  -0.228  17.520   7.200  0.2102 -0.1914  0.1364
  861loPI   C4A12084  -0.306  17.568   7.554 -0.1776 -0.1919 -0.4386
  861loPI   C5A12085  -0.275  17.896   7.916  0.0112 -0.0428  0.0320
  861loPI   C6A12086   0.034  18.231   8.048  0.0501  0.0751 -0.1569
  861loPI   C1B12087   0.245  17.595   6.494  0.1988 -0.0458 -0.2358
  861loPI   C2B12088   0.291  17.556   6.974  0.1868  0.0632  0.1806
  861loPI   C3B12089   0.249  17.508   7.458 -0.0252 -0.0830 -0.2925
  861loPI   C4B12090   0.426  17.796   7.745  0.0283  0.1713 -0.3334
  862loPI    C112091   2.914   6.445   6.006  0.1865 -0.0973  0.0659
  862loPI    C212092   2.904   6.509   5.611 -0.0862  0.0835  0.0991
  862loPI    C312093   3.251   6.424   5.792  0.0665  0.1592 -0.1540
  862loPI   PO412094   2.856   6.613   6.150 -0.3025  0.0139  0.0662
  862loPI   GL112095   2.960   6.667   6.499 -0.0041 -0.2863 -0.1593
  862loPI   GL212096   2.696   6.621   6.626  0.0393 -0.2795 -0.1686
  862loPI   C1A12097   3.117   6.602   7.010 -0.1897 -0.1374 -0.2074
  862loPI   C2A12098   3.200   6.658   7.390 -0.0215 -0.0366  0.0734
  862loPI   C3A12099   3.135   6.507   7.853 -0.1315  0.2200 -0.2461
  862loPI   C4A12100   3.047   6.772   8.251  0.1009 -0.0195  0.1377
  862loPI   C5A12101   2.929   7.069   8.565 -0.3995 -0.0231  0.0750
  862loPI   C6A12102   2.907   7.528   8.539 -0.1279 -0.1249 -0.0601
  862loPI   C1B12103   2.754   7.003   6.900 -0.0318  0.2133 -0.0588
  862loPI   C2B12104   2.836   7.032   7.370  0.0135  0.0545 -0.1705
  862loPI   C3B12105   3.095   7.050   7.772 -0.0044 -0.0560 -0.0001
  862loPI   C4B12106   3.010   7.290   8.030  0.0316 -0.1220 -0.1448
  863loPI    C112107   9.793  17.365   6.000  0.1712  0.5804  0.1297
  863loPI    C212108   9.680  17.407   5.618 -0.1402 -0.0685  0.1368
  863loPI    C312109  10.067  17.431   5.717 -0.0461 -0.0021 -0.2338
  863loPI   PO412110   9.518  17.466   6.175 -0.1384  0.1886 -0.0961
  863loPI   GL112111   9.291  17.499   6.590 -0.2702  0.3270 -0.0918
  863loPI   GL212112   9.393  17.196   6.538  0.1290  0.0178 -0.1310
  863loPI   C1A12113   9.415  17.795   7.026 -0.1309 -0.1194 -0.0699
  863loPI   C2A12114   9.372  17.780   7.435 -0.0646 -0.1704 -0.0835
  863loPI   C3A12115   9.225  17.688   7.830  0.3449  0.0015 -0.2774
  863loPI   C4A12116   9.008  17.720   8.245 -0.0092 -0.3364 -0.0239
  863loPI   C5A12117   8.830  17.814   8.569  0.0526 -0.0091  0.3346
  863loPI   C6A12118   8.563  17.592   8.811 -0.2546 -0.0484  0.2080
  863loPI   C1B12119   9.447  17.285   6.986  0.1048 -0.0470 -0.1237
  863loPI   C2B12120   9.409  17.284   7.436  0.0183  0.0705 -0.1406
  863loPI   C3B12121   9.602  17.312   7.838  0.3091  0.0965  0.0542
  863loPI   C4B12122   9.451  17.458   8.261 -0.1644 -0.2095 -0.0814
  864loPI    C112123  10.538   1.070   5.200  0.0857  0.2768  0.3167
  864loPI    C212124  10.255   1.298   5.032 -0.1899 -0.2373  0.0578
  864loPI    C312125  10.557   1.157   4.810 -0.0098 -0.1132  0.2204
  864loPI   PO412126  10.504   1.192   5.483 -0.2218  0.0289 -0.0299
  864loPI   GL112127  10.876   1.222   5.875 -0.1390 -0.0312  0.0254
  864loPI   GL212128  10.624   1.215   5.965  0.0482 -0.1897  0.2882
  864loPI   C1A12129  11.323   1.116   6.209 -0.0420  0.0055  0.0829
  864loPI   C2A12130  11.422   0.979   6.459 -0.0929 -0.0460 -0.1934
  864loPI   C3A12131  11.298   0.770   6.869  0.1615 -0.0121  0.4359
  864loPI   C4A12132  11.029   0.599   7.143 -0.4244 -0.0013  0.2008
  864loPI   C5A12133  10.898   0.422   7.585 -0.1147 -0.0215  0.0913
  864loPI   C6A12134  10.595   0.230   7.803 -0.3015  0.0440 -0.2357
  864loPI   C1B12135  10.786   1.067   6.361  0.0685  0.0605 -0.3109
  864loPI   C2B12136  11.005   1.164   6.691  0.0202 -0.2426  0.4440
  864loPI   C3B12137  11.061   1.128   7.081 -0.0476 -0.0739 -0.1166
  864loPI   C4B12138  11.307   0.968   7.351  0.2678 -0.1423 -0.0591
  865loPI    C112139   5.945  15.444   6.334 -0.1080  0.4259  0.1516
  865loPI    C212140   5.761  15.155   6.128 -0.0753  0.1924  0.4426
  865loPI    C312141   5.979  15.430   5.936 -0.1848  0.0820  0.1540
  865loPI   PO412142   5.965  15.159   6.605 -0.0791 -0.0915 -0.2909
  865loPI   GL112143   5.854  14.785   6.750  0.0962  0.0600 -0.0626
  865loPI   GL212144   5.925  14.485   6.648 -0.1592 -0.2391 -0.2285
  865loPI   C1A12145   5.598  14.782   7.201  0.2805  0.2837  0.1336
  865loPI   C2A12146   5.482  15.183   7.409  0.0402  0.1176  0.2073
  865loPI   C3A12147   5.521  15.294   7.761  0.2612  0.3380 -0.0327
  865loPI   C4A12148   5.430  15.661   8.041  0.0141 -0.0936 -0.2232
  865loPI   C5A12149   5.619  15.843   8.267 -0.3025 -0.2544  0.2198
  865loPI   C6A12150   5.709  15.593   8.582  0.2441 -0.0816  0.0474
  865loPI   C1B12151   5.973  14.500   7.069 -0.1056  0.0296  0.0813
  865loPI   C2B12152   5.892  14.473   7.474 -0.0297 -0.1227 -0.3981
  865loPI   C3B12153   5.738  14.322   7.818 -0.1216 -0.2068 -0.1000
  865loPI   C4B12154   5.630  14.273   8.288  0.1911  0.0221  0.0944
  866loPI    C112155  10.479  11.934   6.014  0.0500 -0.0086 -0.0543
  866loPI    C212156  10.557  12.127   5.672 -0.0240 -0.1949 -0.1775
  866loPI    C312157  10.229  11.901   5.704  0.0692 -0.3128 -0.0400
  866loPI   PO412158  10.466  12.007   6.283  0.0217  0.0976 -0.1191
  866loPI   GL112159  10.625  12.116   6.640 -0.3037 -0.0434  0.0310
  866loPI   GL212160  10.814  12.315   6.592  0.1987 -0.0535  0.2400
  866loPI   C1A12161  10.569  12.020   6.991 -0.0221 -0.1016  0.2207
  866loPI   C2A12162  10.733  12.052   7.342  0.0998  0.1625  0.1958
  866loPI   C3A12163  10.806  12.065   7.734  0.2768  0.1266 -0.0227
  866loPI   C4A12164  10.660  11.970   8.135 -0.2533  0.4312 -0.2467
  866loPI   C5A12165  10.620  12.161   8.528  0.1642  0.0213  0.0127
  866loPI   C6A12166  10.828  12.256   8.810 -0.2410 -0.1855  0.1995
  866loPI   C1B12167  10.944  12.349   6.981  0.2170  0.2048 -0.1344
  866loPI   C2B12168  11.131  12.309   7.321 -0.2534 -0.1612 -0.0602
  866loPI   C3B12169  11.581  12.233   7.529  0.2229  0.3000  0.0829
  866loPI   C4B12170  11.746  12.040   7.919 -0.0101 -0.0204  0.1409
  867loPI    C112171  13.112   4.761   5.622  0.0361  0.1647  0.0006
  867loPI    C212172  13.306   4.869   5.289  0.0812  0.1589  0.0249
  867loPI    C312173  12.927   4.742   5.267  0.1704 -0.1006 -0.0582
  867loPI   PO412174  13.326   4.856   5.807 -0.0558  0.1908 -0.0516
  867loPI   GL112175  13.326   5.024   6.207  0.1634  0.0569 -0.2267
  867loPI   GL212176  13.656   4.875   6.227  0.0228 -0.0594  0.1251
  867loPI   C1A12177  13.447   5.141   6.658 -0.1799 -0.1502  0.0530
  867loPI   C2A12178  13.426   5.249   7.106 -0.3647 -0.1968 -0.2094
  867loPI   C3A12179  13.502   5.449   7.527 -0.1462 -0.1323  0.0165
  867loPI   C4A12180  13.366   5.544   7.945 -0.0762 -0.2317  0.0691
  867loPI   C5A12181  13.258   5.353   8.329 -0.0390 -0.0457  0.0958
  867loPI   C6A12182  12.934   5.425   8.638 -0.0109  0.0104 -0.0874
  867loPI   C1B12183  13.881   4.899   6.548  0.0086 -0.0975  0.0306
  867loPI   C2B12184  13.885   5.024   6.984 -0.0743 -0.1084  0.0380
  867loPI   C3B12185  13.917   5.038   7.456 -0.2340 -0.1058  0.0458
  867loPI   C4B12186  13.594   5.019   7.934 -0.0302  0.1149  0.1789
  868loPI    C112187  16.529  15.228   4.927 -0.1484 -0.0308 -0.1933
  868loPI    C212188  16.170  15.393   4.989  0.1715  0.6766 -0.1295
  868loPI    C312189  16.292  15.314   4.616 -0.1507  0.1710 -0.1370
  868loPI   PO412190  16.759  15.420   5.115 -0.1150  0.1731 -0.0533
  868loPI   GL112191  17.104  15.490   5.363 -0.0602 -0.0410  0.1514
  868loPI   GL212192  17.035  15.707   5.565  0.0416  0.2244  0.0693
  868loPI   C1A12193  17.257  15.396   5.877  0.4337 -0.0415 -0.0082
  868loPI   C2A12194  17.414  15.623   6.231  0.1099  0.0400 -0.1475
  868loPI   C3A12195  17.512  15.595   6.657  0.1931  0.0295 -0.1743
  868loPI   C4A12196  17.314  15.550   7.090  0.0993 -0.0930  0.3343
  868loPI   C5A12197  17.029  15.835   7.279  0.2745 -0.2631 -0.4608
  868loPI   C6A12198  16.715  16.027   7.042  0.2132  0.0844 -0.1487
  868loPI   C1B12199  16.967  15.773   6.010  0.1670  0.2152  0.1807
  868loPI   C2B12200  16.725  15.819   6.254  0.1086  0.1970 -0.2162
  868loPI   C3B12201  16.678  15.713   6.644  0.0050  0.0550 -0.0182
  868loPI   C4B12202  17.034  15.780   6.749  0.1778  0.2023 -0.0539
  869loPI    C112203   3.483   2.780   6.117 -0.2293 -0.0444  0.0213
  869loPI    C212204   3.483   2.653   6.497 -0.0937 -0.2856 -0.0565
  869loPI    C312205   3.650   2.428   6.211 -0.0553 -0.0336 -0.2360
  869loPI   PO412206   3.467   3.098   6.188 -0.0347 -0.0868 -0.1105
  869loPI   GL112207   3.445   3.388   6.455 -0.0964  0.2136 -0.2122
  869loPI   GL212208   3.518   3.191   6.679 -0.4983 -0.1213 -0.1160
  869loPI   C1A12209   3.254   3.560   6.800  0.1133  0.0004 -0.4035
  869loPI   C2A12210   3.167   3.512   7.229  0.0330  0.0679  0.0541
  869loPI   C3A12211   3.048   3.399   7.607  0.3020  0.2021 -0.3329
  869loPI   C4A12212   2.894   3.681   8.027  0.0578  0.0950  0.1601
  869loPI   C5A12213   2.658   3.624   8.376  0.0009 -0.3515  0.1568
  869loPI   C6A12214   2.380   3.858   8.670  0.0110 -0.1382 -0.2717
  869loPI   C1B12215   3.450   3.158   7.047 -0.0323 -0.0298  0.0056
  869loPI   C2B12216   3.608   3.320   7.467  0.1413 -0.1350  0.1568
  869loPI   C3B12217   3.616   3.349   7.811  0.1400  0.2527 -0.2607
  869loPI   C4B12218   3.459   3.426   8.240 -0.0879 -0.1155  0.0582
  870loPI    C112219   9.319   7.217   5.748  0.0188  0.3159 -0.0746
  870loPI    C212220   9.592   7.099   5.480 -0.2350 -0.0721 -0.1705
  870loPI    C312221   9.236   7.234   5.357 -0.3600 -0.2709 -0.0322
  870loPI   PO412222   9.500   7.061   5.980 -0.1310  0.0609 -0.1314
  870loPI   GL112223   9.764   7.103   6.288  0.4637  0.2180  0.0029
  870loPI   GL212224   9.921   7.264   6.395 -0.0405  0.2975  0.0456
  870loPI   C1A12225   9.650   6.975   6.732 -0.0475  0.2001 -0.0196
  870loPI   C2A12226   9.464   6.872   7.107 -0.1090  0.0611  0.1127
  870loPI   C3A12227   9.561   6.883   7.486 -0.2601  0.2614 -0.0079
  870loPI   C4A12228   9.468   6.712   7.965  0.0297 -0.1530 -0.2629
  870loPI   C5A12229   9.310   6.398   8.237  0.1200  0.1458 -0.1888
  870loPI   C6A12230   8.976   6.203   8.417 -0.0537  0.4088  0.0520
  870loPI   C1B12231   9.431   7.395   6.572  0.1570 -0.0685  0.1172
  870loPI   C2B12232   9.352   7.372   6.961  0.2717  0.5453 -0.0008
  870loPI   C3B12233   9.201   7.217   7.325 -0.0010 -0.1381 -0.0402
  870loPI   C4B12234   9.203   7.120   7.787  0.4945  0.2756 -0.1725
  871loPI    C112235   7.109   9.112   5.546  0.1860 -0.1509 -0.0312
  871loPI    C212236   7.504   9.153   5.500  0.1448  0.2088 -0.1001
  871loPI    C312237   7.265   9.471   5.463 -0.1589 -0.0164 -0.1159
  871loPI   PO412238   7.112   8.917   5.745 -0.0359  0.0907 -0.1948
  871loPI   GL112239   7.246   8.877   6.218  0.0597  0.1478 -0.1682
  871loPI   GL212240   7.577   8.873   6.385  0.4578 -0.0902 -0.2964
  871loPI   C1A12241   7.098   9.049   6.654 -0.0186  0.1102  0.3521
  871loPI   C2A12242   7.103   9.000   7.088  0.0814  0.0103 -0.0338
  871loPI   C3A12243   7.116   8.881   7.499  0.3160  0.2638  0.0590
  871loPI   C4A12244   7.037   8.824   7.907  0.3653 -0.3498  0.0931
  871loPI   C5A12245   7.276   8.999   8.274  0.1858 -0.0398  0.1299
  871loPI   C6A12246   7.480   8.760   8.591 -0.2288  0.2061  0.0613
  871loPI   C1B12247   7.599   8.736   6.743 -0.1880 -0.1363  0.0142
  871loPI   C2B12248   7.609   8.597   7.185  0.0423 -0.4000 -0.1194
  871loPI   C3B12249   7.550   8.646   7.512 -0.0822 -0.3899  0.1078
  871loPI   C4B12250   7.751   8.711   7.867  0.1542  0.2341  0.1645
  872loPI    C112251  17.661   9.306   5.510  0.1833 -0.0632 -0.0456
  872loPI    C212252  17.474   9.323   5.157  0.0429  0.3255  0.0426
  872loPI    C312253  17.873   9.340   5.173  0.0660  0.0059 -0.1129
  872loPI   PO412254  17.560   9.527   5.671 -0.1049 -0.0826 -0.0390
  872loPI   GL112255  17.318   9.608   5.901  0.3156  0.1035 -0.2993
  872loPI   GL212256  16.976   9.737   5.935  0.0454 -0.1311 -0.0128
  872loPI   C1A12257  17.525   9.936   6.220  0.1292 -0.0528  0.0038
  872loPI   C2A12258  17.708   9.881   6.615  0.1823  0.0971  0.1463
  872loPI   C3A12259  17.758   9.789   7.046  0.1069 -0.1233  0.1289
  872loPI   C4A12260  17.734   9.550   7.400  0.0090 -0.0206 -0.0052
  872loPI   C5A12261  17.707   9.421   7.795 -0.1483 -0.1471 -0.1943
  872loPI   C6A12262  17.947   9.312   8.188 -0.3520  0.3112 -0.2351
  872loPI   C1B12263  17.063  10.061   6.038 -0.0607  0.1101  0.3078
  872loPI   C2B12264  17.073  10.477   6.344  0.1751  0.1665 -0.2035
  872loPI   C3B12265  17.148  10.590   6.696  0.0456 -0.1379 -0.1508
  872loPI   C4B12266  17.190  10.685   7.096 -0.0185 -0.1272  0.0446
  873loPI    C112267  14.200  15.761   5.260  0.3991 -0.0709  0.0069
  873loPI    C212268  14.489  15.976   5.434  0.1382  0.0913  0.2491
  873loPI    C312269  14.254  16.144   5.157  0.2000 -0.0061  0.1366
  873loPI   PO412270  14.089  15.643   5.477 -0.2470  0.2306 -0.1380
  873loPI   GL112271  14.306  15.626   5.811 -0.0428  0.3823  0.0204
  873loPI   GL212272  14.645  15.742   5.853 -0.0880 -0.0281  0.2416
  873loPI   C1A12273  14.044  15.498   6.267  0.1929  0.0356 -0.2788
  873loPI   C2A12274  14.205  15.566   6.682  0.2525  0.2571 -0.0156
  873loPI   C3A12275  14.427  15.538   7.084 -0.1275  0.0548  0.2874
  873loPI   C4A12276  14.586  15.478   7.470  0.2022  0.1714 -0.1436
  873loPI   C5A12277  14.824  15.273   7.744  0.2076  0.1867 -0.1039
  873loPI   C6A12278  15.178  15.152   7.937  0.1308 -0.1027  0.1449
  873loPI   C1B12279  14.538  15.759   6.249 -0.0427  0.1607  0.3516
  873loPI   C2B12280  14.691  15.805   6.674 -0.2493 -0.0069 -0.0873
  873loPI   C3B12281  14.874  15.831   7.039  0.1632  0.2402 -0.1739
  873loPI   C4B12282  15.065  15.748   7.417 -0.0271 -0.0948  0.1144
  874loPI    C112283   7.898   2.741   6.137 -0.1099  0.0698 -0.0590
  874loPI    C212284   8.187   2.639   5.880  0.0080  0.0393  0.0843
  874loPI    C312285   7.880   2.864   5.757  0.0526  0.0075 -0.0877
  874loPI   PO412286   7.759   2.531   6.303 -0.0823 -0.0079  0.0319
  874loPI   GL112287   7.795   2.530   6.702  0.0102 -0.0659  0.1927
  874loPI   GL212288   7.535   2.719   6.742  0.0603  0.0473 -0.1810
  874loPI   C1A12289   7.744   2.567   7.180  0.3979  0.1159  0.1470
  874loPI   C2A12290   7.644   2.723   7.510  0.0741  0.2432  0.0954
  874loPI   C3A12291   7.581   2.514   7.887  0.4403 -0.1337  0.1163
  874loPI   C4A12292   7.685   2.123   8.162 -0.1245 -0.0595 -0.2112
  874loPI   C5A12293   7.698   1.687   8.280  0.0266 -0.1554 -0.0093
  874loPI   C6A12294   7.921   1.390   8.460 -0.0451  0.0278 -0.2223
  874loPI   C1B12295   7.291   2.869   7.108  0.2984 -0.0278  0.0196
  874loPI   C2B12296   7.139   2.805   7.590 -0.0179  0.0547 -0.4087
  874loPI   C3B12297   7.087   2.755   7.978 -0.0454  0.0506 -0.1545
  874loPI   C4B12298   7.102   2.597   8.434 -0.3923 -0.1193  0.0028
  875loPI    C112299   6.463   5.066   5.747  0.1543 -0.0143  0.0837
  875loPI    C212300   6.134   5.261   5.864  0.2176 -0.0484  0.3224
  875loPI    C312301   6.373   5.421   5.587 -0.0215 -0.0435  0.1154
  875loPI   PO412302   6.620   4.990   6.044  0.1598  0.1406 -0.0080
  875loPI   GL112303   6.728   5.160   6.404 -0.2573  0.3358  0.0332
  875loPI   GL212304   6.579   4.791   6.461 -0.0567  0.0756 -0.1452
  875loPI   C1A12305   6.615   5.254   6.823 -0.2040  0.0842  0.1747
  875loPI   C2A12306   6.421   5.348   7.267 -0.0250 -0.0326 -0.1027
  875loPI   C3A12307   6.372   5.454   7.755  0.0189 -0.1315  0.1845
  875loPI   C4A12308   6.283   5.719   8.072 -0.2706 -0.1323  0.2165
  875loPI   C5A12309   6.082   6.023   8.234 -0.0206  0.2062 -0.0274
  875loPI   C6A12310   5.906   6.308   8.575  0.0679 -0.2083  0.0959
  875loPI   C1B12311   6.652   4.671   6.867 -0.2504 -0.1028 -0.1446
  875loPI   C2B12312   6.633   4.828   7.269 -0.0223 -0.2962 -0.1410
  875loPI   C3B12313   6.737   5.073   7.641  0.0165 -0.2471 -0.3287
  875loPI   C4B12314   6.636   5.125   8.084 -0.2366  0.1301  0.3572
  876loPI    C112315   7.488   4.850   5.741  0.0027 -0.2215  0.2608
  876loPI    C212316   7.486   4.469   5.618  0.1091 -0.1017 -0.1249
  876loPI    C312317   7.283   4.747   5.414  0.1725  0.0796  0.0549
  876loPI   PO412318   7.593   4.789   6.036  0.1029  0.1984  0.1116
  876loPI   GL112319   7.502   4.654   6.428  0.1269  0.0606 -0.1715
  876loPI   GL212320   7.042   4.612   6.478 -0.1149  0.1010  0.1685
  876loPI   C1A12321   7.656   4.864   6.863  0.1036 -0.2322 -0.0208
  876loPI   C2A12322   7.585   4.977   7.367  0.4264  0.1118 -0.0214
  876loPI   C3A12323   7.314   5.270   7.568  0.0430 -0.3906 -0.1788
  876loPI   C4A12324   7.136   5.293   7.894  0.1513 -0.0350  0.1661
  876loPI   C5A12325   7.040   5.339   8.396 -0.1431 -0.1398 -0.3280
  876loPI   C6A12326   6.981   5.363   8.906 -0.1667 -0.3034  0.3827
  876loPI   C1B12327   7.130   4.752   6.941 -0.0413  0.0096  0.0448
  876loPI   C2B12328   7.112   4.867   7.369  0.0124 -0.1353 -0.0511
  876loPI   C3B12329   7.126   4.800   7.821 -0.0658  0.1762  0.0576
  876loPI   C4B12330   7.113   4.851   8.248 -0.3862  0.0883 -0.2410
  877loPI    C112331  11.368  13.962   5.453  0.3000 -0.2776 -0.0489
  877loPI    C212332  11.314  13.726   5.135 -0.0565  0.0603 -0.2477
  877loPI    C312333  11.011  13.795   5.387  0.1895 -0.1040  0.1003
  877loPI   PO412334  11.642  13.992   5.530  0.0180 -0.0722 -0.1250
  877loPI   GL112335  11.859  13.860   5.947 -0.1348  0.2260 -0.0954
  877loPI   GL212336  11.865  14.168   5.903 -0.0470 -0.1091  0.0010
  877loPI   C1A12337  11.963  13.814   6.335 -0.1095 -0.1549 -0.0605
  877loPI   C2A12338  12.121  13.904   6.632 -0.0012 -0.2129  0.1120
  877loPI   C3A12339  12.226  14.014   7.116 -0.1511  0.0259 -0.0704
  877loPI   C4A12340  12.310  14.114   7.394 -0.1054  0.1459  0.3271
  877loPI   C5A12341  12.401  14.215   7.831  0.0133 -0.0105 -0.0564
  877loPI   C6A12342  12.513  14.153   8.299 -0.1237 -0.2877  0.1971
  877loPI   C1B12343  11.867  14.298   6.324 -0.0801  0.0500 -0.2386
  877loPI   C2B12344  11.937  14.586   6.702  0.1048 -0.2272  0.1451
  877loPI   C3B12345  12.072  14.549   7.150 -0.0052  0.0957  0.2813
  877loPI   C4B12346  12.313  14.632   7.462  0.2765 -0.1309 -0.1083
  878loPI    C112347   3.899   3.317   6.134 -0.1943 -0.2744  0.1137
  878loPI    C212348   4.227   3.127   6.008  0.0007  0.2045 -0.1264
  878loPI    C312349   3.907   3.153   5.769 -0.0954  0.0210 -0.0200
  878loPI   PO412350   3.906   3.303   6.420 -0.0242  0.4475  0.1024
  878loPI   GL112351   4.263   3.375   6.717  0.0836  0.0512 -0.2065
  878loPI   GL212352   4.328   3.090   6.546  0.2106 -0.1655  0.0452
  878loPI   C1A12353   3.984   3.414   7.014  0.2099  0.0436 -0.0754
  878loPI   C2A12354   4.084   3.291   7.450 -0.4281  0.1238  0.0135
  878loPI   C3A12355   4.106   3.146   7.846 -0.0413  0.3889  0.0408
  878loPI   C4A12356   4.303   2.901   8.185  0.1287 -0.4660 -0.0593
  878loPI   C5A12357   4.106   2.539   8.331 -0.1221  0.1858  0.1040
  878loPI   C6A12358   3.829   2.230   8.363  0.0614  0.0352  0.2962
  878loPI   C1B12359   4.374   2.992   7.020  0.4970 -0.0792  0.1793
  878loPI   C2B12360   4.402   2.892   7.480  0.2155 -0.0707  0.1326
  878loPI   C3B12361   4.416   2.688   7.751 -0.2787 -0.0715 -0.1581
  878loPI   C4B12362   4.310   2.353   7.827 -0.2775  0.0527  0.0209
  879loPI    C112363   0.049   8.029   5.386 -0.2770  0.0717  0.1216
  879loPI    C212364   0.238   7.679   5.351 -0.2666  0.0658  0.2323
  879loPI    C312365  -0.001   7.807   5.058 -0.1025  0.0670  0.0971
  879loPI   PO412366   0.003   8.013   5.628 -0.2135  0.1672 -0.0004
  879loPI   GL112367   0.149   8.072   6.072  0.1081 -0.0853  0.2459
  879loPI   GL212368  -0.071   7.912   6.128  0.0318  0.1143  0.2235
  879loPI   C1A12369   0.200   8.340   6.420  0.1235  0.1684 -0.0260
  879loPI   C2A12370   0.291   8.214   6.817  0.0985  0.0202 -0.2163
  879loPI   C3A12371   0.388   8.215   7.254  0.0100 -0.0654  0.3394
  879loPI   C4A12372   0.492   8.403   7.669 -0.0353  0.0470  0.2841
  879loPI   C5A12373   0.650   8.490   8.139  0.2126 -0.1441  0.0510
  879loPI   C6A12374   0.551   8.557   8.555 -0.0084 -0.3728 -0.1160
  879loPI   C1B12375   0.232   7.793   6.476 -0.3175  0.1901 -0.0042
  879loPI   C2B12376   0.087   7.573   6.750  0.2169  0.0415  0.1510
  879loPI   C3B12377   0.098   7.324   7.089  0.0047 -0.0259  0.1161
  879loPI   C4B12378   0.423   7.342   7.331  0.2505 -0.1049 -0.0432
  880loPI    C112379  14.089   1.687   5.309 -0.0564 -0.1052  0.0740
  880loPI    C212380  13.727   1.800   5.181  0.0371  0.0228 -0.0812
  880loPI    C312381  14.034   1.784   4.925  0.0638 -0.4319 -0.0286
  880loPI   PO412382  14.055   1.714   5.642  0.0657  0.1485  0.1518
  880loPI   GL112383  14.222   1.616   6.078  0.2261 -0.0015  0.1436
  880loPI   GL212384  13.825   1.505   6.043 -0.2814 -0.0168  0.2955
  880loPI   C1A12385  14.287   1.557   6.549  0.3259  0.1116 -0.0311
  880loPI   C2A12386  14.293   1.473   6.994 -0.3407 -0.1450  0.3789
  880loPI   C3A12387  14.264   1.469   7.445 -0.0749 -0.0682  0.1005
  880loPI   C4A12388  14.256   1.244   7.834 -0.0968 -0.2011 -0.2538
  880loPI   C5A12389  13.973   1.003   8.117  0.0964 -0.1006 -0.0632
  880loPI   C6A12390  13.688   0.765   8.455 -0.1740 -0.2172 -0.1188
  880loPI   C1B12391  13.858   1.340   6.346 -0.1802  0.1246  0.2391
  880loPI   C2B12392  13.860   1.380   6.778  0.4542 -0.2083 -0.1249
  880loPI   C3B12393  13.968   1.086   7.115 -0.2646  0.1025  0.1075
  880loPI   C4B12394  13.813   1.010   7.566 -0.1297 -0.0688 -0.0886
  881loPI    C112395  15.331  17.573   5.291  0.1702 -0.1573  0.0416
  881loPI    C212396  15.251  17.622   4.902  0.0932 -0.3490  0.0318
  881loPI    C312397  15.005  17.405   5.130 -0.0043 -0.0196  0.2466
  881loPI   PO412398  15.336  17.797   5.426 -0.0096 -0.0704 -0.0987
  881loPI   GL112399  15.379  17.756   5.780 -0.0026  0.0704 -0.0502
  881loPI   GL212400  15.444  18.078   5.830 -0.1505  0.0125  0.0767
  881loPI   C1A12401  15.184  17.459   6.104  0.2351 -0.1826  0.1495
  881loPI   C2A12402  15.203  17.389   6.479  0.1113 -0.1289  0.0408
  881loPI   C3A12403  15.195  17.527   6.933 -0.0640  0.0544  0.1096
  881loPI   C4A12404  15.211  17.538   7.374 -0.0450 -0.0677 -0.0978
  881loPI   C5A12405  15.113  17.409   7.859  0.0869  0.1134  0.0212
  881loPI   C6A12406  15.133  17.073   8.125  0.1527 -0.2065 -0.0010
  881loPI   C1B12407  15.496  17.987   6.200  0.0258  0.0880  0.1372
  881loPI   C2B12408  15.477  17.877   6.680 -0.0837  0.0771  0.0201
  881loPI   C3B12409  15.488  17.927   7.113  0.0457  0.1700 -0.1462
  881loPI   C4B12410  15.544  17.869   7.497  0.0470  0.1674  0.1426
  882loPI    C112411   8.825  10.747   5.982  0.2466 -0.0482 -0.1414
  882loPI    C212412   8.563  10.947   5.756 -0.1508 -0.0491  0.3028
  882loPI    C312413   8.948  10.931   5.649 -0.2922  0.1074 -0.2641
  882loPI   PO412414   8.723  10.791   6.193  0.0153 -0.0300 -0.2462
  882loPI   GL112415   8.540  10.603   6.529 -0.2663 -0.0623 -0.0219
  882loPI   GL212416   8.902  10.663   6.598  0.0792 -0.0096  0.2990
  882loPI   C1A12417   8.415  10.503   6.919  0.2800  0.0370 -0.1658
  882loPI   C2A12418   8.481  10.514   7.339 -0.1280 -0.2820  0.1461
  882loPI   C3A12419   8.543  10.759   7.719 -0.1107 -0.2677  0.1031
  882loPI   C4A12420   8.641  10.762   8.133 -0.1314  0.0624  0.1048
  882loPI   C5A12421   8.849  10.772   8.535 -0.1273 -0.0773 -0.0181
  882loPI   C6A12422   8.752  10.865   8.987 -0.0928 -0.3165 -0.0654
  882loPI   C1B12423   9.145  10.858   6.946 -0.1918  0.2225 -0.1967
  882loPI   C2B12424   9.233  10.886   7.344  0.0632 -0.1898 -0.0689
  882loPI   C3B12425   8.964  10.999   7.739  0.0126 -0.0351  0.0006
  882loPI   C4B12426   9.094  10.989   8.144  0.1552 -0.1512  0.0099
  883loPI    C112427  15.456   2.602   5.669 -0.0702 -0.0050 -0.0740
  883loPI    C212428  15.658   2.445   5.362 -0.1157 -0.0550 -0.0786
  883loPI    C312429  15.386   2.731   5.297  0.0060  0.0646 -0.0643
  883loPI   PO412430  15.608   2.722   5.841  0.2752 -0.2971 -0.1386
  883loPI   GL112431  15.544   2.586   6.203 -0.3414 -0.3071 -0.1461
  883loPI   GL212432  15.645   2.258   6.306  0.0702  0.0553  0.0999
  883loPI   C1A12433  15.374   2.748   6.527  0.3148 -0.2798 -0.1840
  883loPI   C2A12434  15.367   2.780   6.962  0.0310  0.0943 -0.0053
  883loPI   C3A12435  15.372   2.668   7.322  0.1436  0.3051  0.0835
  883loPI   C4A12436  15.380   2.693   7.738 -0.1012 -0.1256  0.0473
  883loPI   C5A12437  15.376   2.706   8.164 -0.0023 -0.1983 -0.3022
  883loPI   C6A12438  15.342   2.338   8.404 -0.1215  0.2394  0.2543
  883loPI   C1B12439  15.626   2.321   6.716  0.0815  0.1269  0.0389
  883loPI   C2B12440  15.615   2.292   7.126 -0.0001 -0.1035  0.0496
  883loPI   C3B12441  15.431   2.198   7.550  0.0878 -0.0103 -0.1658
  883loPI   C4B12442  15.328   2.138   7.866  0.4298  0.0084  0.0490
  884loPI    C112443   6.906   5.278   5.726  0.0038 -0.0647 -0.1646
  884loPI    C212444   7.241   5.251   5.508  0.1149  0.1640 -0.0262
  884loPI    C312445   6.885   5.186   5.337  0.2234 -0.0046 -0.1921
  884loPI   PO412446   6.975   5.489   5.900  0.0180  0.0832 -0.3779
  884loPI   GL112447   7.129   5.482   6.304 -0.3314 -0.2067 -0.1923
  884loPI   GL212448   6.898   5.810   6.278 -0.2022  0.0467 -0.0096
  884loPI   C1A12449   7.198   5.140   6.653  0.1731  0.0278  0.0121
  884loPI   C2A12450   7.310   5.242   7.027 -0.1052 -0.2787 -0.0193
  884loPI   C3A12451   7.663   5.477   7.337 -0.1356 -0.0829  0.2143
  884loPI   C4A12452   7.685   5.576   7.744  0.0220 -0.0107 -0.1131
  884loPI   C5A12453   7.340   5.731   8.009 -0.1426 -0.0393  0.0333
  884loPI   C6A12454   7.225   6.056   8.262 -0.0088 -0.1139  0.0440
  884loPI   C1B12455   6.840   5.643   6.757  0.0734  0.1689  0.1244
  884loPI   C2B12456   6.921   5.537   7.172  0.0452 -0.1373 -0.0629
  884loPI   C3B12457   6.840   5.555   7.574 -0.1553  0.4443 -0.6004
  884loPI   C4B12458   6.871   5.659   8.079  0.0058  0.0516  0.4399
  885loPI    C112459   0.518  14.984   5.283 -0.0561  0.1027  0.0640
  885loPI    C212460   0.764  14.950   4.970 -0.1542 -0.0138 -0.0017
  885loPI    C312461   0.502  14.659   5.050 -0.4309  0.2113 -0.0706
  885loPI   PO412462   0.412  15.212   5.288 -0.0631 -0.0911 -0.2339
  885loPI   GL112463   0.409  15.361   5.695 -0.2351 -0.2441  0.1760
  885loPI   GL212464   0.056  15.302   5.665 -0.1161  0.0487  0.2584
  885loPI   C1A12465   0.278  15.311   6.152 -0.1880 -0.0885  0.0181
  885loPI   C2A12466   0.031  15.303   6.566  0.1616  0.1499  0.2505
  885loPI   C3A12467   0.069  15.192   6.988  0.1853 -0.2169  0.3220
  885loPI   C4A12468   0.095  15.207   7.385  0.1375  0.0461  0.1914
  885loPI   C5A12469  -0.062  15.344   7.715 -0.1664  0.2319 -0.0808
  885loPI   C6A12470  -0.446  15.534   7.643 -0.0717  0.2255  0.2344
  885loPI   C1B12471  -0.129  15.134   5.899  0.1132 -0.1486 -0.2784
  885loPI   C2B12472  -0.143  14.905   6.283 -0.5165 -0.0524 -0.1430
  885loPI   C3B12473  -0.073  14.498   6.463 -0.0484 -0.2021 -0.0658
  885loPI   C4B12474   0.122  14.156   6.392  0.1557  0.1082  0.2929
  886loPI    C112475  13.464   7.781   5.443 -0.1839 -0.1343 -0.0208
  886loPI    C212476  13.497   7.411   5.294  0.1945 -0.0808 -0.0775
  886loPI    C312477  13.786   7.680   5.229 -0.0390  0.2017  0.0335
  886loPI   PO412478  13.307   7.691   5.723 -0.2944 -0.2377 -0.0186
  886loPI   GL112479  13.205   7.430   6.147 -0.4234 -0.0869 -0.0755
  886loPI   GL212480  13.274   7.718   6.243 -0.1960  0.1167  0.1587
  886loPI   C1A12481  13.431   7.313   6.536  0.1497  0.1370 -0.2523
  886loPI   C2A12482  13.723   7.136   6.668  0.1192  0.0378  0.1840
  886loPI   C3A12483  13.580   6.798   6.957 -0.0653  0.0282  0.2945
  886loPI   C4A12484  13.722   6.500   7.231 -0.2939  0.0451 -0.1775
  886loPI   C5A12485  13.634   6.372   7.674 -0.1083  0.1112 -0.1646
  886loPI   C6A12486  13.747   6.198   8.046 -0.1823  0.0722 -0.5302
  886loPI   C1B12487  13.259   7.712   6.692  0.0210  0.1172  0.3982
  886loPI   C2B12488  13.342   7.475   7.016  0.0958 -0.0340 -0.2580
  886loPI   C3B12489  13.657   7.407   7.221  0.1320 -0.0085 -0.0357
  886loPI   C4B12490  13.622   6.990   7.529  0.1464  0.3404 -0.1156
  887loPI    C112491  11.725   5.183   5.932 -0.0340  0.0587  0.0203
  887loPI    C212492  11.787   5.263   5.545  0.0022 -0.2675 -0.0441
  887loPI    C312493  11.689   4.893   5.659  0.1419 -0.2088  0.2761
  887loPI   PO412494  11.661   5.352   5.987  0.1052  0.0916 -0.1414
  887loPI   GL112495  11.581   5.663   6.266  0.1349  0.1705 -0.0488
  887loPI   GL212496  11.465   5.398   6.481 -0.1836  0.1080 -0.1411
  887loPI   C1A12497  11.786   5.677   6.740  0.3517  0.1407  0.0768
  887loPI   C2A12498  11.881   5.688   7.097 -0.1073  0.0988  0.1261
  887loPI   C3A12499  11.751   5.832   7.546  0.1849  0.0091  0.0340
  887loPI   C4A12500  11.785   5.822   7.931 -0.2592 -0.0916  0.0072
  887loPI   C5A12501  12.021   5.734   8.378  0.0487 -0.2835  0.0969
  887loPI   C6A12502  11.959   5.641   8.781  0.2786  0.2638 -0.0064
  887loPI   C1B12503  11.352   5.396   6.897  0.0289 -0.0566 -0.1594
  887loPI   C2B12504  11.483   5.437   7.365  0.0605 -0.1328 -0.0872
  887loPI   C3B12505  11.435   5.408   7.852  0.0564  0.1833  0.4554
  887loPI   C4B12506  11.520   5.442   8.198  0.0172 -0.1994  0.0105
  888loPI    C112507  14.437   2.636   5.497  0.1442  0.1125 -0.1462
  888loPI    C212508  14.218   2.833   5.226 -0.1081 -0.1566 -0.1423
  888loPI    C312509  14.592   2.724   5.139  0.0127  0.2616 -0.1684
  888loPI   PO412510  14.253   2.535   5.621  0.1564  0.0451 -0.3386
  888loPI   GL112511  14.110   2.477   5.911 -0.0512 -0.0256  0.0273
  888loPI   GL212512  14.077   2.157   5.995  0.0279  0.0379 -0.2665
  888loPI   C1A12513  14.356   2.404   6.304  0.1691  0.0391 -0.2085
  888loPI   C2A12514  14.415   2.546   6.720 -0.0854 -0.2602  0.1287
  888loPI   C3A12515  14.556   2.454   7.156 -0.1082  0.0420  0.0788
  888loPI   C4A12516  14.552   2.473   7.606  0.1136  0.0407  0.1424
  888loPI   C5A12517  14.257   2.239   7.864 -0.0200 -0.1773 -0.0189
  888loPI   C6A12518  14.070   2.088   8.220 -0.0268  0.0333 -0.0366
  888loPI   C1B12519  14.030   1.945   6.358  0.0423  0.0862 -0.0082
  888loPI   C2B12520  13.857   1.881   6.875 -0.0478 -0.2087  0.3040
  888loPI   C3B12521  13.801   1.619   7.230  0.2116 -0.1977 -0.1365
  888loPI   C4B12522  13.826   1.510   7.717  0.0635 -0.0507  0.0544
  889loPI    C112523  14.108  11.194   5.564  0.1459 -0.0259  0.0787
  889loPI    C212524  14.432  10.977   5.652  0.0107 -0.1516  0.2734
  889loPI    C312525  14.151  10.827   5.410  0.0800 -0.0563  0.1326
  889loPI   PO412526  14.080  11.299   5.716  0.0624  0.0358  0.0474
  889loPI   GL112527  14.247  11.376   6.132 -0.1908 -0.0327 -0.0435
  889loPI   GL212528  14.324  11.087   6.170 -0.3314 -0.1739  0.1502
  889loPI   C1A12529  14.290  11.747   6.470  0.1690  0.1162 -0.0232
  889loPI   C2A12530  14.391  11.762   6.867 -0.2019  0.0673 -0.1108
  889loPI   C3A12531  14.540  11.791   7.291  0.3975 -0.0424 -0.2126
  889loPI   C4A12532  14.753  11.785   7.647  0.1917 -0.0281  0.2136
  889loPI   C5A12533  14.815  11.950   8.048  0.3310 -0.1840 -0.0783
  889loPI   C6A12534  14.953  12.252   8.194 -0.0901  0.3486  0.0776
  889loPI   C1B12535  14.407  11.166   6.554 -0.2055  0.0173  0.2444
  889loPI   C2B12536  14.602  11.261   6.998 -0.0774  0.0931  0.0467
  889loPI   C3B12537  14.814  11.332   7.293 -0.3378 -0.1731 -0.1232
  889loPI   C4B12538  14.897  11.265   7.712  0.2621 -0.0125  0.3183
  890loPI    C112539   1.604   7.481   5.834  0.3104  0.0375 -0.1273
  890loPI    C212540   1.486   7.623   5.479 -0.0539 -0.1369 -0.0800
  890loPI    C312541   1.659   7.263   5.503  0.3447  0.0461 -0.1273
  890loPI   PO412542   1.462   7.613   6.031  0.2773 -0.0653 -0.3632
  890loPI   GL112543   1.478   7.857   6.331  0.0331 -0.2048 -0.0665
  890loPI   GL212544   1.596   7.668   6.594  0.1017 -0.1458  0.1306
  890loPI   C1A12545   1.151   7.918   6.688 -0.0534 -0.1463  0.0002
  890loPI   C2A12546   0.991   7.824   7.034 -0.0372 -0.0755 -0.1152
  890loPI   C3A12547   0.786   7.926   7.450 -0.1308  0.3813 -0.1589
  890loPI   C4A12548   0.417   7.796   7.677  0.1385 -0.1069 -0.2948
  890loPI   C5A12549   0.086   7.760   7.875  0.0480 -0.1037  0.2687
  890loPI   C6A12550  -0.240   7.990   8.187  0.0213 -0.3449  0.0037
  890loPI   C1B12551   1.383   7.518   6.881 -0.0536 -0.2878  0.0263
  890loPI   C2B12552   1.432   7.350   7.319  0.0106 -0.2775  0.3219
  890loPI   C3B12553   1.220   7.203   7.664  0.2876  0.3191 -0.0239
  890loPI   C4B12554   1.347   6.939   7.938 -0.0762  0.3046  0.0289
  891loPI    C112555  12.512  11.785   5.883  0.2461 -0.0220  0.1596
  891loPI    C212556  12.720  11.542   5.644 -0.0053  0.1122 -0.2047
  891loPI    C312557  12.411  11.750   5.497 -0.1987  0.1589  0.2525
  891loPI   PO412558  12.755  11.815   6.045  0.0272 -0.1028  0.1119
  891loPI   GL112559  12.754  12.162   6.372  0.0955  0.1195 -0.1111
  891loPI   GL212560  12.911  12.434   6.274  0.1157  0.0655  0.1618
  891loPI   C1A12561  12.637  12.156   6.737  0.2187 -0.2662 -0.1908
  891loPI   C2A12562  12.752  12.223   7.168 -0.1073 -0.1077  0.0886
  891loPI   C3A12563  12.901  12.186   7.580 -0.2465  0.2647  0.3581
  891loPI   C4A12564  13.208  12.092   7.949  0.1272 -0.0336  0.2202
  891loPI   C5A12565  13.675  11.822   8.025  0.1572  0.1121 -0.1303
  891loPI   C6A12566  14.003  11.835   8.381  0.0161  0.1091  0.1173
  891loPI   C1B12567  13.065  12.583   6.617  0.0137  0.1838  0.2342
  891loPI   C2B12568  13.091  12.622   7.108 -0.0895  0.1232 -0.1450
  891loPI   C3B12569  13.259  12.652   7.551  0.1404 -0.2191  0.0289
  891loPI   C4B12570  13.536  12.488   7.859 -0.2236 -0.2888 -0.1746
  892loPI    C112571  14.732  16.358   5.161  0.0414  0.0326 -0.1013
  892loPI    C212572  14.545  16.547   4.863 -0.0877 -0.1125 -0.1137
  892loPI    C312573  14.688  16.178   4.806 -0.0090 -0.0949 -0.0312
  892loPI   PO412574  14.908  16.470   5.265  0.0987  0.2665 -0.0377
  892loPI   GL112575  15.186  16.468   5.589  0.1089 -0.1028 -0.3194
  892loPI   GL212576  15.386  16.281   5.795  0.0995 -0.0463 -0.1410
  892loPI   C1A12577  14.958  16.659   6.037  0.2431  0.3103  0.1226
  892loPI   C2A12578  15.162  16.901   6.369 -0.0499 -0.1345 -0.5139
  892loPI   C3A12579  15.258  17.043   6.809 -0.2051  0.0229 -0.0659
  892loPI   C4A12580  15.358  17.048   7.253 -0.2175  0.0852  0.0400
  892loPI   C5A12581  15.470  17.194   7.693  0.1864  0.1963  0.2600
  892loPI   C6A12582  15.564  17.596   7.977 -0.0434  0.1558 -0.0954
  892loPI   C1B12583  15.441  16.421   6.173 -0.1639 -0.0252 -0.0288
  892loPI   C2B12584  15.276  16.492   6.680  0.1503 -0.0960  0.0530
  892loPI   C3B12585  15.408  16.557   7.195  0.6619 -0.2801 -0.3316
  892loPI   C4B12586  15.684  16.320   7.573  0.3220  0.2801 -0.0719
  893loPI    C112587  13.176   9.447   5.739 -0.1044  0.1577  0.0161
  893loPI    C212588  13.384   9.637   5.455  0.0312 -0.0524 -0.0276
  893loPI    C312589  12.994   9.564   5.402  0.0837 -0.2037 -0.2185
  893loPI   PO412590  13.241   9.495   6.004  0.0916  0.0526 -0.2303
  893loPI   GL112591  13.111   9.387   6.359 -0.0824  0.1036  0.2396
  893loPI   GL212592  12.859   9.183   6.376  0.0694  0.0625 -0.4740
  893loPI   C1A12593  13.385   9.201   6.619  0.0479 -0.2706 -0.3819
  893loPI   C2A12594  13.413   9.123   7.071  0.0004 -0.1285 -0.1543
  893loPI   C3A12595  13.586   9.207   7.523 -0.0378 -0.0089  0.0033
  893loPI   C4A12596  13.661   9.389   7.899  0.2243 -0.1157  0.0133
  893loPI   C5A12597  13.756   9.752   8.199 -0.2556 -0.0891 -0.1549
  893loPI   C6A12598  13.826   9.878   8.637 -0.0777 -0.4406  0.0878
  893loPI   C1B12599  12.506   9.036   6.615 -0.3374 -0.3041  0.0980
  893loPI   C2B12600  12.423   9.183   7.013 -0.0626 -0.1917 -0.0964
  893loPI   C3B12601  12.539   9.148   7.394  0.3963 -0.2046 -0.2040
  893loPI   C4B12602  12.422   9.179   7.779  0.3818 -0.1620  0.1684
  894loPI    C112603  10.910  14.222   6.070  0.0467  0.3744 -0.0150
  894loPI    C212604  10.768  14.040   5.743  0.0063  0.0919  0.1566
  894loPI    C312605  11.037  14.334   5.707  0.0171  0.0502 -0.1286
  894loPI   PO412606  10.998  13.950   6.267  0.1840  0.0537 -0.0986
  894loPI   GL112607  10.822  13.703   6.572 -0.1121  0.0320  0.0577
  894loPI   GL212608  11.120  13.915   6.742 -0.1690  0.1596 -0.0730
  894loPI   C1A12609  10.790  13.716   7.079 -0.1223 -0.0221 -0.3445
  894loPI   C2A12610  10.762  13.670   7.556  0.0467  0.2880 -0.2899
  894loPI   C3A12611  10.770  13.645   7.949  0.1118  0.1802  0.4424
  894loPI   C4A12612  10.575  13.701   8.302  0.1933  0.0222 -0.1172
  894loPI   C5A12613  10.143  13.767   8.468 -0.2532 -0.0927 -0.0771
  894loPI   C6A12614   9.712  13.854   8.719  0.2090 -0.1708  0.2885
  894loPI   C1B12615  11.271  13.903   7.138 -0.1179  0.2218  0.0725
  894loPI   C2B12616  11.273  13.943   7.541  0.3719  0.2930  0.2180
  894loPI   C3B12617  11.365  13.967   7.964 -0.3696  0.2348 -0.0168
  894loPI   C4B12618  11.642  13.683   8.232 -0.2265  0.1724  0.0274
  895loPI    C112619  10.561   0.675   5.923  0.1974  0.1849  0.1015
  895loPI    C212620  10.641   0.653   5.532  0.2552 -0.0462  0.1245
  895loPI    C312621  10.285   0.785   5.656  0.2330  0.0181 -0.0060
  895loPI   PO412622  10.628   0.443   6.054 -0.0316 -0.4155  0.0149
  895loPI   GL112623  10.890   0.092   6.195  0.3571 -0.4266  0.1032
  895loPI   GL212624  10.853  -0.202   6.081 -0.0013 -0.1897 -0.0263
  895loPI   C1A12625  10.881   0.131   6.622  0.2817  0.0577  0.1201
  895loPI   C2A12626  10.894   0.136   7.120 -0.0440 -0.0461  0.1954
  895loPI   C3A12627  10.886  -0.068   7.514 -0.1451 -0.0466  0.2451
  895loPI   C4A12628  11.241  -0.230   7.740 -0.0198  0.2768  0.1763
  895loPI   C5A12629  11.220  -0.422   8.088  0.1372 -0.1082 -0.0336
  895loPI   C6A12630  11.059  -0.077   8.432 -0.1361  0.1038 -0.0552
  895loPI   C1B12631  10.831  -0.424   6.484  0.4815 -0.3404  0.3365
  895loPI   C2B12632  10.807  -0.595   6.879  0.0138 -0.1062  0.0601
  895loPI   C3B12633  10.750  -0.673   7.304  0.1039  0.1370  0.0499
  895loPI   C4B12634  10.827  -0.550   7.740  0.2643 -0.2285 -0.0324
  896loPI    C112635  13.946  17.793   5.060 -0.1589 -0.0726  0.2244
  896loPI    C212636  13.790  18.094   4.847 -0.0692 -0.0302  0.2184
  896loPI    C312637  13.750  17.717   4.719 -0.0131 -0.0050  0.1244
  896loPI   PO412638  13.891  17.860   5.283 -0.0262  0.1272 -0.2115
  896loPI   GL112639  14.091  17.673   5.762  0.2155 -0.3067  0.0987
  896loPI   GL212640  14.142  17.978   5.691 -0.1474  0.0515 -0.0912
  896loPI   C1A12641  13.823  17.471   6.091  0.2617 -0.1405  0.0238
  896loPI   C2A12642  13.872  17.400   6.552  0.1478 -0.2124  0.3052
  896loPI   C3A12643  13.945  17.362   6.881  0.0959 -0.4669 -0.2797
  896loPI   C4A12644  13.958  17.233   7.260  0.4342 -0.1473 -0.1685
  896loPI   C5A12645  13.680  17.008   7.504  0.1587 -0.0041 -0.0154
  896loPI   C6A12646  13.417  16.825   7.817  0.1528 -0.1079  0.1652
  896loPI   C1B12647  13.884  18.072   6.031  0.0565  0.3181 -0.0869
  896loPI   C2B12648  13.911  17.892   6.410 -0.1733  0.0677  0.2234
  896loPI   C3B12649  13.947  17.874   6.937 -0.0399 -0.0710  0.2899
  896loPI   C4B12650  14.001  17.926   7.268 -0.0265 -0.3642 -0.0922
  897loPI    C112651  15.780   7.404   5.858  0.0842 -0.1270 -0.0933
  897loPI    C212652  15.382   7.387   5.886  0.1046  0.0181  0.3591
  897loPI    C312653  15.553   7.643   5.631 -0.0897 -0.1593  0.0446
  897loPI   PO412654  15.798   7.089   5.988  0.0497 -0.0846 -0.1749
  897loPI   GL112655  15.681   6.946   6.288  0.1442  0.3021 -0.1826
  897loPI   GL212656  15.488   7.233   6.329 -0.1080  0.3510  0.1331
  897loPI   C1A12657  15.687   7.029   6.737 -0.0977  0.5705 -0.0304
  897loPI   C2A12658  15.688   6.991   7.127 -0.1838 -0.1979 -0.1451
  897loPI   C3A12659  15.471   6.751   7.487 -0.2180  0.0366  0.0912
  897loPI   C4A12660  15.432   6.694   7.924 -0.1147 -0.0101 -0.3180
  897loPI   C5A12661  15.508   6.863   8.402  0.0468 -0.4578  0.0974
  897loPI   C6A12662  15.401   7.325   8.509  0.1372  0.3641 -0.2663
  897loPI   C1B12663  15.521   7.470   6.658 -0.0549 -0.2257 -0.1194
  897loPI   C2B12664  15.542   7.554   7.060  0.1072 -0.3145 -0.2506
  897loPI   C3B12665  15.517   7.389   7.494  0.2839  0.1818  0.1444
  897loPI   C4B12666  15.487   7.203   7.984  0.1867  0.0597  0.1702
  898loPI    C112667   2.037   2.704   5.710  0.1668 -0.0393  0.2172
  898loPI    C212668   2.396   2.532   5.676  0.1473 -0.0188 -0.1336
  898loPI    C312669   2.197   2.644   5.348 -0.1708 -0.0092  0.0590
  898loPI   PO412670   1.989   2.547   5.980 -0.0890  0.0574 -0.1468
  898loPI   GL112671   2.029   2.664   6.459 -0.3855 -0.1662  0.1815
  898loPI   GL212672   2.076   2.323   6.437 -0.1861  0.2454 -0.0398
  898loPI   C1A12673   1.989   2.972   6.825  0.1387 -0.1181 -0.1288
  898loPI   C2A12674   1.951   3.049   7.249 -0.0526  0.1026  0.0757
  898loPI   C3A12675   1.968   2.782   7.570  0.0205  0.0122 -0.0377
  898loPI   C4A12676   1.979   2.674   7.988 -0.0854 -0.1255 -0.1205
  898loPI   C5A12677   2.071   2.700   8.437  0.0401  0.2605  0.1863
  898loPI   C6A12678   2.464   2.491   8.666  0.2176  0.0313  0.2195
  898loPI   C1B12679   1.979   2.458   6.941  0.0446  0.0712  0.1619
  898loPI   C2B12680   1.946   2.262   7.357  0.0934 -0.1012 -0.0696
  898loPI   C3B12681   1.694   2.290   7.744 -0.0581 -0.0968  0.0082
  898loPI   C4B12682   1.668   2.412   8.255  0.1489 -0.1361 -0.2188
  899loPI    C112683   7.458  11.659   5.773  0.2196  0.1085 -0.1275
  899loPI    C212684   7.444  11.273   5.875 -0.1048  0.1242 -0.0993
  899loPI    C312685   7.439  11.378   5.489  0.3292  0.0921 -0.1189
  899loPI   PO412686   7.357  11.775   5.874  0.0648 -0.1646  0.0022
  899loPI   GL112687   7.351  11.806   6.284  0.1100  0.3312 -0.0562
  899loPI   GL212688   7.168  11.859   6.507 -0.0610  0.1660  0.2730
  899loPI   C1A12689   7.673  11.827   6.571 -0.1417 -0.1110  0.2258
  899loPI   C2A12690   7.673  11.681   7.034 -0.3223  0.1878 -0.3252
  899loPI   C3A12691   7.712  11.567   7.515 -0.0436 -0.3650 -0.0478
  899loPI   C4A12692   7.624  11.557   7.919  0.1238  0.1859 -0.0278
  899loPI   C5A12693   7.677  11.568   8.419 -0.2287 -0.4105 -0.1130
  899loPI   C6A12694   7.718  12.068   8.624  0.3646 -0.0012  0.2521
  899loPI   C1B12695   7.310  11.947   6.882  0.0075 -0.3096 -0.3443
  899loPI   C2B12696   7.316  11.891   7.254 -0.2938  0.0846 -0.2666
  899loPI   C3B12697   7.319  11.929   7.630  0.1143  0.1314 -0.0375
  899loPI   C4B12698   7.426  11.970   8.104 -0.3694 -0.0543  0.1260
  900loPI    C112699   6.709   7.686   5.972 -0.0421 -0.3078  0.1924
  900loPI    C212700   6.654   7.373   5.729  0.0485 -0.1334 -0.0573
  900loPI    C312701   7.008   7.560   5.738 -0.0431  0.0392 -0.0029
  900loPI   PO412702   6.532   7.813   6.098 -0.1221 -0.1461 -0.0094
  900loPI   GL112703   6.579   7.762   6.505  0.0066  0.0025  0.3971
  900loPI   GL212704   6.795   7.964   6.517 -0.0108  0.1639 -0.0658
  900loPI   C1A12705   6.581   7.495   6.829 -0.0217  0.0673  0.0091
  900loPI   C2A12706   6.557   7.513   7.191 -0.1143  0.0772 -0.1108
  900loPI   C3A12707   6.596   7.709   7.557 -0.0208 -0.1137  0.1908
  900loPI   C4A12708   6.857   7.754   7.902  0.1203  0.0816 -0.1676
  900loPI   C5A12709   7.208   7.975   8.155  0.1604 -0.1214 -0.0391
  900loPI   C6A12710   7.581   8.097   8.435  0.0450 -0.2190  0.0337
  900loPI   C1B12711   6.710   7.949   6.964  0.0228  0.0773  0.1334
  900loPI   C2B12712   6.615   8.140   7.427 -0.3920  0.0186 -0.0764
  900loPI   C3B12713   6.575   8.134   7.826 -0.0587 -0.1279 -0.2891
  900loPI   C4B12714   6.704   8.115   8.218 -0.1058  0.1172 -0.0659
  901loPI    C112715   1.451   0.681   5.822 -0.1727  0.3285  0.1031
  901loPI    C212716   1.837   0.638   5.728 -0.2237  0.0758  0.0034
  901loPI    C312717   1.606   0.887   5.516 -0.1544  0.1016 -0.0423
  901loPI   PO412718   1.418   0.455   5.946 -0.1133 -0.0172  0.2817
  901loPI   GL112719   1.469   0.312   6.404 -0.1270 -0.0215 -0.3215
  901loPI   GL212720   1.458   0.610   6.379 -0.3400  0.1090 -0.0792
  901loPI   C1A12721   1.428   0.234   6.929 -0.1119  0.0688 -0.3340
  901loPI   C2A12722   1.386   0.138   7.388  0.2784 -0.1099  0.2264
  901loPI   C3A12723   1.141  -0.223   7.604  0.0049 -0.1165  0.0676
  901loPI   C4A12724   1.182  -0.465   7.932 -0.0734 -0.0178  0.1029
  901loPI   C5A12725   1.640  -0.653   7.983 -0.1334 -0.0400 -0.0044
  901loPI   C6A12726   1.987  -0.598   7.900  0.1914  0.1838  0.1969
  901loPI   C1B12727   1.656   0.669   6.770 -0.3507 -0.0283  0.1552
  901loPI   C2B12728   1.550   0.774   7.184 -0.1071  0.2590  0.0095
  901loPI   C3B12729   1.531   0.616   7.547  0.0240  0.0567 -0.2090
  901loPI   C4B12730   1.295   0.702   7.889 -0.0183 -0.2534  0.0885
  902loPI    C112731  13.208   2.828   5.743  0.0644 -0.0626 -0.0519
  902loPI    C212732  12.974   2.922   5.432  0.1900 -0.0849 -0.1538
  902loPI    C312733  13.273   2.660   5.386  0.2506 -0.0383 -0.0303
  902loPI   PO412734  13.294   3.117   5.796  0.1745 -0.0054  0.1691
  902loPI   GL112735  13.377   3.350   6.067 -0.1637 -0.0452  0.0286
  902loPI   GL212736  13.581   3.604   6.018  0.2834 -0.2862 -0.3323
  902loPI   C1A12737  13.173   3.368   6.533  0.0367 -0.0806  0.0807
  902loPI   C2A12738  13.170   3.207   6.848  0.1639  0.0082  0.0937
  902loPI   C3A12739  13.109   3.152   7.308 -0.0614 -0.0686  0.0639
  902loPI   C4A12740  13.116   2.899   7.613  0.0530  0.0236 -0.1684
  902loPI   C5A12741  13.335   2.618   7.960  0.2604  0.0147 -0.0316
  902loPI   C6A12742  13.266   2.295   8.323  0.2219 -0.0797  0.2353
  902loPI   C1B12743  13.558   3.736   6.431 -0.2105  0.2811  0.3918
  902loPI   C2B12744  13.660   3.565   6.831  0.0203  0.2120  0.0331
  902loPI   C3B12745  13.978   3.438   6.937 -0.0474  0.3518 -0.3233
  902loPI   C4B12746  14.061   3.399   7.330  0.0514 -0.1744  0.1692
  903loPI    C112747   8.205   0.639   5.630 -0.0537  0.0593 -0.1531
  903loPI    C212748   8.093   0.332   5.400  0.3023 -0.1838 -0.0104
  903loPI    C312749   8.413   0.549   5.301 -0.0135  0.2209 -0.1727
  903loPI   PO412750   8.249   0.542   5.901  0.3324 -0.1203  0.0554
  903loPI   GL112751   8.325   0.553   6.326  0.0614  0.1060 -0.0630
  903loPI   GL212752   7.996   0.510   6.390 -0.1504 -0.0364 -0.0905
  903loPI   C1A12753   8.409   0.773   6.512  0.1805 -0.1656  0.0676
  903loPI   C2A12754   8.290   0.863   6.929 -0.2275 -0.0095 -0.2705
  903loPI   C3A12755   8.349   0.884   7.325 -0.0620  0.1387 -0.2457
  903loPI   C4A12756   8.344   1.059   7.747 -0.4095  0.3703 -0.1943
  903loPI   C5A12757   8.479   1.059   8.179 -0.2310 -0.1182  0.1910
  903loPI   C6A12758   8.657   1.032   8.597 -0.0774 -0.0917  0.0560
  903loPI   C1B12759   7.960   0.531   6.803 -0.2309  0.1301 -0.2888
  903loPI   C2B12760   7.941   0.513   7.215  0.0015  0.0919  0.2426
  903loPI   C3B12761   8.002   0.647   7.634 -0.2516  0.0999 -0.0642
  903loPI   C4B12762   7.969   0.426   8.118 -0.3323  0.1318  0.1591
  904loPI    C112763   6.015  17.520   5.986  0.1260  0.1685 -0.1452
  904loPI    C212764   5.811  17.512   5.642 -0.0472  0.2537 -0.0458
  904loPI    C312765   5.953  17.172   5.798 -0.1556  0.1873 -0.0911
  904loPI   PO412766   5.809  17.662   6.196  0.5892  0.0981 -0.1563
  904loPI   GL112767   5.654  17.694   6.588 -0.1318  0.2650  0.0331
  904loPI   GL212768   5.354  17.526   6.515 -0.4370 -0.0719  0.1752
  904loPI   C1A12769   5.413  17.838   6.896 -0.0692  0.2977  0.1320
  904loPI   C2A12770   5.196  17.715   7.253 -0.4731  0.1195  0.0923
  904loPI   C3A12771   5.237  17.532   7.612 -0.0329  0.1066  0.0449
  904loPI   C4A12772   4.931  17.412   7.954  0.0392  0.1936 -0.0639
  904loPI   C5A12773   4.500  17.652   8.045 -0.1886  0.0384  0.0593
  904loPI   C6A12774   4.214  17.590   7.859 -0.2467  0.2093  0.2337
  904loPI   C1B12775   5.383  17.332   6.930 -0.1180 -0.0785  0.1059
  904loPI   C2B12776   5.639  17.418   7.345 -0.3001 -0.2669 -0.2363
  904loPI   C3B12777   5.686  17.626   7.737 -0.1699 -0.1643  0.0021
  904loPI   C4B12778   5.917  17.781   8.099 -0.0107 -0.0258  0.3021
  905loPI    C112779   1.985  10.035   5.828 -0.1530  0.0502  0.0373
  905loPI    C212780   1.664  10.245   5.716  0.0884  0.2503 -0.2984
  905loPI    C312781   1.733   9.885   5.557 -0.1790  0.0263  0.0746
  905loPI   PO412782   2.018  10.078   6.087 -0.0518  0.2063  0.0205
  905loPI   GL112783   1.724  10.214   6.470 -0.1588 -0.0305 -0.1128
  905loPI   GL212784   1.604  10.500   6.388  0.0714 -0.1115  0.0609
  905loPI   C1A12785   1.768  10.134   6.928  0.0236  0.0501  0.1411
  905loPI   C2A12786   1.740  10.206   7.378 -0.1531 -0.0944  0.1882
  905loPI   C3A12787   1.978   9.859   7.635  0.0101  0.1129 -0.1619
  905loPI   C4A12788   2.053   9.803   8.074 -0.0445  0.4449  0.1024
  905loPI   C5A12789   1.968   9.599   8.547 -0.0093  0.1574  0.3742
  905loPI   C6A12790   1.918   9.366   8.916 -0.1178  0.2238  0.1851
  905loPI   C1B12791   1.599  10.712   6.741 -0.1655 -0.0860 -0.3784
  905loPI   C2B12792   1.544  10.668   7.224  0.0746  0.0644  0.2111
  905loPI   C3B12793   1.604  10.713   7.622  0.0228 -0.1531 -0.1636
  905loPI   C4B12794   1.384  10.797   7.971 -0.1759  0.1521  0.0467
  906loPI    C112795   8.454  17.249   5.953 -0.1216 -0.1111 -0.0412
  906loPI    C212796   8.465  17.054   5.603  0.1525 -0.0896 -0.0468
  906loPI    C312797   8.776  17.278   5.717 -0.0339  0.0977  0.1021
  906loPI   PO412798   8.221  17.446   6.036 -0.2743 -0.2442 -0.2129
  906loPI   GL112799   7.827  17.516   6.304 -0.2322 -0.1271 -0.0235
  906loPI   GL212800   8.028  17.211   6.396  0.1525  0.2744  0.0636
  906loPI   C1A12801   7.747  17.381   6.788 -0.0989 -0.1181  0.0230
  906loPI   C2A12802   7.805  17.309   7.138  0.0184 -0.1119  0.1260
  906loPI   C3A12803   7.598  17.229   7.407 -0.1854  0.1036 -0.2069
  906loPI   C4A12804   7.390  17.256   7.860  0.1716 -0.1432 -0.1294
  906loPI   C5A12805   7.162  17.153   8.222  0.1758 -0.3532  0.2310
  906loPI   C6A12806   7.060  17.348   8.543  0.0777 -0.0383  0.0743
  906loPI   C1B12807   8.254  17.399   6.752 -0.3179  0.1261  0.1452
  906loPI   C2B12808   8.322  17.324   7.164  0.0136 -0.0085  0.0689
  906loPI   C3B12809   8.398  17.170   7.592  0.3211 -0.1139  0.1042
  906loPI   C4B12810   8.326  16.747   7.733 -0.1941 -0.1793 -0.0802
  907loPI    C112811  12.563   9.488   5.717  0.0663 -0.1291  0.1682
  907loPI    C212812  12.599   9.193   5.448 -0.0661 -0.1982  0.2252
  907loPI    C312813  12.250   9.383   5.491  0.0544  0.0566  0.0973
  907loPI   PO412814  12.673   9.458   5.910 -0.0855  0.0448 -0.0171
  907loPI   GL112815  12.856   9.797   6.296  0.3461 -0.2500  0.0582
  907loPI   GL212816  12.829  10.219   6.309  0.0840 -0.1029 -0.3698
  907loPI   C1A12817  12.847   9.728   6.717  0.0057 -0.0623  0.2933
  907loPI   C2A12818  12.964   9.945   7.021 -0.1109  0.1039 -0.1623
  907loPI   C3A12819  12.908   9.888   7.489 -0.0572 -0.1116 -0.0750
  907loPI   C4A12820  12.798   9.963   7.962 -0.0203 -0.3647  0.0163
  907loPI   C5A12821  12.598   9.942   8.324  0.2547 -0.2125  0.0236
  907loPI   C6A12822  12.501   9.631   8.622  0.0343  0.3601  0.3388
  907loPI   C1B12823  12.658  10.303   6.751  0.2153  0.0990 -0.1544
  907loPI   C2B12824  12.304  10.325   6.959 -0.0718 -0.0262 -0.1823
  907loPI   C3B12825  12.078  10.541   7.241 -0.1224  0.1185  0.1073
  907loPI   C4B12826  12.163  10.594   7.711 -0.4479  0.3594  0.0159
  908loPI    C112827   1.573  14.368   5.684 -0.1260 -0.1448 -0.0653
  908loPI    C212828   1.473  14.131   5.990  0.0461 -0.2094 -0.0579
  908loPI    C312829   1.208  14.204   5.699 -0.1807 -0.0051  0.1938
  908loPI   PO412830   1.743  14.516   5.767  0.1389  0.1110  0.2816
  908loPI   GL112831   1.649  14.701   6.079 -0.2326  0.0945 -0.0929
  908loPI   GL212832   1.709  15.009   6.038  0.2471 -0.0079 -0.0702
  908loPI   C1A12833   1.323  14.479   6.302  0.1908 -0.2103 -0.4681
  908loPI   C2A12834   1.045  14.587   6.540 -0.0405 -0.1895  0.2050
  908loPI   C3A12835   0.672  14.480   6.640  0.0895 -0.1253  0.0429
  908loPI   C4A12836   0.293  14.353   6.804  0.1699 -0.2388 -0.0095
  908loPI   C5A12837   0.307  14.142   7.143 -0.0440  0.1276  0.0938
  908loPI   C6A12838   0.519  13.958   7.532  0.0746  0.0560  0.2656
  908loPI   C1B12839   1.803  15.091   6.496 -0.0530  0.3442  0.0868
  908loPI   C2B12840   2.013  15.266   6.930 -0.1169 -0.1158  0.2264
  908loPI   C3B12841   1.989  15.171   7.407 -0.1701 -0.4302  0.4571
  908loPI   C4B12842   2.059  15.415   7.743 -0.1070  0.1869 -0.2820
  909loPI    C112843  17.632   3.787   6.006  0.1606  0.2861  0.0934
  909loPI    C212844  17.979   3.603   5.929  0.0138  0.0205  0.0561
  909loPI    C312845  17.662   3.539   5.693 -0.2348 -0.2280  0.4456
  909loPI   PO412846  17.549   3.788   6.185 -0.0902 -0.0238  0.2508
  909loPI   GL112847  17.422   3.550   6.500 -0.2160 -0.1699 -0.4921
  909loPI   GL212848  17.089   3.417   6.327 -0.3614  0.1069 -0.0681
  909loPI   C1A12849  17.496   3.694   6.964 -0.0001 -0.1193  0.1257
  909loPI   C2A12850  17.398   3.626   7.415 -0.2128  0.0064  0.2743
  909loPI   C3A12851  17.637   3.643   7.781  0.2096  0.0701 -0.1681
  909loPI   C4A12852  17.771   3.378   8.110  0.0644 -0.1862  0.0895
  909loPI   C5A12853  18.189   3.356   8.294 -0.0937  0.1444 -0.4142
  909loPI   C6A12854  18.605   3.341   8.346 -0.0137 -0.2950 -0.0412
  909loPI   C1B12855  17.029   3.393   6.714 -0.0067 -0.0859 -0.0243
  909loPI   C2B12856  17.022   3.447   7.105 -0.0687 -0.2955 -0.2752
  909loPI   C3B12857  17.110   3.165   7.586  0.0266  0.1138 -0.2196
  909loPI   C4B12858  16.967   3.113   8.007 -0.2170 -0.2706  0.0523
  910loPI    C112859  12.480   2.994   5.699 -0.1074 -0.2862  0.1658
  910loPI    C212860  12.489   2.621   5.555 -0.2952 -0.2187 -0.0255
  910loPI    C312861  12.364   2.922   5.323  0.0969  0.0046  0.0433
  910loPI   PO412862  12.678   3.063   5.842  0.0780 -0.3576 -0.1023
  910loPI   GL112863  13.010   2.965   6.207  0.0389  0.1222 -0.2627
  910loPI   GL212864  12.835   2.748   6.516 -0.2114  0.2279 -0.1854
  910loPI   C1A12865  13.303   2.895   6.472  0.1931  0.0200 -0.0604
  910loPI   C2A12866  13.282   2.708   6.897  0.0955  0.0573  0.0832
  910loPI   C3A12867  13.583   2.504   7.151 -0.0556 -0.1966 -0.1351
  910loPI   C4A12868  13.708   2.112   7.310  0.2028  0.0829 -0.1310
  910loPI   C5A12869  13.706   2.012   7.776 -0.0794 -0.1938  0.4741
  910loPI   C6A12870  13.553   1.877   8.264  0.1078 -0.0489 -0.0390
  910loPI   C1B12871  12.747   2.889   6.885 -0.1950 -0.0855  0.1287
  910loPI   C2B12872  12.651   2.886   7.368  0.1308 -0.2718  0.2231
  910loPI   C3B12873  12.672   3.180   7.672 -0.2156  0.1358 -0.2461
  910loPI   C4B12874  12.756   3.126   8.186 -0.1815  0.2552 -0.3357
  911loPI    C112875  10.549   1.715   5.837 -0.2061  0.2276  0.1494
  911loPI    C212876  10.348   1.629   5.502 -0.1253  0.1585  0.1182
  911loPI    C312877  10.586   1.950   5.515 -0.0850  0.1297  0.0911
  911loPI   PO412878  10.271   1.651   6.044  0.0872  0.1201 -0.0810
  911loPI   GL112879  10.348   1.324   6.383  0.0804  0.2520  0.1937
  911loPI   GL212880  10.119   1.423   6.443 -0.1987  0.0390 -0.0045
  911loPI   C1A12881  10.589   1.350   6.743 -0.1290  0.0968 -0.0863
  911loPI   C2A12882  10.575   1.300   7.163  0.3969 -0.1731  0.2199
  911loPI   C3A12883  10.858   1.302   7.568  0.1026 -0.0623  0.2101
  911loPI   C4A12884  11.045   1.056   7.844 -0.2761  0.0579 -0.1139
  911loPI   C5A12885  11.176   0.638   7.967 -0.1851 -0.1556  0.0586
  911loPI   C6A12886  11.179   0.175   7.986 -0.1195 -0.1961 -0.2174
  911loPI   C1B12887  10.181   1.510   6.972 -0.0295  0.0652  0.1742
  911loPI   C2B12888  10.103   1.849   7.393  0.1931 -0.0617  0.0457
  911loPI   C3B12889   9.955   2.178   7.629  0.0395  0.0895 -0.1615
  911loPI   C4B12890   9.738   2.118   8.096 -0.2268  0.2270  0.0265
  912loPI    C112891  16.735  16.510   5.047  0.2091 -0.1701  0.0216
  912loPI    C212892  17.059  16.353   4.874  0.1593 -0.1953 -0.0493
  912loPI    C312893  16.695  16.230   4.764  0.1223 -0.0878 -0.0480
  912loPI   PO412894  16.787  16.544   5.357  0.2062 -0.0556  0.1415
  912loPI   GL112895  16.578  16.697   5.761  0.0560  0.4325  0.1594
  912loPI   GL212896  16.706  16.962   5.592 -0.0033 -0.1952 -0.1910
  912loPI   C1A12897  16.666  16.693   6.216  0.0599  0.1278 -0.0479
  912loPI   C2A12898  16.443  16.676   6.498 -0.1114  0.0358 -0.1016
  912loPI   C3A12899  16.190  16.625   6.930  0.2702  0.2180  0.2018
  912loPI   C4A12900  16.206  16.356   7.392  0.0920 -0.1083  0.1258
  912loPI   C5A12901  16.129  16.169   7.805  0.0834 -0.1953 -0.0625
  912loPI   C6A12902  15.827  15.859   8.095 -0.1034  0.2359  0.2004
  912loPI   C1B12903  16.746  17.165   6.101  0.0936 -0.0590  0.2725
  912loPI   C2B12904  16.692  17.156   6.564  0.0902 -0.0073 -0.1362
  912loPI   C3B12905  16.751  16.894   6.882 -0.2110  0.3753 -0.0331
  912loPI   C4B12906  16.644  16.505   7.093 -0.0348  0.1284 -0.0047
  913loPI    C112907   0.287  17.120   5.257 -0.1999  0.0040 -0.0091
  913loPI    C212908   0.486  17.107   4.911 -0.0406 -0.0514  0.0837
  913loPI    C312909   0.475  17.446   5.122 -0.0086 -0.0600  0.0990
  913loPI   PO412910   0.448  16.964   5.451 -0.0812  0.0913 -0.0720
  913loPI   GL112911   0.368  16.904   5.846 -0.0083  0.1522  0.1705
  913loPI   GL212912   0.582  17.096   5.936  0.3023  0.2128 -0.1970
  913loPI   C1A12913   0.177  16.871   6.282 -0.1710  0.2232 -0.1423
  913loPI   C2A12914   0.150  16.595   6.620 -0.0926 -0.0700  0.1143
  913loPI   C3A12915   0.057  16.264   6.790  0.0102  0.0494 -0.1574
  913loPI   C4A12916   0.134  16.032   7.197 -0.3669 -0.0808 -0.1457
  913loPI   C5A12917   0.139  15.829   7.553  0.3657  0.1775 -0.3776
  913loPI   C6A12918   0.523  15.533   7.719 -0.1698 -0.2075 -0.0645
  913loPI   C1B12919   0.626  17.271   6.329  0.0529 -0.0396 -0.0344
  913loPI   C2B12920   0.379  17.159   6.717  0.3770 -0.1064  0.1679
  913loPI   C3B12921   0.385  17.088   7.162  0.2242  0.3579 -0.3163
  913loPI   C4B12922   0.498  16.967   7.549  0.1358  0.0177  0.1210
  914loPI    C112923   0.706  14.221   5.161 -0.0869 -0.1180 -0.0941
  914loPI    C212924   1.097  14.259   5.235 -0.0813 -0.2417 -0.0576
  914loPI    C312925   0.941  14.412   4.900 -0.0001 -0.2000 -0.0765
  914loPI   PO412926   0.623  14.295   5.416  0.1129 -0.0112 -0.1794
  914loPI   GL112927   0.785  14.461   5.841  0.0772 -0.0405  0.1640
  914loPI   GL212928   0.949  14.296   6.117 -0.4767 -0.1772 -0.2167
  914loPI   C1A12929   0.455  14.376   6.062  0.2286  0.0789  0.0086
  914loPI   C2A12930   0.305  14.730   6.285 -0.2746 -0.1736 -0.0093
  914loPI   C3A12931   0.211  14.807   6.698  0.2030 -0.2604 -0.1970
  914loPI   C4A12932   0.025  14.665   7.098 -0.1197 -0.0931  0.1546
  914loPI   C5A12933  -0.040  14.736   7.519  0.0492 -0.3000  0.1269
  914loPI   C6A12934  -0.224  14.542   7.919  0.1695  0.1743  0.1290
  914loPI   C1B12935   1.035  14.076   6.491 -0.0264  0.2589  0.3390
  914loPI   C2B12936   0.973  14.068   6.941 -0.2228 -0.3216 -0.2610
  914loPI   C3B12937   0.903  14.265   7.377 -0.0461 -0.2864 -0.1923
  914loPI   C4B12938   0.747  14.369   7.788 -0.2947 -0.1948  0.1692
  915loPI    C112939  15.788   5.401   5.919 -0.1575 -0.0231 -0.0302
  915loPI    C212940  15.725   5.113   5.649 -0.2052  0.0016 -0.0456
  915loPI    C312941  15.701   5.497   5.541  0.2756  0.0160 -0.1252
  915loPI   PO412942  15.943   5.279   6.057  0.2026 -0.1040 -0.0753
  915loPI   GL112943  16.192   5.314   6.424  0.4111  0.0417 -0.1532
  915loPI   GL212944  16.480   5.335   6.560  0.1155 -0.3574  0.0846
  915loPI   C1A12945  16.031   5.511   6.790 -0.1425 -0.1901  0.0234
  915loPI   C2A12946  16.014   5.527   7.236  0.0807  0.0337 -0.1311
  915loPI   C3A12947  16.140   5.476   7.688 -0.1179 -0.1393  0.2718
  915loPI   C4A12948  16.321   5.287   7.938  0.0635 -0.2377 -0.1302
  915loPI   C5A12949  16.545   5.179   8.381  0.2621 -0.0821 -0.2793
  915loPI   C6A12950  16.441   4.903   8.592 -0.1510 -0.1078 -0.0413
  915loPI   C1B12951  16.590   5.258   6.914 -0.2373 -0.0906 -0.3017
  915loPI   C2B12952  16.511   5.375   7.276  0.2394 -0.1373 -0.2548
  915loPI   C3B12953  16.734   5.329   7.671 -0.2181  0.2770 -0.0312
  915loPI   C4B12954  16.902   5.294   8.077 -0.0600 -0.0860 -0.1727
  916loPI    C112955  13.066  17.473   5.117  0.0046  0.1902 -0.1661
  916loPI    C212956  13.363  17.430   4.853  0.0435 -0.1830 -0.0667
  916loPI    C312957  13.036  17.199   4.828 -0.0495 -0.0694  0.0802
  916loPI   PO412958  13.206  17.443   5.346 -0.0129  0.2827  0.0418
  916loPI   GL112959  13.112  17.470   5.736 -0.1006  0.1796  0.2103
  916loPI   GL212960  13.021  17.109   5.752  0.0006  0.0201  0.3673
  916loPI   C1A12961  13.050  17.437   6.116 -0.1253 -0.1862  0.4957
  916loPI   C2A12962  12.969  17.575   6.502 -0.3297 -0.3078  0.1400
  916loPI   C3A12963  13.008  17.393   6.888  0.1915 -0.0034  0.0858
  916loPI   C4A12964  13.190  17.534   7.249 -0.2338  0.0969 -0.2009
  916loPI   C5A12965  13.264  17.341   7.732  0.4734  0.0532 -0.0974
  916loPI   C6A12966  13.438  17.193   8.171 -0.2598  0.1519 -0.0954
  916loPI   C1B12967  12.900  16.977   6.052 -0.1227 -0.1199 -0.0887
  916loPI   C2B12968  12.825  16.886   6.496 -0.0534 -0.0467  0.0103
  916loPI   C3B12969  12.957  16.915   6.856 -0.2858  0.0510  0.1317
  916loPI   C4B12970  13.095  16.832   7.293  0.1564 -0.0615  0.2779
  917loPI    C112971   8.656   5.567   5.749  0.0046  0.0736 -0.1266
  917loPI    C212972   8.294   5.597   5.916  0.1527 -0.0964  0.2348
  917loPI    C312973   8.370   5.305   5.654  0.0165 -0.0331  0.1237
  917loPI   PO412974   8.826   5.608   5.924  0.2066 -0.0137 -0.2818
  917loPI   GL112975   8.809   5.582   6.338  0.1248  0.3355  0.0166
  917loPI   GL212976   8.587   5.834   6.356 -0.2999 -0.2594  0.1648
  917loPI   C1A12977   8.991   5.538   6.680  0.1186 -0.1109  0.1509
  917loPI   C2A12978   8.918   5.477   7.040  0.0679 -0.0715 -0.2403
  917loPI   C3A12979   8.950   5.484   7.468  0.3947 -0.2870 -0.3781
  917loPI   C4A12980   8.807   5.729   7.792 -0.1658 -0.0701  0.0725
  917loPI   C5A12981   8.678   5.875   8.048 -0.0385 -0.0996  0.1227
  917loPI   C6A12982   8.472   6.221   8.381  0.0104 -0.5834 -0.2206
  917loPI   C1B12983   8.610   5.810   6.829 -0.0246  0.2803 -0.0276
  917loPI   C2B12984   8.543   5.843   7.339  0.0684 -0.3082  0.3017
  917loPI   C3B12985   8.527   6.209   7.668  0.0277 -0.0543  0.2437
  917loPI   C4B12986   8.586   6.525   7.882 -0.2656 -0.3858  0.1121
  918loPI    C112987   5.820   5.873   5.805  0.1366  0.0641  0.0346
  918loPI    C212988   5.910   5.701   5.455 -0.2026 -0.1275  0.0374
  918loPI    C312989   5.543   5.849   5.517 -0.0959  0.0514  0.2560
  918loPI   PO412990   6.067   5.754   5.929  0.0716 -0.1333  0.0038
  918loPI   GL112991   5.927   5.509   6.304 -0.0152  0.2397 -0.0027
  918loPI   GL212992   5.592   5.505   6.244 -0.0432  0.1210  0.1641
  918loPI   C1A12993   6.118   5.441   6.673 -0.1206  0.3355 -0.3363
  918loPI   C2A12994   5.996   5.482   7.062  0.0046  0.2358  0.2887
  918loPI   C3A12995   5.919   5.455   7.445  0.0744  0.0212 -0.0413
  918loPI   C4A12996   5.939   5.224   7.776  0.1134  0.2898  0.1113
  918loPI   C5A12997   5.971   5.379   8.251  0.0350 -0.1075 -0.1124
  918loPI   C6A12998   5.726   5.300   8.688 -0.2858  0.2113 -0.1461
  918loPI   C1B12999   5.730   5.791   6.691 -0.0199 -0.0670 -0.0401
  918loPI   C2B13000   5.778   5.990   7.144 -0.0868 -0.0067  0.0770
  918loPI   C3B13001   5.573   6.010   7.653 -0.0012  0.0235 -0.0114
  918loPI   C4B13002   5.798   5.735   7.922 -0.3606  0.1852  0.3949
  919loPI    C113003  15.282  11.568   5.220  0.2133  0.0265  0.0546
  919loPI    C213004  15.603  11.787   5.127  0.2438  0.0561  0.2272
  919loPI    C313005  15.646  11.401   5.224  0.1609 -0.1106 -0.3614
  919loPI   PO413006  15.086  11.724   5.367  0.2637 -0.1991  0.1514
  919loPI   GL113007  15.031  11.899   5.807 -0.0662  0.2473 -0.1891
  919loPI   GL213008  15.112  11.610   5.924 -0.0934  0.1637 -0.1615
  919loPI   C1A13009  14.878  12.018   6.109 -0.2067  0.1162 -0.0057
  919loPI   C2A13010  14.658  12.073   6.469 -0.1478  0.1124  0.0409
  919loPI   C3A13011  14.743  12.154   6.894 -0.0282 -0.2531  0.0844
  919loPI   C4A13012  14.895  12.159   7.303 -0.1425 -0.2212  0.1570
  919loPI   C5A13013  15.107  12.229   7.734  0.2776 -0.2749  0.6419
  919loPI   C6A13014  15.454  12.228   8.089  0.0598 -0.1531  0.2112
  919loPI   C1B13015  15.215  11.612   6.298 -0.2598  0.1832  0.0239
  919loPI   C2B13016  15.335  11.559   6.704  0.0943  0.1349 -0.1842
  919loPI   C3B13017  15.527  11.546   7.103 -0.2463 -0.1839 -0.0596
  919loPI   C4B13018  15.654  11.600   7.452  0.0041 -0.0926 -0.0575
  920loPI    C113019   7.133   3.427   5.773  0.0543 -0.3726  0.0031
  920loPI    C213020   7.505   3.326   5.666  0.0624 -0.1342 -0.2020
  920loPI    C313021   7.304   3.600   5.456 -0.0959  0.0042  0.1230
  920loPI   PO413022   7.127   3.263   5.992 -0.1205 -0.0090 -0.2044
  920loPI   GL113023   7.209   3.391   6.363 -0.0855 -0.1777 -0.0215
  920loPI   GL213024   7.279   3.186   6.595 -0.3162 -0.2975  0.2957
  920loPI   C1A13025   7.003   3.597   6.713  0.1065 -0.1078 -0.0679
  920loPI   C2A13026   6.965   3.706   7.085  0.1900 -0.2151 -0.1220
  920loPI   C3A13027   6.989   3.655   7.505  0.0083 -0.1303 -0.0414
  920loPI   C4A13028   7.179   3.813   7.904  0.4822 -0.3328  0.0931
  920loPI   C5A13029   7.442   4.069   8.242 -0.0749 -0.0275  0.0169
  920loPI   C6A13030   7.735   4.215   8.525 -0.2990 -0.1456 -0.1016
  920loPI   C1B13031   7.358   3.353   7.041 -0.0439 -0.0223  0.0744
  920loPI   C2B13032   7.500   3.175   7.450 -0.2244  0.1304 -0.0249
  920loPI   C3B13033   7.439   3.080   7.847  0.0114 -0.1436 -0.1769
  920loPI   C4B13034   7.463   2.932   8.281  0.0534 -0.2010  0.1927
  921loPI    C113035   5.725  13.366   6.187 -0.1690 -0.1022 -0.0381
  921loPI    C213036   5.703  13.627   5.885 -0.0968 -0.1368 -0.0737
  921loPI    C313037   6.043  13.591   6.093 -0.0965 -0.2248 -0.0891
  921loPI   PO413038   5.515  13.384   6.320 -0.1147  0.0479 -0.0823
  921loPI   GL113039   5.297  13.158   6.677  0.4509 -0.0100  0.0765
  921loPI   GL213040   5.535  13.078   6.728 -0.0704 -0.2669  0.1829
  921loPI   C1A13041   5.236  13.168   7.154  0.1270  0.1927  0.0654
  921loPI   C2A13042   5.227  13.056   7.598  0.1178 -0.2700  0.2462
  921loPI   C3A13043   5.180  12.909   8.145  0.2072  0.0309  0.1494
  921loPI   C4A13044   5.441  12.792   8.439 -0.4477  0.1531 -0.2372
  921loPI   C5A13045   5.527  12.438   8.191  0.0224  0.2176 -0.0829
  921loPI   C6A13046   5.789  12.132   8.152 -0.2230  0.1893  0.1634
  921loPI   C1B13047   5.782  13.236   7.174 -0.0974 -0.2135 -0.2120
  921loPI   C2B13048   6.000  13.152   7.583  0.2034  0.0164 -0.1847
  921loPI   C3B13049   6.146  12.928   7.889  0.2465 -0.2027 -0.0607
  921loPI   C4B13050   6.052  12.874   8.309 -0.3027 -0.1646  0.0873
  922loPI    C113051  15.191   2.108   5.563 -0.1163  0.0176  0.1781
  922loPI    C213052  15.220   2.237   5.185 -0.2381  0.0661  0.1849
  922loPI    C313053  15.496   1.988   5.333 -0.1856  0.0532  0.0665
  922loPI   PO413054  14.916   1.999   5.611  0.0265  0.0731 -0.3583
  922loPI   GL113055  14.677   1.855   5.918 -0.1260 -0.1010  0.2818
  922loPI   GL213056  15.044   1.717   5.992  0.1397 -0.2112 -0.1614
  922loPI   C1A13057  14.551   1.955   6.367  0.2337 -0.2648  0.3543
  922loPI   C2A13058  14.467   2.002   6.763 -0.2101 -0.0096 -0.1893
  922loPI   C3A13059  14.676   1.950   7.151 -0.1755 -0.0382 -0.2320
  922loPI   C4A13060  14.566   1.843   7.693  0.0131  0.0486 -0.2069
  922loPI   C5A13061  14.259   1.714   7.889  0.3285  0.0173  0.1359
  922loPI   C6A13062  13.955   1.590   8.192 -0.0990  0.2193 -0.1381
  922loPI   C1B13063  15.043   1.806   6.442  0.2580 -0.1180 -0.4019
  922loPI   C2B13064  15.129   1.827   6.934 -0.0098  0.0866  0.0197
  922loPI   C3B13065  15.175   1.775   7.335 -0.0676  0.1834 -0.2915
  922loPI   C4B13066  15.110   1.671   7.828  0.0861  0.1382 -0.3814
  923loPI    C113067   4.535   8.926   5.889  0.0654  0.2040 -0.0372
  923loPI    C213068   4.775   8.913   5.570 -0.1208 -0.0687 -0.1694
  923loPI    C313069   4.385   8.988   5.524 -0.1181  0.0635  0.0127
  923loPI   PO413070   4.772   9.125   6.106  0.1215 -0.1648  0.1580
  923loPI   GL113071   4.598   9.243   6.432 -0.1067 -0.2217 -0.1019
  923loPI   GL213072   4.241   9.159   6.437 -0.2382  0.1668 -0.0852
  923loPI   C1A13073   4.614   9.273   6.943 -0.0489  0.0693 -0.1116
  923loPI   C2A13074   4.438   9.179   7.432 -0.1179  0.0762  0.3401
  923loPI   C3A13075   4.500   9.289   7.933  0.0096 -0.3919  0.0398
  923loPI   C4A13076   4.549   9.194   8.239 -0.3053  0.1254  0.1423
  923loPI   C5A13077   4.381   8.981   8.552  0.0978 -0.5506 -0.2671
  923loPI   C6A13078   4.208   8.965   8.980 -0.1162 -0.0535 -0.1141
  923loPI   C1B13079   4.221   9.038   6.826 -0.1211  0.1044  0.0037
  923loPI   C2B13080   4.018   9.053   7.177 -0.2284  0.0657  0.2419
  923loPI   C3B13081   3.987   9.122   7.668 -0.0224  0.0733  0.2087
  923loPI   C4B13082   4.197   8.897   8.050  0.0288 -0.0676 -0.0871
  924loPI    C113083   0.251  11.155   5.272 -0.1417 -0.1860  0.1309
  924loPI    C213084  -0.138  11.153   5.182 -0.1083 -0.0277 -0.0223
  924loPI    C313085   0.078  11.485   5.128  0.0514 -0.1186  0.0498
  924loPI   PO413086   0.223  10.981   5.470 -0.2823 -0.1084 -0.0995
  924loPI   GL113087   0.281  11.079   6.025  0.1682  0.1651 -0.0634
  924loPI   GL213088  -0.053  11.293   6.156 -0.1156  0.0314  0.1294
  924loPI   C1A13089   0.387  11.377   6.095 -0.1116 -0.3306  0.0052
  924loPI   C2A13090   0.343  11.690   6.400  0.0421  0.0466 -0.2023
  924loPI   C3A13091   0.484  11.562   6.844 -0.0266  0.1426  0.0470
  924loPI   C4A13092   0.565  11.620   7.291 -0.0670 -0.2534 -0.0923
  924loPI   C5A13093   0.969  11.517   7.634 -0.0700  0.1595  0.4187
  924loPI   C6A13094   1.041  11.501   8.062 -0.0914  0.2088 -0.0298
  924loPI   C1B13095   0.103  11.213   6.487 -0.0383  0.1287  0.1956
  924loPI   C2B13096   0.082  11.222   6.925 -0.0815  0.3794 -0.0362
  924loPI   C3B13097   0.111  11.183   7.330  0.1765 -0.0362 -0.3398
  924loPI   C4B13098   0.137  11.499   7.688  0.0929  0.1984  0.1579
  925loPI    C113099  14.089  13.024   5.594  0.0170  0.1405 -0.0780
  925loPI    C213100  14.400  12.801   5.477  0.0279  0.1948 -0.1535
  925loPI    C313101  14.159  12.966   5.204 -0.0952  0.1143 -0.0944
  925loPI   PO413102  14.164  12.995   5.864  0.0352  0.0607 -0.3136
  925loPI   GL113103  14.358  13.200   6.116  0.1107  0.0284  0.1653
  925loPI   GL213104  14.100  13.469   5.956 -0.2018  0.3466  0.2737
  925loPI   C1A13105  14.388  13.301   6.609  0.1859 -0.2355 -0.2220
  925loPI   C2A13106  14.380  13.384   7.052  0.0645 -0.1893 -0.1765
  925loPI   C3A13107  14.137  13.362   7.422  0.0509  0.1373 -0.1039
  925loPI   C4A13108  14.072  13.461   7.833 -0.1181 -0.0722 -0.4972
  925loPI   C5A13109  13.883  13.740   8.044 -0.2157 -0.1405 -0.3518
  925loPI   C6A13110  13.821  14.184   7.793 -0.2336  0.0284  0.0872
  925loPI   C1B13111  14.093  13.749   6.316 -0.2490  0.2878  0.1579
  925loPI   C2B13112  14.199  13.914   6.812 -0.0629  0.0562  0.0037
  925loPI   C3B13113  14.297  13.896   7.277 -0.1110  0.1176 -0.0014
  925loPI   C4B13114  14.010  13.823   7.543  0.1764  0.0034 -0.0521
  926loPI    C113115  11.080   4.898   5.781 -0.1300 -0.1294 -0.0117
  926loPI    C213116  11.213   5.011   5.421  0.0121  0.0355  0.0908
  926loPI    C313117  10.832   5.077   5.524  0.0740  0.3639  0.1224
  926loPI   PO413118  11.230   4.953   5.960 -0.3797 -0.2568 -0.0028
  926loPI   GL113119  11.126   5.031   6.327 -0.4599  0.0332  0.2107
  926loPI   GL213120  10.899   5.238   6.571  0.1905 -0.0106 -0.1133
  926loPI   C1A13121  11.502   4.930   6.604  0.1190  0.1951 -0.0776
  926loPI   C2A13122  11.576   4.904   7.113 -0.0019 -0.1536  0.1126
  926loPI   C3A13123  11.610   4.798   7.561 -0.2264 -0.0877  0.0404
  926loPI   C4A13124  11.612   4.914   7.972 -0.1956 -0.3388  0.1395
  926loPI   C5A13125  11.570   4.979   8.329 -0.2821 -0.0676 -0.0630
  926loPI   C6A13126  11.475   4.875   8.792 -0.0094 -0.2366 -0.0816
  926loPI   C1B13127  10.814   5.471   6.939 -0.2552  0.2858  0.2334
  926loPI   C2B13128  10.890   5.518   7.320 -0.2813  0.1297 -0.1025
  926loPI   C3B13129  10.896   5.609   7.752 -0.3638 -0.0060 -0.1953
  926loPI   C4B13130  11.000   5.587   8.191  0.1084  0.3108 -0.0979
  927loPI    C113131   3.225   7.005   6.016 -0.1148 -0.0013  0.0728
  927loPI    C213132   3.027   6.983   5.669  0.0725 -0.0405 -0.0330
  927loPI    C313133   3.417   6.895   5.683  0.0758  0.0018  0.1801
  927loPI   PO413134   3.223   7.197   6.105  0.0738 -0.0806  0.0205
  927loPI   GL113135   2.945   7.177   6.502  0.1536 -0.0752  0.1740
  927loPI   GL213136   3.005   7.537   6.404  0.0302 -0.2448  0.0720
  927loPI   C1A13137   3.245   7.001   6.787  0.0025  0.1278  0.0206
  927loPI   C2A13138   3.270   7.147   7.191 -0.3855 -0.1748  0.0703
  927loPI   C3A13139   3.404   7.360   7.448 -0.2473 -0.1593 -0.1133
  927loPI   C4A13140   3.626   7.721   7.515 -0.2696 -0.3492  0.1081
  927loPI   C5A13141   3.680   8.073   7.341 -0.3795 -0.0981  0.1139
  927loPI   C6A13142   3.739   8.458   7.225 -0.3441 -0.0120  0.2985
  927loPI   C1B13143   2.970   7.593   6.836 -0.0151 -0.0668  0.6879
  927loPI   C2B13144   2.857   7.533   7.220  0.2407 -0.1901 -0.0260
  927loPI   C3B13145   2.752   7.451   7.616 -0.2311  0.2387 -0.1346
  927loPI   C4B13146   2.586   7.129   7.779  0.3099 -0.0457  0.2912
  928loPI    C113147   3.048  11.164   5.728 -0.0115  0.0322  0.1030
  928loPI    C213148   3.346  11.192   5.461  0.0278  0.1511  0.1587
  928loPI    C313149   3.103  10.873   5.458 -0.0255  0.1920 -0.0743
  928loPI   PO413150   3.068  11.308   5.947 -0.2621 -0.0079  0.1552
  928loPI   GL113151   2.964  11.021   6.270 -0.1052  0.1334 -0.0005
  928loPI   GL213152   2.802  11.352   6.460  0.3119  0.0159  0.0639
  928loPI   C1A13153   2.847  10.910   6.651  0.1870  0.1749  0.1233
  928loPI   C2A13154   2.853  11.029   7.022  0.3163 -0.0944 -0.1166
  928loPI   C3A13155   2.924  11.054   7.475  0.0051  0.3385 -0.1634
  928loPI   C4A13156   2.895  10.980   7.891  0.1303  0.2764 -0.5188
  928loPI   C5A13157   2.711  10.861   8.261  0.0361 -0.3546  0.1973
  928loPI   C6A13158   2.835  10.607   8.602 -0.0457 -0.0004 -0.3399
  928loPI   C1B13159   2.665  11.449   6.854 -0.3294  0.5179 -0.0169
  928loPI   C2B13160   2.708  11.451   7.275  0.1684  0.0218 -0.0100
  928loPI   C3B13161   2.754  11.474   7.763 -0.0822 -0.1796 -0.3469
  928loPI   C4B13162   2.665  11.390   8.194  0.1149 -0.0614 -0.1033
  929loPI    C113163   0.406  13.882   5.321 -0.1047 -0.0255  0.0037
  929loPI    C213164   0.107  13.773   5.079 -0.0125  0.1017 -0.1704
  929loPI    C313165   0.483  13.771   4.944  0.0705 -0.0864  0.0561
  929loPI   PO413166   0.296  13.917   5.560  0.1450  0.0336  0.2040
  929loPI   GL113167   0.274  13.955   5.979  0.3244  0.2096  0.1296
  929loPI   GL213168   0.036  13.709   6.001 -0.1373  0.1338  0.3175
  929loPI   C1A13169   0.562  13.925   6.362 -0.1651  0.0278 -0.0771
  929loPI   C2A13170   0.330  13.861   6.769  0.3252  0.0795 -0.1620
  929loPI   C3A13171   0.223  13.660   7.256 -0.0650  0.0035  0.1144
  929loPI   C4A13172  -0.086  13.791   7.504 -0.0792 -0.0676 -0.0536
  929loPI   C5A13173  -0.286  14.151   7.394 -0.1935 -0.4751 -0.2152
  929loPI   C6A13174  -0.603  14.288   7.724  0.2767  0.0886 -0.1009
  929loPI   C1B13175  -0.001  13.649   6.417 -0.1761  0.0306 -0.0995
  929loPI   C2B13176  -0.189  13.655   6.940 -0.0564  0.2805  0.2986
  929loPI   C3B13177  -0.506  13.675   7.268  0.0910  0.4523 -0.0521
  929loPI   C4B13178  -0.817  13.985   7.375 -0.1538 -0.0747  0.2767
  930loPI    C113179   2.077  14.912   5.714  0.1479  0.0474 -0.0384
  930loPI    C213180   1.763  15.085   5.537 -0.0763  0.0453  0.3459
  930loPI    C313181   1.945  14.775   5.362 -0.1653  0.1672  0.0290
  930loPI   PO413182   2.187  15.201   5.885 -0.1140  0.2275 -0.2160
  930loPI   GL113183   2.201  15.386   6.258 -0.3258  0.4370  0.0065
  930loPI   GL213184   2.431  15.340   6.489 -0.0562  0.1365 -0.0133
  930loPI   C1A13185   1.948  15.551   6.545 -0.0550 -0.1075  0.1395
  930loPI   C2A13186   1.879  15.757   7.028  0.0642 -0.1201  0.2064
  930loPI   C3A13187   1.761  15.695   7.360  0.0368  0.0053  0.1028
  930loPI   C4A13188   1.402  15.747   7.581 -0.4184 -0.0559  0.0592
  930loPI   C5A13189   1.427  15.967   7.948 -0.1101 -0.1156 -0.0003
  930loPI   C6A13190   1.678  16.294   8.156 -0.2131  0.1504 -0.0646
  930loPI   C1B13191   2.600  15.241   6.890 -0.0485  0.2030 -0.0228
  930loPI   C2B13192   2.465  15.057   7.218 -0.1311 -0.1855  0.1659
  930loPI   C3B13193   2.360  14.938   7.708  0.0805 -0.1767  0.0047
  930loPI   C4B13194   2.232  15.100   8.164 -0.1618  0.0432 -0.0561
  931loPI    C113195  14.878  12.431   5.300 -0.0585 -0.2219  0.1891
  931loPI    C213196  14.589  12.572   5.063  0.2267  0.1792  0.0691
  931loPI    C313197  14.710  12.192   5.026 -0.2480  0.0186  0.0923
  931loPI   PO413198  14.767  12.489   5.553  0.1056  0.0334 -0.1717
  931loPI   GL113199  14.675  12.807   5.862 -0.0693 -0.0851  0.0997
  931loPI   GL213200  14.837  13.025   5.946 -0.0147  0.0378 -0.2042
  931loPI   C1A13201  14.531  12.573   6.254  0.3050 -0.1870 -0.0868
  931loPI   C2A13202  14.595  12.625   6.691 -0.0735  0.3893 -0.0248
  931loPI   C3A13203  14.716  12.614   7.123  0.0913  0.1279 -0.0430
  931loPI   C4A13204  14.836  12.655   7.450 -0.0814  0.0339  0.0618
  931loPI   C5A13205  14.870  12.741   7.848 -0.4897  0.1632  0.2080
  931loPI   C6A13206  15.215  12.672   8.000 -0.0924  0.0371  0.2284
  931loPI   C1B13207  14.800  13.048   6.370 -0.4462 -0.0439  0.1211
  931loPI   C2B13208  14.791  13.108   6.882  0.0770  0.1397 -0.0708
  931loPI   C3B13209  14.730  13.141   7.365  0.0127 -0.0812 -0.3079
  931loPI   C4B13210  14.653  13.192   7.844  0.4042  0.1979 -0.1839
  932loPI    C113211   6.550   5.892   5.667 -0.0594 -0.0041  0.0813
  932loPI    C213212   6.771   6.139   5.442 -0.2335 -0.0550 -0.1504
  932loPI    C313213   6.818   5.743   5.410 -0.0157 -0.0581  0.1579
  932loPI   PO413214   6.532   5.970   5.924  0.0422  0.1166  0.0919
  932loPI   GL113215   6.618   6.287   6.253 -0.6855 -0.0501 -0.1355
  932loPI   GL213216   6.637   6.544   6.370 -0.0422 -0.1953  0.1550
  932loPI   C1A13217   6.832   6.132   6.595 -0.2410 -0.2939 -0.0739
  932loPI   C2A13218   6.843   6.089   6.957 -0.0768  0.1202 -0.2589
  932loPI   C3A13219   6.812   5.996   7.356 -0.2622  0.1688 -0.0834
  932loPI   C4A13220   6.888   6.084   7.757  0.3075 -0.0694  0.2625
  932loPI   C5A13221   6.693   6.183   8.058 -0.1269  0.1940  0.1390
  932loPI   C6A13222   6.566   6.057   8.383 -0.0650 -0.2772 -0.2292
  932loPI   C1B13223   6.586   6.503   6.754 -0.0853  0.0506  0.1748
  932loPI   C2B13224   6.536   6.446   7.192  0.6907 -0.0140  0.1070
  932loPI   C3B13225   6.556   6.503   7.696  0.2343 -0.0934 -0.1125
  932loPI   C4B13226   6.521   6.663   8.164  0.0706 -0.0643 -0.2227
  933loPI    C113227   6.116  10.641   6.022  0.0906 -0.0698  0.1212
  933loPI    C213228   5.893  10.796   6.315 -0.0900 -0.0691 -0.0148
  933loPI    C313229   6.117  11.035   6.086 -0.0664 -0.0528  0.0254
  933loPI   PO413230   5.953  10.380   5.941 -0.3334 -0.2124 -0.4437
  933loPI   GL113231   5.806  10.248   6.337 -0.0227 -0.1013 -0.0789
  933loPI   GL213232   6.134  10.052   6.430  0.0160 -0.5546  0.0714
  933loPI   C1A13233   5.830  10.490   6.701  0.4813 -0.0572  0.0792
  933loPI   C2A13234   5.972  10.527   7.081 -0.1374  0.1537 -0.1228
  933loPI   C3A13235   5.934  10.565   7.498 -0.1424 -0.0537 -0.0883
  933loPI   C4A13236   6.017  10.719   7.895  0.2250 -0.0279 -0.1469
  933loPI   C5A13237   6.113  10.872   8.347 -0.0011  0.1156 -0.2716
  933loPI   C6A13238   6.148  11.309   8.444  0.3201  0.0508 -0.4514
  933loPI   C1B13239   6.206  10.141   6.760  0.3466  0.2064  0.2711
  933loPI   C2B13240   6.332  10.212   7.202  0.1383 -0.2120  0.0728
  933loPI   C3B13241   6.390  10.252   7.689 -0.0880  0.2381  0.0330
  933loPI   C4B13242   6.244  10.345   8.106  0.3264  0.0112  0.0867
  934loPI    C113243  15.582  16.832   5.251  0.3917  0.1891  0.0319
  934loPI    C213244  15.261  17.042   5.363  0.0921 -0.1794 -0.1136
  934loPI    C313245  15.413  17.090   4.996  0.0475 -0.1902 -0.1334
  934loPI   PO413246  15.670  16.817   5.503 -0.1774  0.5436 -0.1110
  934loPI   GL113247  15.855  16.966   5.906  0.0572 -0.2580  0.2185
  934loPI   GL213248  16.135  16.904   5.837  0.0333  0.0279  0.2097
  934loPI   C1A13249  15.703  16.866   6.290  0.0518  0.0893 -0.1056
  934loPI   C2A13250  15.642  16.785   6.700 -0.0255  0.0100  0.0652
  934loPI   C3A13251  15.812  16.890   7.099 -0.1903 -0.3926  0.0811
  934loPI   C4A13252  15.782  16.827   7.485  0.0209 -0.1862 -0.1610
  934loPI   C5A13253  15.873  16.699   7.913 -0.1132 -0.0589  0.0107
  934loPI   C6A13254  15.706  16.674   8.312  0.0169 -0.0537 -0.2834
  934loPI   C1B13255  16.090  16.533   6.109  0.1770 -0.1169  0.4342
  934loPI   C2B13256  15.912  16.370   6.487 -0.0889  0.1086 -0.1169
  934loPI   C3B13257  15.669  16.089   6.485  0.1078 -0.1007 -0.1436
  934loPI   C4B13258  15.479  15.868   6.143 -0.2759 -0.0461 -0.0299
  935loPI    C113259  11.155   7.627   5.740  0.0298 -0.0608 -0.0731
  935loPI    C213260  10.989   7.899   5.982  0.0263 -0.2203  0.1054
  935loPI    C313261  10.980   7.952   5.586 -0.2117 -0.0936  0.1265
  935loPI   PO413262  11.005   7.444   5.872 -0.1163  0.3371 -0.2301
  935loPI   GL113263  10.902   7.333   6.298 -0.0754 -0.2441 -0.2044
  935loPI   GL213264  10.883   7.030   6.369  0.2509 -0.0145  0.1346
  935loPI   C1A13265  10.995   7.453   6.652 -0.1738 -0.0123 -0.1525
  935loPI   C2A13266  11.095   7.444   7.080  0.1845 -0.0603 -0.0453
  935loPI   C3A13267  11.360   7.670   7.399  0.1379 -0.2054 -0.1872
  935loPI   C4A13268  11.508   7.376   7.777 -0.0844  0.0942  0.1697
  935loPI   C5A13269  11.581   7.453   8.211 -0.1334 -0.1419 -0.1986
  935loPI   C6A13270  11.267   7.376   8.494  0.1160 -0.0104  0.1708
  935loPI   C1B13271  10.810   6.832   6.646 -0.1483  0.0566  0.3966
  935loPI   C2B13272  10.581   6.746   6.949 -0.1709 -0.1648  0.1791
  935loPI   C3B13273  10.453   6.498   7.276 -0.3142 -0.2535 -0.2785
  935loPI   C4B13274  10.639   6.550   7.684 -0.0091  0.0704  0.2334
  936loPI    C113275  14.902  13.038   5.430 -0.0437 -0.0129 -0.0398
  936loPI    C213276  15.009  12.906   5.068  0.1454  0.1024 -0.0272
  936loPI    C313277  14.668  13.110   5.114 -0.0612 -0.2242 -0.0766
  936loPI   PO413278  15.079  13.237   5.522 -0.0535  0.3120 -0.1700
  936loPI   GL113279  15.326  13.185   5.800  0.0005  0.0152 -0.2961
  936loPI   GL213280  15.287  13.008   6.045  0.0299 -0.1876 -0.0393
  936loPI   C1A13281  15.188  13.455   6.158 -0.0757 -0.1490  0.1034
  936loPI   C2A13282  15.067  13.561   6.509 -0.1378  0.2404  0.0523
  936loPI   C3A13283  15.233  13.691   6.873  0.2330 -0.0748  0.0958
  936loPI   C4A13284  15.209  13.636   7.295 -0.1925 -0.1121  0.1475
  936loPI   C5A13285  15.020  13.490   7.766 -0.0993 -0.1522 -0.0435
  936loPI   C6A13286  14.815  13.628   8.149  0.1201  0.1425 -0.2280
  936loPI   C1B13287  15.316  13.044   6.471 -0.0796 -0.1280  0.2366
  936loPI   C2B13288  15.288  13.179   6.897  0.1093 -0.1629 -0.0904
  936loPI   C3B13289  15.210  13.183   7.241 -0.0953 -0.0253  0.0210
  936loPI   C4B13290  15.229  12.971   7.551 -0.2362  0.1343 -0.0839
  937loPI    C113291   7.068   4.526   5.881 -0.0611  0.0036  0.0538
  937loPI    C213292   6.905   4.360   5.556  0.2565  0.1217 -0.1715
  937loPI    C313293   6.783   4.720   5.679  0.0971  0.0529 -0.1251
  937loPI   PO413294   7.117   4.332   6.102  0.2076 -0.2020  0.0616
  937loPI   GL113295   7.277   4.135   6.443  0.1442  0.0736 -0.1131
  937loPI   GL213296   7.347   3.949   6.711  0.0483  0.1179  0.1962
  937loPI   C1A13297   7.516   4.380   6.788  0.1222  0.0169 -0.1183
  937loPI   C2A13298   7.469   4.516   7.211 -0.2579  0.1735  0.0143
  937loPI   C3A13299   7.581   4.646   7.677  0.0404 -0.0271  0.2460
  937loPI   C4A13300   7.885   4.752   7.970  0.1707  0.0340  0.1030
  937loPI   C5A13301   8.134   4.590   8.328 -0.1428  0.2624 -0.0961
  937loPI   C6A13302   7.902   4.849   8.647 -0.1281  0.2481  0.1465
  937loPI   C1B13303   7.347   4.054   7.166 -0.2764  0.0630  0.0512
  937loPI   C2B13304   7.349   4.173   7.622  0.0795 -0.3008  0.2094
  937loPI   C3B13305   7.074   4.294   8.008  0.0971 -0.1122 -0.2495
  937loPI   C4B13306   6.869   4.423   8.291 -0.0695 -0.4794 -0.2411
  938loPI    C113307   9.897   5.553   5.647  0.1351  0.1569  0.0303
  938loPI    C213308   9.859   5.390   5.283  0.0673  0.1090  0.0587
  938loPI    C313309  10.084   5.717   5.334 -0.2785  0.3806 -0.1080
  938loPI   PO413310   9.895   5.393   5.882  0.3358 -0.1991 -0.1090
  938loPI   GL113311   9.794   5.270   6.286  0.0873  0.2119  0.2678
  938loPI   GL213312   9.898   5.558   6.387  0.1619 -0.0675  0.0307
  938loPI   C1A13313   9.998   5.138   6.608 -0.3205 -0.4700  0.1366
  938loPI   C2A13314  10.036   5.182   6.942  0.1050  0.1925 -0.0450
  938loPI   C3A13315   9.988   5.218   7.389 -0.1011  0.0451  0.2107
  938loPI   C4A13316   9.970   5.160   7.825  0.1631  0.0094  0.4092
  938loPI   C5A13317  10.103   5.181   8.192  0.2774 -0.2111  0.0451
  938loPI   C6A13318  10.534   5.378   8.266 -0.1754 -0.2460  0.0601
  938loPI   C1B13319   9.881   5.654   6.780  0.0775  0.0959 -0.0297
  938loPI   C2B13320   9.870   5.703   7.158  0.1411 -0.4846 -0.0412
  938loPI   C3B13321   9.861   5.660   7.553  0.0378  0.3711 -0.3153
  938loPI   C4B13322   9.712   5.592   8.026 -0.0396 -0.1461 -0.1287
  939loPI    C113323  12.258  10.332   5.419  0.1797 -0.2952  0.1191
  939loPI    C213324  11.865  10.261   5.405  0.1413 -0.0714  0.0194
  939loPI    C313325  12.041  10.468   5.111  0.3638 -0.3124 -0.0199
  939loPI   PO413326  12.264  10.337   5.705  0.2614 -0.0488 -0.1363
  939loPI   GL113327  12.254  10.567   6.075  0.6644  0.0151 -0.3623
  939loPI   GL213328  12.476  10.855   6.046 -0.2024 -0.1073  0.3935
  939loPI   C1A13329  12.099  10.367   6.484 -0.0256 -0.4369  0.0445
  939loPI   C2A13330  11.715  10.465   6.782  0.0552  0.2166 -0.5840
  939loPI   C3A13331  11.609  10.730   7.151  0.1247  0.1878  0.0285
  939loPI   C4A13332  11.644  10.806   7.572  0.0500 -0.1151  0.2079
  939loPI   C5A13333  11.645  10.919   8.002  0.4742  0.3572  0.1474
  939loPI   C6A13334  11.288  10.961   8.355  0.2014  0.2427 -0.0908
  939loPI   C1B13335  12.539  10.720   6.488  0.0572 -0.2393 -0.0818
  939loPI   C2B13336  12.324  10.806   6.907 -0.1811 -0.2139 -0.4020
  939loPI   C3B13337  12.447  10.887   7.296  0.1702 -0.2650  0.0834
  939loPI   C4B13338  12.189  11.087   7.688  0.0448  0.1239  0.0403
  940loPI    C113339   0.670  13.478   5.631  0.0060 -0.0445  0.1444
  940loPI    C213340   0.806  13.120   5.748 -0.2350 -0.1922 -0.0166
  940loPI    C313341   0.921  13.272   5.396 -0.1214 -0.1031  0.0582
  940loPI   PO413342   0.482  13.487   5.812 -0.2110 -0.1321  0.1815
  940loPI   GL113343   0.390  13.137   6.060  0.0908  0.0232 -0.2082
  940loPI   GL213344   0.035  13.211   6.090  0.1598 -0.1138 -0.1408
  940loPI   C1A13345   0.364  13.233   6.477 -0.0972 -0.1861 -0.0332
  940loPI   C2A13346   0.232  13.335   6.849  0.2566  0.1474  0.0125
  940loPI   C3A13347   0.092  13.172   7.144  0.2485  0.0660 -0.0237
  940loPI   C4A13348   0.039  13.261   7.633 -0.2063  0.2438 -0.1160
  940loPI   C5A13349  -0.076  12.813   7.846  0.1533 -0.0778 -0.0737
  940loPI   C6A13350   0.154  12.386   7.806 -0.0298 -0.3233 -0.3829
  940loPI   C1B13351  -0.071  12.942   6.412  0.1197 -0.0751  0.2390
  940loPI   C2B13352  -0.215  13.143   6.677  0.1132  0.1398  0.2728
  940loPI   C3B13353  -0.425  13.211   7.108  0.0895 -0.2874  0.0712
  940loPI   C4B13354  -0.508  13.189   7.567  0.0365 -0.0096 -0.0805
  941loPI    C113355   4.510  10.807   6.038  0.3093 -0.0449 -0.0938
  941loPI    C213356   4.290  10.697   5.723  0.1421  0.0263 -0.0031
  941loPI    C313357   4.633  10.895   5.668  0.1896 -0.0934 -0.1456
  941loPI   PO413358   4.394  10.639   6.152  0.0072 -0.0546 -0.1960
  941loPI   GL113359   4.096  10.428   6.446 -0.2030 -0.0142 -0.0384
  941loPI   GL213360   4.084  10.105   6.533  0.0441  0.0177 -0.0695
  941loPI   C1A13361   4.109  10.469   6.912  0.2030  0.0319  0.0551
  941loPI   C2A13362   4.295  10.430   7.310  0.0529  0.1042  0.1784
  941loPI   C3A13363   4.424  10.215   7.684  0.3869 -0.1143 -0.0601
  941loPI   C4A13364   4.481   9.953   7.943  0.0781 -0.0947  0.2220
  941loPI   C5A13365   4.285   9.670   8.174  0.2899  0.1400  0.2498
  941loPI   C6A13366   4.024   9.320   8.160  0.0014  0.2047 -0.2953
  941loPI   C1B13367   3.807  10.004   6.875 -0.0023  0.2768  0.0048
  941loPI   C2B13368   3.951   9.975   7.287  0.2137  0.1844  0.0953
  941loPI   C3B13369   4.004  10.048   7.717 -0.0032 -0.0627  0.2545
  941loPI   C4B13370   4.042  10.140   8.158 -0.0929  0.2974  0.0630
  942loPI    C113371  16.752   5.486   5.666 -0.2383  0.0480 -0.2361
  942loPI    C213372  16.996   5.495   5.349  0.0295 -0.2383 -0.0443
  942loPI    C313373  16.602   5.454   5.297  0.0523 -0.1011 -0.3450
  942loPI   PO413374  16.838   5.690   5.811 -0.2614  0.0124 -0.1924
  942loPI   GL113375  16.950   5.536   6.294  0.2697 -0.4691 -0.0482
  942loPI   GL213376  17.152   5.857   6.216  0.0489 -0.3512  0.0266
  942loPI   C1A13377  17.075   5.597   6.636  0.0312  0.0874  0.0463
  942loPI   C2A13378  17.026   5.501   7.007  0.0411 -0.4756 -0.2305
  942loPI   C3A13379  16.955   5.629   7.303  0.0076  0.1361 -0.0579
  942loPI   C4A13380  17.048   5.675   7.750 -0.2899 -0.1679 -0.0385
  942loPI   C5A13381  16.789   5.794   8.111 -0.1929  0.0352 -0.2273
  942loPI   C6A13382  16.528   5.720   8.380  0.2923  0.2759 -0.0144
  942loPI   C1B13383  16.945   6.278   6.314  0.0121 -0.2660 -0.1594
  942loPI   C2B13384  16.833   6.508   6.667  0.2383  0.2098  0.2941
  942loPI   C3B13385  16.915   6.470   7.039  0.0274  0.0277  0.0268
  942loPI   C4B13386  16.822   6.672   7.387 -0.1051  0.2265  0.0518
  943loPI    C113387   4.053   1.369   6.116 -0.0116  0.2450  0.0529
  943loPI    C213388   4.328   1.100   6.005 -0.2703 -0.0441  0.0998
  943loPI    C313389   4.148   1.327   5.729  0.0391  0.1736  0.0728
  943loPI   PO413390   3.917   1.270   6.247  0.2054  0.0529 -0.0827
  943loPI   GL113391   4.005   1.000   6.583 -0.0322  0.0516 -0.2802
  943loPI   GL213392   4.034   1.345   6.696  0.1652 -0.1808  0.1746
  943loPI   C1A13393   4.131   0.839   6.883  0.1725  0.1937 -0.1499
  943loPI   C2A13394   4.128   0.992   7.201 -0.1317 -0.4060 -0.0307
  943loPI   C3A13395   4.149   1.120   7.635  0.2780  0.0046  0.0972
  943loPI   C4A13396   4.321   1.297   7.932 -0.1197 -0.2286  0.2273
  943loPI   C5A13397   4.617   1.230   8.282 -0.0204  0.0880  0.1976
  943loPI   C6A13398   5.020   1.069   8.179 -0.0046  0.1636 -0.0201
  943loPI   C1B13399   4.186   1.556   7.158  0.3235  0.0386 -0.1323
  943loPI   C2B13400   4.071   1.635   7.643 -0.0663 -0.1714  0.1311
  943loPI   C3B13401   4.345   1.828   8.023  0.0820 -0.1142 -0.1955
  943loPI   C4B13402   4.639   2.084   8.202  0.4109 -0.1220 -0.1385
  944loPI    C113403   7.328   2.445   5.861 -0.0754 -0.1555  0.0696
  944loPI    C213404   7.029   2.709   5.881  0.0839  0.0321  0.0073
  944loPI    C313405   7.408   2.836   5.889  0.1624 -0.1986  0.0168
  944loPI   PO413406   7.325   2.323   6.080  0.1448  0.1055 -0.0737
  944loPI   GL113407   7.349   2.297   6.529 -0.0301  0.0184  0.2141
  944loPI   GL213408   7.558   1.933   6.417  0.1647 -0.3178 -0.0937
  944loPI   C1A13409   7.260   2.391   6.968  0.3615  0.0744  0.1549
  944loPI   C2A13410   7.255   2.385   7.400 -0.1504 -0.1121 -0.0554
  944loPI   C3A13411   7.112   2.275   7.804 -0.1066 -0.0468  0.0504
  944loPI   C4A13412   7.223   2.142   8.221 -0.2104 -0.4475  0.1418
  944loPI   C5A13413   7.262   1.751   8.396 -0.2161  0.0370  0.1009
  944loPI   C6A13414   7.488   1.489   8.745 -0.2019  0.0439 -0.0870
  944loPI   C1B13415   7.503   1.914   6.803 -0.0402 -0.0877  0.2168
  944loPI   C2B13416   7.579   2.048   7.139 -0.2977 -0.3917 -0.0405
  944loPI   C3B13417   7.316   1.803   7.460 -0.4020  0.0792  0.0444
  944loPI   C4B13418   7.182   1.738   7.890 -0.0744  0.0251  0.5493
  945loPI    C113419   7.988  13.319   5.971 -0.3259 -0.0172  0.0851
  945loPI    C213420   7.913  13.524   5.636  0.1894  0.0373 -0.0050
  945loPI    C313421   8.055  13.150   5.615 -0.2032 -0.1261  0.1590
  945loPI   PO413422   8.034  13.507   6.228  0.5492 -0.0542 -0.0396
  945loPI   GL113423   8.079  13.738   6.517  0.0960  0.0621 -0.0916
  945loPI   GL213424   8.359  13.494   6.626 -0.2092 -0.1769 -0.1559
  945loPI   C1A13425   7.888  13.711   6.887  0.1462 -0.5186  0.3929
  945loPI   C2A13426   7.911  13.676   7.268  0.1817  0.2034  0.1997
  945loPI   C3A13427   7.798  13.615   7.661  0.1899 -0.1807 -0.1520
  945loPI   C4A13428   7.686  13.623   8.200  0.1396 -0.2214  0.1251
  945loPI   C5A13429   7.591  13.627   8.756 -0.0653 -0.0477  0.0457
  945loPI   C6A13430   7.800  13.861   9.080  0.4898  0.2126 -0.0074
  945loPI   C1B13431   8.383  13.484   7.138  0.3615  0.1649 -0.2801
  945loPI   C2B13432   8.291  13.480   7.616  0.0197 -0.1776  0.1304
  945loPI   C3B13433   8.189  13.490   8.057 -0.2443  0.1522 -0.0387
  945loPI   C4B13434   8.332  13.267   8.507 -0.1942 -0.0825 -0.0041
  946loPI    C113435   6.041   8.623   5.729 -0.1085  0.2844 -0.2028
  946loPI    C213436   5.698   8.507   5.559 -0.0778 -0.2077  0.0513
  946loPI    C313437   6.047   8.389   5.404 -0.0312 -0.0430  0.0290
  946loPI   PO413438   5.999   8.494   5.987  0.0835  0.0387  0.0850
  946loPI   GL113439   6.207   8.168   6.313  0.0959 -0.0146 -0.0094
  946loPI   GL213440   5.990   8.198   6.521 -0.1448  0.2432 -0.2616
  946loPI   C1A13441   6.445   8.298   6.617 -0.1567 -0.0317 -0.3008
  946loPI   C2A13442   6.392   8.343   7.035  0.1693  0.2056 -0.0810
  946loPI   C3A13443   6.198   8.363   7.427  0.0710  0.0581  0.1237
  946loPI   C4A13444   6.078   8.395   7.770  0.3954 -0.0434 -0.1868
  946loPI   C5A13445   6.178   8.482   8.190 -0.1189 -0.2158  0.2874
  946loPI   C6A13446   6.298   8.773   8.437 -0.0267  0.0373 -0.3614
  946loPI   C1B13447   5.918   8.309   6.977 -0.0530 -0.0092 -0.0078
  946loPI   C2B13448   5.584   8.399   7.220  0.0845  0.2183 -0.0803
  946loPI   C3B13449   5.565   8.375   7.632 -0.0483 -0.0965 -0.0278
  946loPI   C4B13450   5.609   8.392   8.094  0.0940  0.2923  0.0848
  947loPI    C113451   5.500   2.355   5.896  0.0390  0.1352  0.1802
  947loPI    C213452   5.737   2.305   6.215  0.1808  0.0249  0.0591
  947loPI    C313453   5.428   2.058   6.154  0.2426 -0.0463  0.0323
  947loPI   PO413454   5.464   2.588   5.947 -0.0294 -0.1649  0.0678
  947loPI   GL113455   5.249   2.654   6.332 -0.1299 -0.0208  0.2131
  947loPI   GL213456   5.527   2.732   6.387 -0.3191  0.3266  0.3847
  947loPI   C1A13457   5.215   2.533   6.798  0.0593 -0.1159 -0.0868
  947loPI   C2A13458   5.279   2.484   7.273  0.1687  0.2314  0.0460
  947loPI   C3A13459   5.318   2.441   7.700 -0.0065  0.0695 -0.2566
  947loPI   C4A13460   5.531   2.266   8.017 -0.1610 -0.0005 -0.1403
  947loPI   C5A13461   5.886   2.311   8.346 -0.2181 -0.2131 -0.1618
  947loPI   C6A13462   6.228   2.512   8.329  0.1192 -0.0295  0.1008
  947loPI   C1B13463   5.774   2.524   6.702  0.3404  0.1024  0.2806
  947loPI   C2B13464   5.708   2.349   7.108  0.0301 -0.1354  0.0394
  947loPI   C3B13465   5.805   2.336   7.552 -0.2147 -0.0582 -0.0795
  947loPI   C4B13466   6.034   2.674   7.691 -0.0855 -0.0184 -0.2227
  948loPI    C113467  15.880   6.283   5.573 -0.3063  0.0170  0.1100
  948loPI    C213468  15.801   6.671   5.518  0.1387  0.1191  0.1527
  948loPI    C313469  15.719   6.407   5.229 -0.1680  0.2420  0.1243
  948loPI   PO413470  16.088   6.309   5.692 -0.0357  0.1826  0.1522
  948loPI   GL113471  16.183   6.283   6.144  0.0419  0.0422  0.1264
  948loPI   GL213472  16.483   6.541   6.269  0.1835  0.1169 -0.1823
  948loPI   C1A13473  16.107   5.884   6.436 -0.4044  0.1660  0.0039
  948loPI   C2A13474  15.991   6.094   6.831 -0.1288  0.1408  0.1682
  948loPI   C3A13475  15.957   6.049   7.265  0.1742 -0.3615  0.1991
  948loPI   C4A13476  16.045   6.029   7.644 -0.1322  0.2462 -0.1835
  948loPI   C5A13477  16.272   5.972   7.994  0.2093  0.2655 -0.0929
  948loPI   C6A13478  16.402   6.261   8.251  0.1142 -0.1586  0.2090
  948loPI   C1B13479  16.349   6.395   6.633 -0.2229  0.0180 -0.0197
  948loPI   C2B13480  16.358   6.330   7.048 -0.1736 -0.0542 -0.1503
  948loPI   C3B13481  16.359   6.383   7.430  0.1245 -0.0186  0.1194
  948loPI   C4B13482  16.606   6.328   7.789  0.0595 -0.0263 -0.2081
  949loPI    C113483  13.661  10.946   5.487 -0.1590  0.2003 -0.2196
  949loPI    C213484  13.661  10.767   5.128 -0.0013  0.0363 -0.1399
  949loPI    C313485  13.770  11.151   5.161  0.1911 -0.0092 -0.2390
  949loPI   PO413486  13.729  10.730   5.693 -0.2444  0.2091  0.1543
  949loPI   GL113487  13.685  10.636   6.134  0.1419  0.0760  0.2788
  949loPI   GL213488  13.958  10.795   6.382 -0.3059  0.2049  0.2903
  949loPI   C1A13489  13.651  10.570   6.617 -0.1547 -0.0819  0.0156
  949loPI   C2A13490  13.684  10.467   7.027  0.1356  0.2042  0.1163
  949loPI   C3A13491  13.714  10.485   7.533 -0.0786  0.5818  0.1208
  949loPI   C4A13492  13.726  10.135   7.947  0.2421  0.1794 -0.2017
  949loPI   C5A13493  13.690  10.258   8.377 -0.0323 -0.1573  0.2112
  949loPI   C6A13494  13.862  10.382   8.681  0.3047  0.0770  0.2454
  949loPI   C1B13495  14.078  10.893   6.811 -0.0198 -0.2521  0.2467
  949loPI   C2B13496  14.085  10.831   7.181 -0.2010 -0.0578  0.2814
  949loPI   C3B13497  14.203  10.697   7.577 -0.2149  0.1792 -0.1180
  949loPI   C4B13498  14.111  10.283   7.716  0.0480 -0.2183  0.1301
  950loPI    C113499  12.733   8.476   5.673 -0.1519  0.2636 -0.1178
  950loPI    C213500  12.543   8.181   5.865 -0.1766  0.2739 -0.1262
  950loPI    C313501  12.475   8.242   5.475 -0.1258  0.2524 -0.1386
  950loPI   PO413502  12.981   8.435   5.797  0.0116  0.1707  0.4729
  950loPI   GL113503  13.024   8.083   5.987  0.1470  0.0345 -0.1244
  950loPI   GL213504  12.850   7.800   6.032  0.1449 -0.2784  0.0970
  950loPI   C1A13505  13.203   8.157   6.395 -0.1007 -0.0996 -0.1330
  950loPI   C2A13506  13.136   8.360   6.766  0.0564 -0.0341  0.0867
  950loPI   C3A13507  13.033   8.343   7.194 -0.1606  0.0098  0.0680
  950loPI   C4A13508  12.942   8.399   7.612 -0.0887  0.3838  0.0488
  950loPI   C5A13509  13.084   8.487   8.043  0.1323  0.3886  0.0938
  950loPI   C6A13510  13.006   8.286   8.478  0.1569  0.1807 -0.0319
  950loPI   C1B13511  12.760   7.818   6.456  0.0198 -0.4776 -0.1161
  950loPI   C2B13512  12.845   7.965   6.839 -0.0281  0.2143 -0.0626
  950loPI   C3B13513  13.065   7.862   7.260 -0.0401 -0.1697 -0.0894
  950loPI   C4B13514  13.392   7.730   7.558 -0.0972 -0.2450 -0.2309
  951loPI    C113515  12.409  16.065   5.304  0.2801  0.1119  0.0437
  951loPI    C213516  12.391  15.666   5.329  0.0393  0.1109 -0.1151
  951loPI    C313517  12.500  15.840   4.986 -0.0967  0.1858 -0.1210
  951loPI   PO413518  12.204  16.094   5.487  0.2213  0.3060  0.2422
  951loPI   GL113519  11.872  16.324   5.748 -0.3115  0.1478 -0.3088
  951loPI   GL213520  12.216  16.495   5.832  0.1032 -0.1403 -0.3893
  951loPI   C1A13521  11.945  16.423   6.228  0.1589 -0.0059  0.0722
  951loPI   C2A13522  12.142  16.416   6.659  0.0750 -0.0021  0.0290
  951loPI   C3A13523  12.367  16.281   6.940 -0.0245  0.1436 -0.0455
  951loPI   C4A13524  12.531  16.245   7.305 -0.1242 -0.1535  0.3438
  951loPI   C5A13525  12.507  16.088   7.695  0.1999 -0.1349  0.4348
  951loPI   C6A13526  12.518  16.036   8.177  0.1101 -0.2530  0.2341
  951loPI   C1B13527  12.318  16.114   6.088 -0.0340  0.0161  0.1558
  951loPI   C2B13528  12.145  15.863   6.259 -0.0265  0.0968 -0.0629
  951loPI   C3B13529  12.167  15.868   6.607 -0.0021  0.0339 -0.1217
  951loPI   C4B13530  12.235  15.781   7.059  0.0487  0.0532 -0.0905
  952loPI    C113531  11.499   3.788   6.007  0.1142  0.1222 -0.0962
  952loPI    C213532  11.262   3.798   6.329 -0.0695 -0.0926 -0.2217
  952loPI    C313533  11.228   4.079   6.047  0.0901  0.0946 -0.0579
  952loPI   PO413534  11.749   3.684   6.198  0.1796 -0.0411  0.1285
  952loPI   GL113535  11.694   3.686   6.582  0.3001  0.0594 -0.1914
  952loPI   GL213536  11.562   3.400   6.568  0.1785 -0.0310  0.1510
  952loPI   C1A13537  11.382   3.930   6.785 -0.2718 -0.0817 -0.0328
  952loPI   C2A13538  11.178   3.859   7.178 -0.0595 -0.0892  0.1188
  952loPI   C3A13539  10.878   3.542   7.256 -0.2221  0.2316  0.4554
  952loPI   C4A13540  10.791   3.123   7.498 -0.0006  0.1027 -0.0584
  952loPI   C5A13541  10.889   2.877   7.764  0.0066  0.1040 -0.0470
  952loPI   C6A13542  10.663   2.569   7.956  0.0494 -0.0590 -0.0761
  952loPI   C1B13543  11.634   3.221   6.944 -0.3704  0.0141 -0.0329
  952loPI   C2B13544  11.643   3.345   7.374 -0.1505  0.0069  0.2401
  952loPI   C3B13545  11.295   3.485   7.629 -0.1761  0.1448  0.0156
  952loPI   C4B13546  11.305   3.556   8.021 -0.0556  0.0238 -0.0169
  953loPI    C113547  16.573   3.784   5.813  0.2105 -0.2652 -0.2274
  953loPI    C213548  16.279   3.994   5.640  0.2869  0.0838  0.0552
  953loPI    C313549  16.405   3.653   5.474 -0.2152 -0.0264 -0.1164
  953loPI   PO413550  16.566   3.934   6.078  0.3233 -0.0808 -0.0959
  953loPI   GL113551  16.631   3.939   6.553  0.0748  0.1958  0.0155
  953loPI   GL213552  16.742   3.707   6.552  0.0673 -0.2884 -0.0968
  953loPI   C1A13553  16.223   3.928   6.603  0.0471  0.2244 -0.2478
  953loPI   C2A13554  16.061   3.967   6.947 -0.1146  0.0836 -0.0278
  953loPI   C3A13555  16.030   3.984   7.316  0.2841  0.1778 -0.2693
  953loPI   C4A13556  15.901   4.076   7.633  0.0110  0.0149  0.0383
  953loPI   C5A13557  15.632   4.223   7.968  0.0403 -0.1866  0.0964
  953loPI   C6A13558  15.300   4.362   8.287 -0.0003  0.2666  0.0102
  953loPI   C1B13559  16.533   3.579   6.871  0.3665 -0.1055 -0.3436
  953loPI   C2B13560  16.460   3.525   7.321  0.0758 -0.3149  0.3210
  953loPI   C3B13561  16.750   3.586   7.622 -0.1380  0.0042 -0.1737
  953loPI   C4B13562  16.759   3.581   8.016  0.0997 -0.0296  0.0408
  954loPI    C113563  10.825   3.604   6.083 -0.0988 -0.1846 -0.0745
  954loPI    C213564  10.840   3.918   5.836  0.1487 -0.2742 -0.1770
  954loPI    C313565  10.665   3.579   5.717  0.0268 -0.2300 -0.1265
  954loPI   PO413566  10.714   3.655   6.361 -0.1453  0.4397 -0.1422
  954loPI   GL113567  10.649   3.439   6.812 -0.0140 -0.0263 -0.0830
  954loPI   GL213568  10.389   3.451   6.665  0.4066  0.2305 -0.1384
  954loPI   C1A13569  10.742   3.034   7.017  0.3523  0.3035  0.2370
  954loPI   C2A13570  10.858   2.689   7.260 -0.0168  0.1285  0.1749
  954loPI   C3A13571  10.934   2.427   7.542  0.0562  0.3254 -0.2924
  954loPI   C4A13572  10.962   2.044   7.783 -0.0299 -0.0262 -0.0341
  954loPI   C5A13573  11.015   1.618   7.931  0.1115  0.0076  0.2027
  954loPI   C6A13574  10.932   1.355   8.257  0.1742 -0.0318  0.2608
  954loPI   C1B13575  10.319   3.488   7.123  0.1894  0.2507 -0.2325
  954loPI   C2B13576  10.406   3.408   7.584 -0.0678  0.2576  0.1904
  954loPI   C3B13577  10.274   3.520   7.946 -0.0195  0.0724  0.2904
  954loPI   C4B13578  10.037   3.557   8.350  0.0335  0.0302 -0.0855
  955loPI    C113579  14.329  13.791   5.325  0.2506  0.1028 -0.1239
  955loPI    C213580  14.085  13.474   5.335  0.2483  0.1111  0.1740
  955loPI    C313581  14.336  13.523   5.028 -0.1075  0.0924 -0.1279
  955loPI   PO413582  14.390  13.793   5.612 -0.3164  0.1868  0.0991
  955loPI   GL113583  14.290  14.101   5.939 -0.1538  0.1611 -0.1461
  955loPI   GL213584  14.511  14.342   5.897  0.0854 -0.0600  0.0766
  955loPI   C1A13585  14.351  14.198   6.394  0.1483 -0.1148 -0.1048
  955loPI   C2A13586  14.578  14.211   6.849 -0.1120 -0.0650 -0.0146
  955loPI   C3A13587  14.645  14.293   7.245  0.2179  0.1268 -0.1622
  955loPI   C4A13588  14.428  14.328   7.580 -0.1369 -0.0967  0.0784
  955loPI   C5A13589  14.321  14.107   7.879  0.2029  0.0536  0.0967
  955loPI   C6A13590  14.120  14.182   8.302 -0.0796 -0.0197  0.0342
  955loPI   C1B13591  14.771  14.700   6.156 -0.0261  0.3287  0.0234
  955loPI   C2B13592  14.881  14.549   6.614  0.1350  0.0623  0.2288
  955loPI   C3B13593  14.991  14.675   7.015  0.3326  0.0117  0.2122
  955loPI   C4B13594  15.054  14.678   7.615  0.1522  0.0384  0.1013
  956loPI    C113595   3.824   5.537   5.937 -0.0155 -0.0674  0.0584
  956loPI    C213596   4.112   5.810   5.888  0.0801 -0.1742  0.0190
  956loPI    C313597   3.954   5.627   5.570  0.0492 -0.1990  0.0484
  956loPI   PO413598   3.863   5.541   6.215  0.0900  0.3238  0.0654
  956loPI   GL113599   4.014   5.656   6.566  0.0244  0.1723 -0.2207
  956loPI   GL213600   3.904   5.910   6.530  0.2199 -0.1461  0.0652
  956loPI   C1A13601   4.163   5.787   6.918 -0.1476  0.3070  0.1175
  956loPI   C2A13602   4.130   5.766   7.302  0.2514 -0.0173 -0.1807
  956loPI   C3A13603   3.984   5.676   7.759  0.0570 -0.0384 -0.0125
  956loPI   C4A13604   3.738   5.872   8.142 -0.0942  0.0138 -0.2398
  956loPI   C5A13605   3.494   6.124   8.404  0.3158  0.1546 -0.0280
  956loPI   C6A13606   3.084   6.321   8.569 -0.0205  0.2383 -0.0707
  956loPI   C1B13607   3.915   6.238   6.863 -0.0675  0.0642  0.0209
  956loPI   C2B13608   4.116   6.300   7.218 -0.2327  0.0429  0.0695
  956loPI   C3B13609   4.094   6.181   7.648 -0.0278 -0.0745  0.3527
  956loPI   C4B13610   4.279   5.986   7.998 -0.1764  0.1263  0.1712
  957loPI    C113611   7.106  12.200   6.074 -0.1996  0.4546 -0.1157
  957loPI    C213612   6.885  12.110   5.753  0.1821 -0.0435 -0.2510
  957loPI    C313613   7.073  12.463   5.774 -0.2031  0.1741 -0.3660
  957loPI   PO413614   7.013  12.277   6.346  0.0449  0.0453  0.2237
  957loPI   GL113615   6.779  12.098   6.706  0.2263 -0.2546 -0.0524
  957loPI   GL213616   6.462  12.090   6.521 -0.2328 -0.0907 -0.2715
  957loPI   C1A13617   6.931  12.118   7.109 -0.4639  0.4129 -0.1875
  957loPI   C2A13618   6.855  12.158   7.539  0.3150 -0.1104 -0.0736
  957loPI   C3A13619   6.966  12.118   7.982 -0.1665 -0.4478  0.3074
  957loPI   C4A13620   6.914  11.741   8.377  0.1729 -0.1259 -0.1414
  957loPI   C5A13621   6.673  11.418   8.326 -0.0353 -0.0620  0.0830
  957loPI   C6A13622   6.647  11.057   8.560 -0.1242 -0.0015  0.0411
  957loPI   C1B13623   6.392  12.075   6.990 -0.1966 -0.1768  0.1905
  957loPI   C2B13624   6.331  12.306   7.392  0.1251  0.0651  0.0755
  957loPI   C3B13625   6.388  12.063   7.844 -0.2513  0.1480  0.0480
  957loPI   C4B13626   6.437  11.978   8.232 -0.0333 -0.1854 -0.0348
  958loPI    C113627   8.573   2.315   5.757 -0.1170  0.2071  0.2424
  958loPI    C213628   8.262   2.106   5.617  0.0136 -0.0644  0.3498
  958loPI    C313629   8.372   2.446   5.438 -0.1147 -0.1599  0.0849
  958loPI   PO413630   8.578   2.379   6.018  0.2700 -0.0453  0.1378
  958loPI   GL113631   8.354   2.528   6.352  0.0440 -0.1611 -0.3676
  958loPI   GL213632   8.126   2.228   6.236 -0.0317 -0.0927  0.5352
  958loPI   C1A13633   8.459   2.275   6.692 -0.1148  0.1204  0.2265
  958loPI   C2A13634   8.376   1.847   6.889 -0.0663  0.0768 -0.3888
  958loPI   C3A13635   8.372   1.459   6.994  0.1745  0.1748  0.1838
  958loPI   C4A13636   8.349   1.394   7.337  0.1108  0.2527 -0.1610
  958loPI   C5A13637   8.265   1.545   7.721 -0.0905  0.0974 -0.0406
  958loPI   C6A13638   8.136   1.396   8.021 -0.0955 -0.2707  0.0315
  958loPI   C1B13639   7.952   2.058   6.651 -0.3027  0.0421  0.2700
  958loPI   C2B13640   8.076   2.190   7.062  0.1096 -0.0452 -0.2039
  958loPI   C3B13641   7.997   2.250   7.498 -0.0179  0.2073  0.0524
  958loPI   C4B13642   7.668   2.080   7.672 -0.0138  0.0362 -0.0039
  959loPI    C113643  11.718   9.042   6.061  0.1725  0.0669 -0.0314
  959loPI    C213644  11.499   9.210   5.771 -0.1116 -0.1082  0.0770
  959loPI    C313645  11.828   9.003   5.679 -0.0182  0.1113 -0.0923
  959loPI   PO413646  11.516   8.895   6.188 -0.1182 -0.0536 -0.4656
  959loPI   GL113647  11.232   8.829   6.525 -0.1119 -0.3620 -0.0878
  959loPI   GL213648  11.252   9.063   6.712  0.0576  0.0178 -0.0088
  959loPI   C1A13649  10.959   8.697   6.828  0.0268  0.1941 -0.1667
  959loPI   C2A13650  10.900   8.579   7.245  0.1341  0.0453 -0.0427
  959loPI   C3A13651  11.043   8.788   7.683 -0.2568  0.2863  0.1320
  959loPI   C4A13652  11.213   8.913   7.998  0.2022 -0.1190  0.0776
  959loPI   C5A13653  11.413   8.960   8.356  0.0977  0.2629  0.1952
  959loPI   C6A13654  11.702   9.073   8.623  0.0304 -0.4136  0.0853
  959loPI   C1B13655  11.252   8.992   7.136  0.0325 -0.0164 -0.0760
  959loPI   C2B13656  11.321   9.172   7.566  0.2051 -0.1131 -0.0284
  959loPI   C3B13657  11.433   9.397   7.972 -0.0359  0.0147  0.1519
  959loPI   C4B13658  11.733   9.493   8.326  0.0555  0.0124 -0.0897
  960loPI    C113659   3.288  13.918   6.031  0.0376  0.2324 -0.0070
  960loPI    C213660   3.570  13.635   6.046 -0.1336  0.0680  0.1741
  960loPI    C313661   3.282  13.616   5.769 -0.1018  0.1075  0.1381
  960loPI   PO413662   3.253  13.950   6.253 -0.0702 -0.3842 -0.3250
  960loPI   GL113663   2.922  13.890   6.469 -0.1324 -0.2157 -0.1669
  960loPI   GL213664   2.927  14.209   6.578  0.0097  0.2166 -0.1727
  960loPI   C1A13665   3.110  13.876   6.935  0.0360  0.0131  0.2189
  960loPI   C2A13666   3.168  13.764   7.376 -0.1423 -0.0144 -0.0377
  960loPI   C3A13667   3.274  13.964   7.739 -0.1627  0.0304 -0.2726
  960loPI   C4A13668   3.622  14.196   7.851  0.0970 -0.2304 -0.1187
  960loPI   C5A13669   3.583  14.384   8.231 -0.0768 -0.1481  0.1798
  960loPI   C6A13670   3.766  14.806   8.365  0.4610  0.0924  0.2684
  960loPI   C1B13671   2.673  14.190   6.968  0.2691 -0.1578  0.0070
  960loPI   C2B13672   2.795  14.091   7.421 -0.0914  0.1909  0.1722
  960loPI   C3B13673   2.826  14.108   7.822  0.1985  0.0537  0.3219
  960loPI   C4B13674   2.681  14.327   8.112  0.0881 -0.1377 -0.3165
  961loPI    C113675  15.070   3.745   5.986 -0.1872  0.0533 -0.0588
  961loPI    C213676  14.990   4.055   5.747  0.0573  0.0448 -0.1543
  961loPI    C313677  15.255   3.778   5.633  0.1861  0.0471  0.1316
  961loPI   PO413678  14.874   3.714   6.126 -0.0460 -0.2328  0.0165
  961loPI   GL113679  14.657   3.960   6.390  0.0987  0.0369 -0.0020
  961loPI   GL213680  14.682   4.260   6.190 -0.0919 -0.1070  0.0943
  961loPI   C1A13681  14.817   3.732   6.786 -0.0348  0.0421  0.1992
  961loPI   C2A13682  14.953   3.661   7.248  0.0804  0.1267  0.3575
  961loPI   C3A13683  14.959   3.667   7.626 -0.2278  0.0859 -0.0501
  961loPI   C4A13684  14.779   3.642   8.013  0.1921 -0.3249  0.1060
  961loPI   C5A13685  14.841   3.389   8.168  0.0043  0.3333  0.0991
  961loPI   C6A13686  15.102   3.153   8.349  0.0127 -0.2950  0.0550
  961loPI   C1B13687  14.818   4.545   6.539  0.2159 -0.1229  0.0412
  961loPI   C2B13688  14.821   4.678   7.059 -0.0449 -0.2334  0.0402
  961loPI   C3B13689  14.848   4.610   7.488 -0.2783 -0.2277 -0.1213
  961loPI   C4B13690  15.061   4.548   7.881  0.0529 -0.0986 -0.1537
  962loPI    C113691   6.994   6.466   5.689 -0.2244 -0.2623  0.0074
  962loPI    C213692   6.970   6.664   5.343 -0.3228 -0.0368  0.1412
  962loPI    C313693   7.217   6.352   5.377 -0.0946  0.1197 -0.0452
  962loPI   PO413694   6.935   6.641   5.858 -0.0437  0.0438  0.1202
  962loPI   GL113695   7.143   6.866   6.171  0.4337  0.2131 -0.2763
  962loPI   GL213696   6.901   7.124   6.130  0.1714  0.2144 -0.1910
  962loPI   C1A13697   7.211   7.078   6.690 -0.1408  0.1220 -0.0644
  962loPI   C2A13698   7.289   7.038   7.104  0.0816  0.0829 -0.2258
  962loPI   C3A13699   7.337   6.933   7.585 -0.0756 -0.0625  0.0170
  962loPI   C4A13700   7.292   6.883   8.088  0.1210 -0.4221  0.1825
  962loPI   C5A13701   7.111   7.167   8.385  0.4059 -0.1052  0.1280
  962loPI   C6A13702   7.037   7.211   8.805 -0.0904 -0.2057 -0.2125
  962loPI   C1B13703   6.803   6.986   6.549  0.4123  0.1245  0.1517
  962loPI   C2B13704   6.799   7.023   6.984 -0.0790 -0.0420 -0.0566
  962loPI   C3B13705   6.860   6.853   7.356 -0.0548 -0.1270 -0.1296
  962loPI   C4B13706   6.915   6.831   7.792  0.0720  0.1418 -0.3526
  963loPI    C113707  14.792   2.986   5.746 -0.1746  0.0143  0.2601
  963loPI    C213708  14.557   3.238   5.544 -0.1187  0.0292  0.2133
  963loPI    C313709  14.883   3.376   5.730 -0.0613 -0.0160  0.1467
  963loPI   PO413710  14.638   2.864   5.879  0.1754 -0.4107 -0.0326
  963loPI   GL113711  14.604   2.815   6.236  0.0612  0.1120 -0.1564
  963loPI   GL213712  14.311   2.916   6.270 -0.1594  0.1043  0.2375
  963loPI   C1A13713  14.858   2.779   6.571 -0.0490  0.0178  0.0530
  963loPI   C2A13714  14.827   2.840   6.903 -0.0653  0.0201 -0.0602
  963loPI   C3A13715  14.869   2.784   7.252 -0.0420  0.1312 -0.0475
  963loPI   C4A13716  14.896   2.768   7.623 -0.0437 -0.5900  0.3465
  963loPI   C5A13717  14.925   2.519   8.020 -0.3218 -0.2258 -0.1743
  963loPI   C6A13718  14.476   2.520   8.201 -0.2025  0.1838  0.2659
  963loPI   C1B13719  14.162   3.035   6.630  0.0338  0.1500  0.1069
  963loPI   C2B13720  14.050   2.864   7.059 -0.0217  0.2401  0.0712
  963loPI   C3B13721  14.169   2.680   7.402  0.1483  0.4313  0.1378
  963loPI   C4B13722  14.212   2.760   7.879 -0.2211 -0.1171 -0.1005
  964loPI    C113723   9.930   2.203   6.082 -0.1195 -0.0949 -0.2301
  964loPI    C213724  10.141   2.057   5.775  0.2737 -0.0746  0.0243
  964loPI    C313725  10.173   2.443   5.874 -0.0471 -0.0229 -0.0638
  964loPI   PO413726   9.933   1.992   6.194  0.0732 -0.3247 -0.1722
  964loPI   GL113727  10.068   1.917   6.552 -0.0313  0.0037 -0.0003
  964loPI   GL213728  10.358   1.830   6.548  0.1960 -0.3383 -0.0553
  964loPI   C1A13729   9.864   2.032   6.935  0.2122 -0.1397 -0.1068
  964loPI   C2A13730   9.629   2.212   7.271 -0.1286  0.0912  0.1153
  964loPI   C3A13731   9.382   2.319   7.661 -0.0515  0.0112 -0.2034
  964loPI   C4A13732   9.106   2.434   8.067 -0.0449 -0.0407  0.1500
  964loPI   C5A13733   8.835   2.417   8.368 -0.0235  0.0749 -0.1845
  964loPI   C6A13734   8.519   2.398   8.728  0.2690  0.0167  0.3201
  964loPI   C1B13735  10.502   1.920   6.947 -0.0913  0.0249 -0.1420
  964loPI   C2B13736  10.618   1.854   7.332  0.1988 -0.1294 -0.0628
  964loPI   C3B13737  10.501   1.679   7.645 -0.0442  0.2362 -0.2652
  964loPI   C4B13738  10.188   1.681   8.038 -0.1484 -0.0310 -0.1038
  965loPI    C113739  13.390   8.727   5.690  0.0772 -0.0360  0.1658
  965loPI    C213740  13.559   8.614   5.345  0.0134  0.2482  0.0376
  965loPI    C313741  13.443   8.339   5.612  0.0237  0.0236 -0.1862
  965loPI   PO413742  13.545   8.907   5.744 -0.0783 -0.0124 -0.2146
  965loPI   GL113743  13.383   8.993   6.103 -0.2647  0.2782  0.1301
  965loPI   GL213744  13.181   8.736   6.317  0.1160  0.0412 -0.1317
  965loPI   C1A13745  13.740   8.973   6.370 -0.0930 -0.1446 -0.0582
  965loPI   C2A13746  13.876   8.938   6.814  0.0033 -0.1913 -0.1106
  965loPI   C3A13747  13.929   9.023   7.178 -0.1173 -0.0482  0.0188
  965loPI   C4A13748  13.966   8.880   7.575 -0.1386 -0.1221 -0.0061
  965loPI   C5A13749  13.918   8.988   8.064  0.2046  0.2115  0.0152
  965loPI   C6A13750  13.630   8.943   8.343 -0.1155 -0.3145 -0.2568
  965loPI   C1B13751  13.020   8.869   6.746 -0.2118  0.2892 -0.3433
  965loPI   C2B13752  13.039   8.853   7.263  0.1116  0.0511 -0.0264
  965loPI   C3B13753  12.943   8.889   7.661  0.1832 -0.1836  0.1954
  965loPI   C4B13754  12.823   8.947   8.035  0.1332  0.1962 -0.0991
  966loPI    C113755   9.575  17.873   5.861 -0.0550  0.0553 -0.1899
  966loPI    C213756   9.405  17.916   5.502 -0.2906  0.0170 -0.0848
  966loPI    C313757   9.269  17.638   5.755 -0.1188  0.0365  0.0303
  966loPI   PO413758   9.597  18.013   5.940 -0.2542  0.2174 -0.1884
  966loPI   GL113759   9.337  18.284   6.299  0.1736 -0.1462 -0.1624
  966loPI   GL213760   9.646  18.372   6.279  0.2169  0.1481  0.1300
  966loPI   C1A13761   9.392  18.604   6.619 -0.1382 -0.1590  0.1411
  966loPI   C2A13762   9.370  18.787   6.987  0.2066  0.2575 -0.1136
  966loPI   C3A13763   9.300  18.853   7.452  0.0646  0.1610 -0.1111
  966loPI   C4A13764   9.218  18.771   7.930  0.0472  0.2116 -0.0471
  966loPI   C5A13765   8.872  18.652   8.186  0.2092 -0.4779  0.0884
  966loPI   C6A13766   8.561  18.483   8.423 -0.0887  0.1389 -0.2429
  966loPI   C1B13767   9.867  18.432   6.616  0.0315  0.0121  0.1436
  966loPI   C2B13768   9.851  18.536   6.956  0.0238  0.3442 -0.1465
  966loPI   C3B13769   9.770  18.582   7.476 -0.1763 -0.2440  0.3580
  966loPI   C4B13770   9.700  18.610   7.963 -0.0515 -0.0602 -0.0714
  967loPI    C113771  13.836  17.025   5.230 -0.0630 -0.0118 -0.0875
  967loPI    C213772  13.692  17.393   5.293  0.0480  0.0044  0.0763
  967loPI    C313773  13.842  17.295   4.935 -0.1309  0.0675 -0.0167
  967loPI   PO413774  13.967  17.007   5.444  0.0537 -0.1742  0.0977
  967loPI   GL113775  14.186  17.101   5.728 -0.0682 -0.0464 -0.0488
  967loPI   GL213776  14.409  16.821   5.899  0.0356 -0.0990  0.0873
  967loPI   C1A13777  14.214  17.179   6.211 -0.0886  0.2663  0.0291
  967loPI   C2A13778  14.295  17.106   6.613 -0.1662  0.2458 -0.2744
  967loPI   C3A13779  14.403  17.113   7.044 -0.0399 -0.1882  0.0516
  967loPI   C4A13780  14.435  17.046   7.473 -0.3201  0.1255  0.0058
  967loPI   C5A13781  14.218  16.832   7.719 -0.0261  0.0090 -0.0550
  967loPI   C6A13782  13.858  16.817   8.019  0.1429  0.1089  0.4669
  967loPI   C1B13783  14.540  16.732   6.336  0.1123  0.0600 -0.0441
  967loPI   C2B13784  14.807  16.851   6.709  0.0624  0.1045 -0.1073
  967loPI   C3B13785  14.827  16.852   7.183 -0.1113 -0.0440  0.1047
  967loPI   C4B13786  14.959  17.033   7.574 -0.1603 -0.0240  0.0429
  968loPI    C113787   4.695   0.898   5.647 -0.2209 -0.2092 -0.1085
  968loPI    C213788   4.972   0.613   5.599  0.0579  0.0357  0.0087
  968loPI    C313789   4.970   0.932   5.358 -0.1093  0.0479  0.0249
  968loPI   PO413790   4.460   0.654   5.813 -0.0265  0.0911 -0.1814
  968loPI   GL113791   4.376   0.713   6.268  0.0511  0.0831  0.0884
  968loPI   GL213792   4.343   0.400   6.309  0.0246 -0.0221  0.0449
  968loPI   C1A13793   4.560   0.718   6.682  0.1232  0.1779  0.0870
  968loPI   C2A13794   4.524   0.569   7.132  0.0452 -0.0333 -0.0018
  968loPI   C3A13795   4.382   0.714   7.516 -0.0219  0.2121  0.2150
  968loPI   C4A13796   4.254   0.704   7.959  0.2367 -0.0270  0.1731
  968loPI   C5A13797   3.958   0.571   8.377  0.1533  0.2602  0.0182
  968loPI   C6A13798   3.568   0.404   8.483 -0.1002  0.1083 -0.0315
  968loPI   C1B13799   4.128   0.368   6.705  0.3422  0.0983 -0.0704
  968loPI   C2B13800   4.061   0.397   7.144  0.2940 -0.3262 -0.0162
  968loPI   C3B13801   3.918   0.433   7.562 -0.0713 -0.0118  0.1098
  968loPI   C4B13802   3.686   0.492   7.904 -0.0065  0.0587 -0.0555
  969loPI    C113803  11.245  17.139   5.390  0.0382  0.1382 -0.1690
  969loPI    C213804  11.147  16.897   5.088  0.0521 -0.0495 -0.0251
  969loPI    C313805  10.876  16.986   5.368  0.1068 -0.0623  0.0319
  969loPI   PO413806  11.468  17.105   5.405 -0.0772 -0.4345 -0.1010
  969loPI   GL113807  11.821  17.286   5.584  0.2622  0.2642 -0.0906
  969loPI   GL213808  11.721  17.097   5.922 -0.0077  0.1199  0.0315
  969loPI   C1A13809  11.910  17.544   5.925  0.1163 -0.0314  0.3161
  969loPI   C2A13810  11.783  17.566   6.322  0.0859  0.2950  0.0936
  969loPI   C3A13811  11.741  17.659   6.850  0.3237  0.1434  0.1025
  969loPI   C4A13812  11.741  17.351   7.212 -0.2071 -0.0830 -0.1192
  969loPI   C5A13813  11.846  17.337   7.621  0.0439 -0.1556  0.1164
  969loPI   C6A13814  11.777  17.283   7.971  0.0667  0.0022 -0.1458
  969loPI   C1B13815  11.760  17.079   6.366  0.3324  0.0039 -0.0123
  969loPI   C2B13816  11.990  17.199   6.686 -0.0179  0.1271 -0.0848
  969loPI   C3B13817  12.091  17.020   7.128 -0.1287  0.0235  0.2064
  969loPI   C4B13818  11.985  16.602   7.154 -0.2245  0.0208  0.1145
  970loPI    C113819   1.173   3.911   6.097  0.1623 -0.2062  0.0719
  970loPI    C213820   1.143   3.823   5.708 -0.0676  0.2147 -0.0118
  970loPI    C313821   0.938   3.610   5.978 -0.2325  0.1816 -0.1613
  970loPI   PO413822   1.395   3.911   6.180 -0.0821  0.1011 -0.0689
  970loPI   GL113823   1.712   4.152   6.574 -0.3876 -0.3459  0.1393
  970loPI   GL213824   1.722   4.344   6.226  0.0661 -0.3740 -0.0586
  970loPI   C1A13825   1.686   3.759   6.779 -0.2798 -0.1035  0.0030
  970loPI   C2A13826   1.626   3.758   7.271 -0.0145 -0.0218 -0.0594
  970loPI   C3A13827   1.600   4.073   7.599 -0.1170 -0.2040  0.0353
  970loPI   C4A13828   1.733   4.262   7.926 -0.0601  0.0215 -0.0909
  970loPI   C5A13829   1.845   4.281   8.327 -0.1719  0.0191  0.0074
  970loPI   C6A13830   2.154   4.302   8.665  0.0603  0.2439 -0.0762
  970loPI   C1B13831   2.141   4.149   6.270 -0.4228 -0.0679  0.0083
  970loPI   C2B13832   2.172   3.923   6.643 -0.3891 -0.1243  0.4026
  970loPI   C3B13833   2.255   3.966   7.009  0.1579  0.0292 -0.2275
  970loPI   C4B13834   2.109   4.002   7.444  0.0298  0.0116 -0.0705
  971loPI    C113835  10.720  10.643   5.668  0.0481  0.1279  0.0336
  971loPI    C213836  11.097  10.757   5.595  0.0804  0.0053  0.0051
  971loPI    C313837  10.981  10.385   5.508  0.0232 -0.0372  0.2551
  971loPI   PO413838  10.701  10.753   5.915 -0.0632  0.0835  0.3071
  971loPI   GL113839  10.809  10.687   6.324  0.2641  0.0661  0.2291
  971loPI   GL213840  11.038  10.930   6.336 -0.1987 -0.3972  0.1106
  971loPI   C1A13841  10.750  10.917   6.764 -0.1055  0.0313 -0.1148
  971loPI   C2A13842  10.758  10.948   7.225  0.1549 -0.1839 -0.0473
  971loPI   C3A13843  10.726  10.936   7.686  0.2865  0.2091 -0.0091
  971loPI   C4A13844  10.779  11.007   8.182  0.1867  0.1107 -0.0377
  971loPI   C5A13845  10.615  11.206   8.517 -0.3085 -0.0157  0.0255
  971loPI   C6A13846  10.520  11.621   8.443 -0.3696  0.1482  0.0469
  971loPI   C1B13847  11.226  11.101   6.814  0.0434  0.1346 -0.1446
  971loPI   C2B13848  11.269  11.172   7.149  0.2159  0.0763  0.1381
  971loPI   C3B13849  11.146  11.071   7.529 -0.0378  0.0334 -0.1315
  971loPI   C4B13850  11.251  11.267   7.869 -0.0591  0.2582 -0.2148
  972loPI    C113851  12.298   1.804   5.598  0.1600  0.0773 -0.1235
  972loPI    C213852  11.926   1.902   5.490  0.1129  0.0549  0.0160
  972loPI    C313853  12.224   2.165   5.443  0.0676  0.0976 -0.0328
  972loPI   PO413854  12.242   1.515   5.612 -0.0240 -0.1729  0.2008
  972loPI   GL113855  12.101   1.481   5.915  0.0420 -0.4465  0.2697
  972loPI   GL213856  11.858   1.212   5.835 -0.1148  0.0638  0.1042
  972loPI   C1A13857  12.284   1.245   6.237 -0.0801  0.4440 -0.2284
  972loPI   C2A13858  12.297   0.892   6.554  0.0998  0.0096 -0.1455
  972loPI   C3A13859  12.629   0.965   6.862  0.1173 -0.2599  0.1954
  972loPI   C4A13860  12.782   0.916   7.216 -0.1420  0.1388  0.1286
  972loPI   C5A13861  12.861   0.924   7.717 -0.3510  0.2497 -0.1772
  972loPI   C6A13862  13.000   1.238   8.030  0.0728 -0.1007  0.0244
  972loPI   C1B13863  11.820   1.126   6.220  0.0955  0.0419 -0.1806
  972loPI   C2B13864  11.915   1.257   6.592  0.2858  0.0104  0.0401
  972loPI   C3B13865  12.166   1.170   6.969  0.0444  0.2147 -0.3294
  972loPI   C4B13866  12.422   1.390   7.259 -0.1658 -0.2009 -0.2438
  973loPI    C113867   0.476  12.013   5.480  0.1278  0.0476 -0.1161
  973loPI    C213868   0.517  11.643   5.333  0.0168 -0.0737  0.1515
  973loPI    C313869   0.827  11.897   5.325  0.0303 -0.0959 -0.2327
  973loPI   PO413870   0.385  11.959   5.783  0.0171 -0.1243  0.1195
  973loPI   GL113871   0.260  12.377   6.051  0.0436 -0.0966 -0.0634
  973loPI   GL213872  -0.008  12.199   6.023 -0.1098  0.0333  0.0053
  973loPI   C1A13873   0.406  12.642   6.370 -0.1261  0.2690  0.2293
  973loPI   C2A13874   0.189  12.600   6.827 -0.2025 -0.0020  0.0499
  973loPI   C3A13875   0.190  12.642   7.249 -0.2378 -0.0828 -0.1259
  973loPI   C4A13876   0.301  12.877   7.529 -0.5091 -0.1993 -0.5868
  973loPI   C5A13877   0.416  12.981   7.918 -0.0739  0.0724 -0.0298
  973loPI   C6A13878   0.176  13.264   8.157 -0.2873  0.0099  0.0256
  973loPI   C1B13879   0.056  12.182   6.481  0.0312  0.1644  0.1682
  973loPI   C2B13880   0.238  12.059   6.802 -0.0160 -0.1550 -0.2070
  973loPI   C3B13881   0.424  12.151   7.230 -0.2723  0.2419  0.2116
  973loPI   C4B13882   0.352  11.948   7.637  0.0579  0.1250 -0.1098
  974loPI    C113883   9.859  10.266   6.161 -0.1908  0.2844 -0.0837
  974loPI    C213884   9.574  10.024   6.020 -0.0038 -0.0120  0.0351
  974loPI    C313885   9.789  10.248   5.767 -0.1352 -0.0166 -0.0823
  974loPI   PO413886   9.776  10.359   6.347 -0.0440  0.1180 -0.1415
  974loPI   GL113887   9.898  10.252   6.775 -0.1897 -0.2052 -0.3377
  974loPI   GL213888   9.859  10.679   6.729  0.0435 -0.2008  0.2829
  974loPI   C1A13889   9.948  10.179   7.276  0.2424  0.0144  0.3464
  974loPI   C2A13890  10.085  10.282   7.738 -0.1017 -0.1040  0.0021
  974loPI   C3A13891  10.352  10.291   8.075  0.0713  0.0765  0.5069
  974loPI   C4A13892  10.574  10.432   8.481 -0.1689 -0.1950  0.4911
  974loPI   C5A13893  10.788  10.762   8.704  0.2113 -0.0876  0.1584
  974loPI   C6A13894  10.930  10.815   9.171  0.0207  0.3047 -0.1974
  974loPI   C1B13895   9.668  10.545   7.117 -0.1698  0.2295  0.1983
  974loPI   C2B13896   9.613  10.568   7.594  0.0496 -0.1828 -0.0474
  974loPI   C3B13897   9.392  10.641   7.971 -0.0980 -0.0335 -0.0824
  974loPI   C4B13898   9.351  10.581   8.395 -0.1417  0.2510  0.2653
  975loPI    C113899  17.056   9.095   5.655 -0.1198  0.1410 -0.1947
  975loPI    C213900  16.763   9.336   5.782 -0.1273  0.0207  0.0208
  975loPI    C313901  16.776   8.955   5.904  0.0880  0.0100 -0.0314
  975loPI   PO413902  17.224   9.168   5.727  0.5279 -0.1378 -0.1621
  975loPI   GL113903  17.170   9.031   6.223  0.0103 -0.1897 -0.2030
  975loPI   GL213904  17.118   9.261   6.203 -0.0737 -0.1282  0.5483
  975loPI   C1A13905  17.371   8.981   6.656 -0.3611 -0.0460  0.2170
  975loPI   C2A13906  17.273   8.777   7.044  0.0986  0.1614  0.1615
  975loPI   C3A13907  17.030   8.907   7.351 -0.1692  0.0588  0.1914
  975loPI   C4A13908  16.819   9.146   7.760  0.0989  0.0752 -0.2118
  975loPI   C5A13909  16.550   9.464   8.005 -0.2117  0.2606  0.1712
  975loPI   C6A13910  16.376   9.426   8.370  0.0650  0.0687 -0.0781
  975loPI   C1B13911  17.191   9.668   6.469  0.0116  0.0020  0.1874
  975loPI   C2B13912  17.251   9.825   6.883 -0.0089 -0.3001 -0.0747
  975loPI   C3B13913  17.293   9.792   7.294 -0.0203 -0.0804  0.0106
  975loPI   C4B13914  17.369   9.784   7.690  0.0775 -0.0996 -0.1165
  976loPI    C113915   6.885   2.345   6.317 -0.0152 -0.1330  0.0820
  976loPI    C213916   6.554   2.172   6.174 -0.1367 -0.0328  0.2377
  976loPI    C313917   6.861   2.250   5.929 -0.1916 -0.2085  0.1103
  976loPI   PO413918   6.774   2.536   6.422 -0.1945 -0.2177 -0.1276
  976loPI   GL113919   6.865   2.718   6.827 -0.0905  0.2764  0.1989
  976loPI   GL213920   6.858   2.971   6.747 -0.3635  0.2164  0.0395
  976loPI   C1A13921   6.836   2.594   7.240 -0.0554  0.3364 -0.0533
  976loPI   C2A13922   6.780   2.487   7.528  0.1750  0.0734 -0.0483
  976loPI   C3A13923   6.673   2.390   7.936  0.0744 -0.1824 -0.3453
  976loPI   C4A13924   6.712   2.164   8.254 -0.0911  0.0143 -0.1073
  976loPI   C5A13925   6.527   2.257   8.716 -0.0234  0.1788 -0.0641
  976loPI   C6A13926   6.031   2.307   8.860 -0.0514  0.0762  0.0026
  976loPI   C1B13927   6.886   3.159   7.210 -0.3984  0.0795 -0.0605
  976loPI   C2B13928   7.002   3.246   7.732 -0.0158  0.4256 -0.3012
  976loPI   C3B13929   6.972   3.134   8.224 -0.0311  0.0810  0.1968
  976loPI   C4B13930   6.992   3.460   8.614 -0.2346  0.1543  0.0288
  977loPI    C113931   6.965  16.392   5.540  0.0328 -0.0581  0.1341
  977loPI    C213932   7.132  16.031   5.586  0.0410 -0.0619  0.0738
  977loPI    C313933   6.955  16.127   5.240  0.1762  0.0479  0.0340
  977loPI   PO413934   6.961  16.453   5.754  0.1246  0.0895 -0.2901
  977loPI   GL113935   7.061  16.706   6.050 -0.0851 -0.0225 -0.0009
  977loPI   GL213936   6.731  16.846   6.123  0.1532  0.1168 -0.0319
  977loPI   C1A13937   7.111  16.789   6.458 -0.2706 -0.1518  0.0261
  977loPI   C2A13938   7.064  16.576   6.827 -0.0588 -0.1373 -0.0938
  977loPI   C3A13939   7.116  16.500   7.248  0.1382 -0.1885 -0.2501
  977loPI   C4A13940   6.981  16.608   7.611 -0.2713 -0.0459  0.0864
  977loPI   C5A13941   6.842  16.672   8.002  0.0026  0.1488  0.1568
  977loPI   C6A13942   6.704  16.901   8.271  0.2119 -0.2464  0.0760
  977loPI   C1B13943   6.608  16.660   6.489  0.1145  0.0410 -0.2838
  977loPI   C2B13944   6.621  16.462   6.907 -0.0049  0.0786 -0.1823
  977loPI   C3B13945   6.590  16.399   7.348  0.1326  0.1182  0.0277
  977loPI   C4B13946   6.485  16.447   7.727 -0.2415 -0.0309  0.1988
  978loPI    C113947  10.593  10.238   6.029  0.0152 -0.1609 -0.0174
  978loPI    C213948  10.338  10.502   6.189  0.0490 -0.0690 -0.1140
  978loPI    C313949  10.283  10.373   5.814  0.1344 -0.0627 -0.1288
  978loPI   PO413950  10.647  10.059   6.210  0.0270  0.3207 -0.0304
  978loPI   GL113951  10.675   9.872   6.642 -0.0179  0.2141 -0.3740
  978loPI   GL213952  10.829   9.612   6.801  0.0466  0.0423 -0.0209
  978loPI   C1A13953  10.496   9.890   7.011  0.1133  0.0544  0.2437
  978loPI   C2A13954  10.484  10.136   7.412 -0.0564 -0.1697 -0.0293
  978loPI   C3A13955  10.671  10.416   7.594  0.0584 -0.2586  0.5623
  978loPI   C4A13956  10.798  10.538   8.000 -0.1960 -0.0049 -0.2195
  978loPI   C5A13957  11.063  10.522   8.366  0.2725  0.0500 -0.0051
  978loPI   C6A13958  10.971  10.137   8.671  0.1704  0.0362 -0.3791
  978loPI   C1B13959  11.034   9.416   7.214  0.0173 -0.0483 -0.2506
  978loPI   C2B13960  10.995   9.484   7.712 -0.0348 -0.1747  0.3205
  978loPI   C3B13961  11.122   9.744   8.060  0.2367 -0.0554  0.1583
  978loPI   C4B13962  11.294   9.929   8.406  0.0499 -0.0796 -0.0275
  979loPI    C113963   6.813   0.041   5.798 -0.2160  0.0813 -0.0190
  979loPI    C213964   6.935  -0.274   6.013 -0.0602  0.1415 -0.0181
  979loPI    C313965   6.768  -0.330   5.654 -0.2030  0.0480  0.0616
  979loPI   PO413966   6.583   0.134   5.900  0.1556 -0.1154 -0.3821
  979loPI   GL113967   6.735   0.244   6.338  0.5010 -0.1655 -0.1215
  979loPI   GL213968   6.769   0.529   6.428 -0.0027 -0.1495  0.1021
  979loPI   C1A13969   6.500   0.120   6.655 -0.0511 -0.2587 -0.1766
  979loPI   C2A13970   6.510   0.112   7.048 -0.0039 -0.0809 -0.2127
  979loPI   C3A13971   6.537   0.058   7.357 -0.1044  0.1207  0.0904
  979loPI   C4A13972   6.585  -0.020   7.719  0.0928 -0.2133  0.1422
  979loPI   C5A13973   6.433  -0.074   8.112 -0.0983  0.1282 -0.0128
  979loPI   C6A13974   6.752  -0.157   8.431 -0.1933 -0.3889 -0.1645
  979loPI   C1B13975   6.710   0.523   6.887  0.0799  0.2515  0.1386
  979loPI   C2B13976   6.753   0.576   7.372  0.0504  0.0067 -0.1492
  979loPI   C3B13977   6.849   0.672   7.877 -0.1173 -0.1582 -0.2636
  979loPI   C4B13978   6.764   0.412   8.337 -0.0374 -0.0359  0.1792
  980loPI    C113979  17.299   1.808   5.503  0.1454  0.3405  0.2334
  980loPI    C213980  17.372   2.168   5.344  0.0165  0.1686 -0.2325
  980loPI    C313981  17.243   1.869   5.111  0.2596 -0.2225  0.1200
  980loPI   PO413982  17.462   1.655   5.684 -0.2481  0.1595  0.1538
  980loPI   GL113983  17.670   1.839   6.050  0.4244  0.0530 -0.1289
  980loPI   GL213984  17.915   1.893   6.225 -0.1828 -0.1196  0.1750
  980loPI   C1A13985  17.401   1.798   6.505  0.0295  0.1614 -0.5137
  980loPI   C2A13986  17.521   2.085   6.715 -0.2164 -0.0566 -0.0658
  980loPI   C3A13987  17.468   2.148   7.022 -0.0350  0.1693 -0.0778
  980loPI   C4A13988  17.495   2.262   7.481 -0.2141 -0.1935  0.0346
  980loPI   C5A13989  17.522   2.150   7.825 -0.2670  0.1045  0.1444
  980loPI   C6A13990  17.565   1.826   8.177 -0.1358 -0.2809 -0.2544
  980loPI   C1B13991  17.974   1.859   6.647  0.1502  0.0111  0.1197
  980loPI   C2B13992  17.719   1.720   7.025 -0.1488  0.1901 -0.0089
  980loPI   C3B13993  17.531   1.688   7.307 -0.1465 -0.0621 -0.0636
  980loPI   C4B13994  17.330   1.686   7.703  0.2738 -0.0909 -0.3058
  981loPI    C113995  12.616   4.724   6.014  0.0377 -0.1529  0.2193
  981loPI    C213996  12.418   4.675   6.358 -0.1447  0.0162  0.1403
  981loPI    C313997  12.349   4.428   6.050  0.0034 -0.1224  0.2165
  981loPI   PO413998  12.835   4.724   6.044 -0.1719 -0.1876  0.2386
  981loPI   GL113999  13.115   4.610   6.343 -0.0298 -0.1385  0.2363
  981loPI   GL214000  12.933   4.408   6.565 -0.1926 -0.4953  0.2452
  981loPI   C1A14001  13.418   4.682   6.616 -0.3713  0.1159 -0.1740
  981loPI   C2A14002  13.423   4.777   6.991 -0.0231 -0.1303 -0.2772
  981loPI   C3A14003  13.495   4.717   7.411 -0.1001  0.2139  0.1408
  981loPI   C4A14004  13.398   4.585   7.762 -0.2789 -0.0231 -0.5203
  981loPI   C5A14005  13.105   4.441   8.019  0.1515 -0.0112 -0.1427
  981loPI   C6A14006  12.790   4.556   8.369  0.1870 -0.0790  0.0497
  981loPI   C1B14007  13.079   4.430   6.908  0.3548  0.0130 -0.0626
  981loPI   C2B14008  13.139   4.393   7.293 -0.0304 -0.1754  0.1999
  981loPI   C3B14009  13.230   4.082   7.577  0.0320  0.2490 -0.0228
  981loPI   C4B14010  13.271   3.908   7.908  0.0890  0.1823  0.1889
  982loPI    C114011   4.911  11.354   5.590 -0.2270  0.0092 -0.0427
  982loPI    C214012   4.761  11.229   5.241  0.0080  0.0606 -0.1643
  982loPI    C314013   5.037  11.010   5.431 -0.1669  0.0000  0.0242
  982loPI   PO414014   4.649  11.393   5.712 -0.1201 -0.2013  0.2595
  982loPI   GL114015   4.660  11.271   6.101  0.0093 -0.2540  0.2010
  982loPI   GL214016   4.964  11.357   6.260 -0.0071 -0.2370 -0.0667
  982loPI   C1A14017   4.708  11.145   6.630  0.0456  0.0324  0.0081
  982loPI   C2A14018   4.806  11.323   7.021  0.0774 -0.2246 -0.1506
  982loPI   C3A14019   4.651  11.247   7.433  0.0640 -0.1781 -0.0176
  982loPI   C4A14020   4.834  11.126   7.853 -0.1884  0.0651 -0.3114
  982loPI   C5A14021   4.813  10.820   8.146 -0.0779 -0.5234  0.1050
  982loPI   C6A14022   4.578  10.438   8.130  0.0351 -0.0886 -0.6163
  982loPI   C1B14023   5.192  11.455   6.618  0.3020 -0.0327 -0.2291
  982loPI   C2B14024   5.345  11.647   7.001 -0.2099  0.2308 -0.1559
  982loPI   C3B14025   5.504  11.804   7.429  0.1326 -0.2418  0.2464
  982loPI   C4B14026   5.524  12.125   7.742 -0.0907 -0.1795 -0.1310
  983loPI    C114027   1.365   4.314   5.762  0.0648 -0.1392 -0.0194
  983loPI    C214028   1.380   4.591   5.474 -0.2483 -0.1470 -0.0464
  983loPI    C314029   1.490   4.214   5.395  0.0209 -0.0684 -0.0537
  983loPI   PO414030   1.359   4.456   5.931  0.1151 -0.2737 -0.2604
  983loPI   GL114031   1.215   4.477   6.300 -0.0218  0.0866 -0.0988
  983loPI   GL214032   0.917   4.671   6.374  0.0694  0.1996  0.0268
  983loPI   C1A14033   1.305   4.431   6.696 -0.2339  0.2602 -0.0495
  983loPI   C2A14034   1.151   4.566   7.057 -0.0069  0.1495 -0.3130
  983loPI   C3A14035   1.337   4.552   7.366  0.0584  0.0042  0.4574
  983loPI   C4A14036   1.303   4.502   7.785  0.2418 -0.0067 -0.3623
  983loPI   C5A14037   1.103   4.731   8.148 -0.1028 -0.2178  0.2089
  983loPI   C6A14038   0.737   4.668   8.425 -0.0434 -0.0962  0.1262
  983loPI   C1B14039   1.088   4.946   6.733 -0.0181  0.2355  0.2280
  983loPI   C2B14040   1.131   5.132   7.165  0.0325 -0.0109  0.1223
  983loPI   C3B14041   0.868   5.039   7.599  0.1896 -0.1073  0.1962
  983loPI   C4B14042   0.761   5.056   8.029  0.1244 -0.1480  0.2383
  984loPI    C114043  11.233  10.228   5.882 -0.2295  0.2392 -0.2069
  984loPI    C214044  11.482  10.463   5.674 -0.1134 -0.0752 -0.4309
  984loPI    C314045  11.436  10.079   5.572 -0.3305 -0.1439 -0.0945
  984loPI   PO414046  11.077  10.363   6.011  0.0098  0.0890 -0.0694
  984loPI   GL114047  11.083  10.191   6.399 -0.0164  0.1870  0.0104
  984loPI   GL214048  10.845  10.316   6.613 -0.0825 -0.0427  0.3068
  984loPI   C1A14049  11.337  10.128   6.764  0.1482  0.0825 -0.0699
  984loPI   C2A14050  11.436  10.210   7.152 -0.2251  0.0373 -0.2756
  984loPI   C3A14051  11.552  10.281   7.550 -0.0378 -0.2141  0.1329
  984loPI   C4A14052  11.745  10.411   7.880 -0.3229  0.1546 -0.0159
  984loPI   C5A14053  12.071  10.403   8.320  0.0763  0.0738  0.0758
  984loPI   C6A14054  12.104   9.924   8.471 -0.1486 -0.0790 -0.0244
  984loPI   C1B14055  10.760  10.258   6.987  0.3803  0.1609 -0.1789
  984loPI   C2B14056  10.924   9.888   7.242 -0.0894  0.0463  0.2127
  984loPI   C3B14057  11.094  10.071   7.611 -0.0535  0.2932  0.0263
  984loPI   C4B14058  11.220  10.242   7.911  0.0812 -0.0202  0.1990
  985loPI    C114059   9.255   8.970   5.889 -0.0309 -0.0496 -0.2265
  985loPI    C214060   9.501   9.275   5.809 -0.0316  0.0135  0.0037
  985loPI    C314061   9.548   8.925   5.620  0.0075  0.1359 -0.2169
  985loPI   PO414062   9.241   9.021   6.191 -0.2209  0.1022 -0.0239
  985loPI   GL114063   9.145   8.963   6.575  0.0052 -0.2148  0.0655
  985loPI   GL214064   8.845   8.887   6.708 -0.1299  0.0040  0.2881
  985loPI   C1A14065   9.284   8.994   6.963 -0.4099 -0.1336  0.1870
  985loPI   C2A14066   9.252   8.854   7.425 -0.0706  0.0302  0.3843
  985loPI   C3A14067   9.155   8.716   7.791  0.1274  0.2241 -0.0428
  985loPI   C4A14068   8.883   8.923   8.248 -0.0449  0.1219  0.3041
  985loPI   C5A14069   8.681   9.103   8.660 -0.2395  0.1978  0.3113
  985loPI   C6A14070   8.768   9.408   9.013 -0.0549 -0.4623  0.0263
  985loPI   C1B14071   8.934   8.702   7.117 -0.0298 -0.2135  0.1223
  985loPI   C2B14072   8.898   8.421   7.396  0.1877 -0.0389 -0.3006
  985loPI   C3B14073   8.694   8.461   7.809  0.0343  0.1056 -0.0922
  985loPI   C4B14074   8.487   8.181   8.146  0.0931 -0.6170  0.0418
  986loPI    C114075   9.766  12.424   6.238 -0.0333 -0.0622 -0.1530
  986loPI    C214076  10.099  12.249   6.100  0.0029 -0.1707  0.0685
  986loPI    C314077   9.951  12.146   6.457 -0.2050 -0.0400  0.0222
  986loPI   PO414078   9.891  12.695   6.222 -0.3203  0.0073 -0.1253
  986loPI   GL114079   9.935  12.886   6.570  0.0595 -0.0423 -0.0869
  986loPI   GL214080  10.171  13.038   6.655  0.2206  0.1346 -0.1727
  986loPI   C1A14081   9.735  13.177   6.836  0.2799 -0.2807 -0.0642
  986loPI   C2A14082   9.712  13.195   7.240  0.0537 -0.1744  0.1422
  986loPI   C3A14083   9.613  12.987   7.646  0.0539  0.1731 -0.2815
  986loPI   C4A14084   9.530  12.794   8.065 -0.0239 -0.0675  0.2478
  986loPI   C5A14085   9.706  12.552   8.270 -0.1276  0.0197 -0.0535
  986loPI   C6A14086   9.844  12.281   8.639 -0.2632  0.0192  0.0534
  986loPI   C1B14087  10.122  12.925   7.098 -0.1235  0.0918  0.1257
  986loPI   C2B14088  10.189  12.973   7.510  0.1200  0.0194  0.0513
  986loPI   C3B14089   9.926  13.342   7.710  0.0345 -0.0138 -0.3165
  986loPI   C4B14090   9.676  13.278   8.044 -0.4408 -0.0036 -0.1454
  987loPI    C114091  16.715  12.449   5.360  0.2345  0.1986 -0.0302
  987loPI    C214092  17.011  12.180   5.366  0.1402  0.0952  0.0213
  987loPI    C314093  16.767  12.201   5.050  0.1662  0.1411  0.0041
  987loPI   PO414094  16.546  12.406   5.543  0.0350 -0.0929  0.0798
  987loPI   GL114095  16.600  12.607   5.903 -0.0426  0.0296  0.0270
  987loPI   GL214096  16.930  12.384   5.880 -0.2320 -0.0899  0.0740
  987loPI   C1A14097  16.493  12.377   6.234 -0.2949 -0.2373 -0.1063
  987loPI   C2A14098  16.657  12.217   6.756 -0.0580  0.0423 -0.1182
  987loPI   C3A14099  16.887  11.997   7.000 -0.1887  0.0963  0.0441
  987loPI   C4A14100  16.922  12.014   7.408  0.1014 -0.0314  0.0185
  987loPI   C5A14101  16.900  12.411   7.695 -0.2244 -0.4531 -0.2255
  987loPI   C6A14102  17.210  12.721   7.749  0.1271  0.1306  0.0606
  987loPI   C1B14103  17.015  12.502   6.329 -0.0460  0.1542  0.0303
  987loPI   C2B14104  17.092  12.405   6.703 -0.0492  0.3222 -0.2013
  987loPI   C3B14105  17.225  12.373   7.153 -0.2121 -0.0659 -0.3483
  987loPI   C4B14106  17.488  12.302   7.632  0.1153  0.0839 -0.1527
  988loPI    C114107  11.657   8.511   5.726  0.2662  0.0403  0.0284
  988loPI    C214108  11.344   8.758   5.683  0.2077 -0.0441 -0.0360
  988loPI    C314109  11.309   8.372   5.585  0.2721 -0.0980  0.1486
  988loPI   PO414110  11.784   8.562   5.924 -0.0669 -0.0454  0.2044
  988loPI   GL114111  12.018   8.626   6.209 -0.1145  0.0590  0.1678
  988loPI   GL214112  12.100   8.970   6.379  0.2556  0.1253  0.0079
  988loPI   C1A14113  12.082   8.386   6.559  0.1156 -0.0898  0.3948
  988loPI   C2A14114  11.915   8.282   6.934  0.1085 -0.0143 -0.0964
  988loPI   C3A14115  11.540   8.108   7.312  0.1935  0.0906 -0.2896
  988loPI   C4A14116  11.240   8.336   7.728 -0.0798 -0.1677  0.1228
  988loPI   C5A14117  11.108   8.421   8.144 -0.0437  0.1359  0.1788
  988loPI   C6A14118  11.025   8.307   8.604 -0.0165 -0.2224 -0.3373
  988loPI   C1B14119  12.075   8.933   6.806 -0.1222 -0.0626 -0.0642
  988loPI   C2B14120  12.104   8.900   7.302  0.0409 -0.0028  0.1527
  988loPI   C3B14121  12.043   8.859   7.720  0.1271 -0.2211 -0.2404
  988loPI   C4B14122  11.787   9.080   8.085 -0.1973 -0.0671  0.0281
  989loPI    C114123  17.288  11.799   5.259  0.2398 -0.3466  0.0833
  989loPI    C214124  17.269  11.615   4.905  0.0172 -0.3868  0.1147
  989loPI    C314125  16.933  11.710   5.099  0.1312 -0.0624  0.1599
  989loPI   PO414126  17.499  11.578   5.429  0.1252 -0.1522 -0.0620
  989loPI   GL114127  17.425  11.536   5.846  0.0855 -0.2422 -0.0235
  989loPI   GL214128  17.607  11.695   5.934 -0.2417  0.0092  0.1050
  989loPI   C1A14129  17.295  11.438   6.226  0.0311  0.4133  0.2634
  989loPI   C2A14130  17.400  11.363   6.670  0.0264  0.1774  0.2148
  989loPI   C3A14131  17.468  11.311   7.087  0.1281  0.0480  0.0422
  989loPI   C4A14132  17.583  11.413   7.467 -0.2738  0.1017  0.0394
  989loPI   C5A14133  17.469  11.736   7.717 -0.0105 -0.0720 -0.2502
  989loPI   C6A14134  17.092  11.875   7.875 -0.0939  0.0325  0.1238
  989loPI   C1B14135  17.767  11.733   6.379  0.0490 -0.1833 -0.0335
  989loPI   C2B14136  17.803  11.708   6.846 -0.1161 -0.0998 -0.1560
  989loPI   C3B14137  17.885  11.823   7.199 -0.2532  0.0221 -0.1338
  989loPI   C4B14138  17.782  12.238   7.204  0.0275 -0.0701 -0.1223
  990loPI    C114139  11.431  13.506   5.643 -0.0400  0.1978  0.2887
  990loPI    C214140  11.577  13.293   5.337 -0.0737 -0.0693  0.4564
  990loPI    C314141  11.182  13.307   5.401 -0.0541 -0.1871  0.6103
  990loPI   PO414142  11.522  13.450   5.933 -0.3465  0.0613  0.1350
  990loPI   GL114143  11.449  13.707   6.333 -0.0070 -0.1538  0.0876
  990loPI   GL214144  11.233  13.432   6.412  0.1208 -0.0798 -0.2433
  990loPI   C1A14145  11.587  14.006   6.595 -0.0684 -0.2584 -0.0752
  990loPI   C2A14146  11.777  14.211   6.986  0.0136  0.0561  0.0579
  990loPI   C3A14147  11.788  14.177   7.476 -0.0438  0.2224  0.0218
  990loPI   C4A14148  11.853  14.329   7.845  0.1490  0.2251  0.1275
  990loPI   C5A14149  11.700  14.646   8.053  0.1343  0.2536 -0.0544
  990loPI   C6A14150  11.709  15.022   8.225  0.6122 -0.2022  0.0280
  990loPI   C1B14151  11.150  13.400   6.921  0.1060  0.0296 -0.1523
  990loPI   C2B14152  11.249  13.466   7.349  0.0032 -0.2697 -0.1248
  990loPI   C3B14153  11.480  13.432   7.725 -0.1779 -0.0918 -0.0416
  990loPI   C4B14154  11.219  13.474   8.136 -0.1741  0.0108  0.2368
  991loPI    C114155   0.927   6.439   5.779 -0.0671 -0.1426 -0.2212
  991loPI    C214156   1.199   6.727   5.725 -0.0310 -0.1266  0.0368
  991loPI    C314157   0.969   6.610   5.420 -0.0420  0.1714 -0.0718
  991loPI   PO414158   1.170   6.294   5.950  0.3345 -0.0125 -0.1086
  991loPI   GL114159   1.163   6.186   6.378 -0.0066 -0.0313 -0.0184
  991loPI   GL214160   1.532   6.022   6.335 -0.3227 -0.1981  0.3794
  991loPI   C1A14161   0.940   5.968   6.699  0.0714 -0.3219  0.3177
  991loPI   C2A14162   0.920   5.887   7.127  0.1848  0.1052  0.2041
  991loPI   C3A14163   0.962   5.815   7.641 -0.2265  0.1197 -0.0953
  991loPI   C4A14164   1.089   5.759   8.046 -0.1096  0.1203 -0.2499
  991loPI   C5A14165   1.307   5.590   8.424  0.1256 -0.6434 -0.0046
  991loPI   C6A14166   1.548   5.234   8.504 -0.1930  0.3735  0.2403
  991loPI   C1B14167   1.552   5.782   6.628  0.1988  0.0072 -0.0770
  991loPI   C2B14168   1.564   5.446   6.907  0.0400 -0.0923  0.0590
  991loPI   C3B14169   1.608   5.148   7.223 -0.0450 -0.3846 -0.0564
  991loPI   C4B14170   1.491   4.938   7.604 -0.0608  0.1628 -0.1256
  992loPI    C114171  15.401   0.706   5.360 -0.1183 -0.0020 -0.0648
  992loPI    C214172  15.276   0.363   5.196 -0.0453 -0.1109  0.1045
  992loPI    C314173  15.560   0.579   5.016 -0.2081 -0.0544 -0.0875
  992loPI   PO414174  15.393   0.651   5.652  0.0455  0.0476 -0.3381
  992loPI   GL114175  15.217   0.639   6.081 -0.3109 -0.0447  0.0748
  992loPI   GL214176  14.951   0.531   5.979 -0.0909  0.1971  0.1324
  992loPI   C1A14177  15.210   0.568   6.572 -0.2060  0.1592  0.3141
  992loPI   C2A14178  15.283   0.506   7.026  0.1762 -0.1107  0.3495
  992loPI   C3A14179  15.273   0.413   7.441 -0.0215 -0.2434  0.1914
  992loPI   C4A14180  15.180   0.219   7.822 -0.2115 -0.0199  0.0714
  992loPI   C5A14181  14.880  -0.047   8.136 -0.3969  0.0501  0.0030
  992loPI   C6A14182  14.719  -0.540   8.307 -0.1765  0.0752 -0.2113
  992loPI   C1B14183  14.702   0.528   6.350  0.1044 -0.2603 -0.1440
  992loPI   C2B14184  14.546   0.556   6.807  0.1625 -0.1930 -0.3558
  992loPI   C3B14185  14.714   0.534   7.168 -0.5145 -0.0848  0.1865
  992loPI   C4B14186  14.798   0.478   7.592  0.1977  0.2791  0.1115
  993loPI    C114187  10.208   4.012   6.171 -0.1616  0.0598 -0.0802
  993loPI    C214188   9.982   3.752   5.967 -0.2385 -0.0337  0.1215
  993loPI    C314189  10.304   3.916   5.794 -0.2281 -0.2106 -0.0302
  993loPI   PO414190  10.264   3.933   6.441 -0.0677  0.1827  0.2197
  993loPI   GL114191  10.422   3.937   6.814  0.0133  0.1480  0.2392
  993loPI   GL214192  10.810   3.901   6.821 -0.3114 -0.1348  0.0963
  993loPI   C1A14193  10.540   3.994   7.251 -0.0817  0.0358 -0.0654
  993loPI   C2A14194  10.579   3.842   7.607  0.0576  0.0789  0.0072
  993loPI   C3A14195  10.797   3.503   7.852 -0.2183 -0.0489 -0.0195
  993loPI   C4A14196  10.901   3.181   8.203  0.0006 -0.1753  0.0425
  993loPI   C5A14197  11.072   2.847   8.261 -0.0202 -0.3408 -0.0433
  993loPI   C6A14198  11.167   2.562   7.917  0.0882  0.6124 -0.1759
  993loPI   C1B14199  10.948   4.292   7.009 -0.1669 -0.0847 -0.0262
  993loPI   C2B14200  11.107   4.419   7.375 -0.0735  0.0955  0.0792
  993loPI   C3B14201  11.317   4.513   7.762 -0.0047  0.2326  0.0506
  993loPI   C4B14202  11.349   4.541   8.257  0.0088 -0.2665 -0.0037
  994loPI    C114203   7.744   3.988   5.650  0.2008  0.0052 -0.1245
  994loPI    C214204   7.791   4.205   5.317 -0.1612  0.0350 -0.1603
  994loPI    C314205   7.741   3.808   5.293 -0.2839  0.0494 -0.1500
  994loPI   PO414206   7.975   4.035   5.773 -0.0400 -0.1435 -0.4247
  994loPI   GL114207   8.008   4.016   6.259 -0.3089 -0.0491  0.1463
  994loPI   GL214208   7.842   4.062   6.563  0.2654  0.3597  0.2549
  994loPI   C1A14209   8.344   4.175   6.593  0.1615 -0.2268 -0.2343
  994loPI   C2A14210   8.469   4.144   7.038 -0.2053  0.3791 -0.0399
  994loPI   C3A14211   8.451   4.305   7.415 -0.3060  0.1890 -0.1037
  994loPI   C4A14212   8.653   4.097   7.873  0.2204 -0.2073  0.1184
  994loPI   C5A14213   9.018   4.007   8.091 -0.0312 -0.0170  0.2382
  994loPI   C6A14214   9.134   3.909   8.509 -0.3037  0.2074  0.0625
  994loPI   C1B14215   7.912   4.120   6.957  0.3304 -0.0350 -0.0568
  994loPI   C2B14216   7.798   4.082   7.429 -0.1045 -0.3590  0.0544
  994loPI   C3B14217   7.841   4.252   7.854  0.2852 -0.2613 -0.1597
  994loPI   C4B14218   7.463   4.532   8.136 -0.3042 -0.1324 -0.0309
  995loPI    C114219  15.814  10.353   5.393 -0.0790  0.0591 -0.0077
  995loPI    C214220  15.466  10.194   5.275 -0.0508  0.0202 -0.0390
  995loPI    C314221  15.811  10.020   5.171 -0.0257 -0.0247  0.1158
  995loPI   PO414222  15.808  10.366   5.641 -0.0316 -0.0685 -0.0668
  995loPI   GL114223  15.677  10.544   6.063  0.1473 -0.0511 -0.4390
  995loPI   GL214224  15.832  10.884   6.101  0.2415 -0.1966  0.1523
  995loPI   C1A14225  15.624  10.528   6.442 -0.0804 -0.2579  0.0710
  995loPI   C2A14226  15.678  10.524   6.874  0.0909  0.0361  0.1644
  995loPI   C3A14227  15.649  10.365   7.194  0.0785  0.0581 -0.3152
  995loPI   C4A14228  15.641  10.288   7.618 -0.0784 -0.2697  0.0361
  995loPI   C5A14229  15.960  10.028   7.834 -0.1309 -0.0389 -0.1503
  995loPI   C6A14230  16.000   9.903   8.206  0.0796  0.4511 -0.0545
  995loPI   C1B14231  16.082  11.246   6.436 -0.1233 -0.2242 -0.1349
  995loPI   C2B14232  16.016  11.491   6.871 -0.2784  0.0701  0.1302
  995loPI   C3B14233  16.174  11.420   7.333  0.0883 -0.0856 -0.1884
  995loPI   C4B14234  16.374  11.326   7.831 -0.0639  0.0201  0.4844
  996loPI    C114235  10.608   7.115   5.896 -0.0770  0.0193 -0.0285
  996loPI    C214236  10.453   7.448   6.057 -0.0813 -0.0095  0.0271
  996loPI    C314237  10.408   7.375   5.666 -0.3064 -0.0732  0.0639
  996loPI   PO414238  10.500   6.957   5.978 -0.0091  0.0828 -0.1496
  996loPI   GL114239  10.387   6.780   6.344 -0.2090 -0.1024  0.1726
  996loPI   GL214240  10.410   7.108   6.488  0.1019  0.0330  0.0393
  996loPI   C1A14241  10.451   6.430   6.528  0.3223 -0.1658 -0.0281
  996loPI   C2A14242  10.272   6.231   6.812 -0.2683  0.3766  0.2029
  996loPI   C3A14243  10.247   6.063   7.163  0.0970 -0.1153  0.0527
  996loPI   C4A14244  10.305   6.128   7.646 -0.1370 -0.1618 -0.0406
  996loPI   C5A14245  10.465   6.077   8.065  0.4296  0.0124 -0.2841
  996loPI   C6A14246  10.656   5.839   8.431  0.1648 -0.2952 -0.1211
  996loPI   C1B14247  10.543   7.284   6.882 -0.0813 -0.2104 -0.0011
  996loPI   C2B14248  10.695   7.136   7.267 -0.1085 -0.3438 -0.1335
  996loPI   C3B14249  10.516   7.071   7.575  0.1516 -0.1046 -0.0854
  996loPI   C4B14250  10.415   6.924   8.069  0.0081 -0.1254  0.1194
  997loPI    C114251  13.103   1.108   5.380 -0.0125 -0.0836  0.1383
  997loPI    C214252  13.052   0.851   5.078  0.1704  0.0311  0.0079
  997loPI    C314253  13.380   1.079   5.093  0.0926  0.1314  0.2163
  997loPI   PO414254  12.995   1.002   5.572  0.2831 -0.1676 -0.0247
  997loPI   GL114255  13.037   0.619   5.798  0.3314  0.2216  0.1144
  997loPI   GL214256  13.406   0.520   5.847  0.0517  0.0144 -0.1125
  997loPI   C1A14257  13.067   0.423   6.148  0.0585 -0.2055 -0.0889
  997loPI   C2A14258  13.167   0.127   6.542  0.0216  0.2759 -0.1775
  997loPI   C3A14259  13.089   0.067   6.998 -0.1055  0.0616 -0.2425
  997loPI   C4A14260  13.428   0.153   7.331  0.2211 -0.2291  0.0233
  997loPI   C5A14261  13.671   0.210   7.636  0.1238  0.0157 -0.1521
  997loPI   C6A14262  14.064   0.001   7.865 -0.1014  0.0277  0.0085
  997loPI   C1B14263  13.532   0.422   6.244  0.1650 -0.1430 -0.0807
  997loPI   C2B14264  13.652   0.426   6.518 -0.2008  0.0652 -0.1686
  997loPI   C3B14265  13.593   0.291   6.863 -0.0832  0.0051  0.2501
  997loPI   C4B14266  13.782   0.544   7.228  0.1211 -0.0389  0.0902
  998loPI    C114267   2.079  17.842   5.986 -0.0696 -0.0376 -0.0854
  998loPI    C214268   1.803  18.054   5.788 -0.0788 -0.0069 -0.0399
  998loPI    C314269   2.192  18.128   5.731 -0.0849  0.1348  0.0992
  998loPI   PO414270   1.853  17.822   6.265  0.1169 -0.0675  0.1452
  998loPI   GL114271   1.556  17.728   6.629  0.0794 -0.0015  0.1488
  998loPI   GL214272   1.453  17.493   6.544 -0.2122  0.0278 -0.1614
  998loPI   C1A14273   1.657  17.695   6.995  0.2893 -0.1795 -0.1169
  998loPI   C2A14274   1.698  17.648   7.512 -0.2804  0.0226  0.1172
  998loPI   C3A14275   1.585  17.683   7.850  0.0383  0.1387 -0.1594
  998loPI   C4A14276   1.203  17.901   8.153 -0.0719 -0.1624  0.0626
  998loPI   C5A14277   0.806  17.836   8.157 -0.1138 -0.1055 -0.0570
  998loPI   C6A14278   0.275  17.835   8.239 -0.0919  0.2552 -0.1162
  998loPI   C1B14279   1.055  17.423   6.714 -0.1689 -0.1202  0.0128
  998loPI   C2B14280   0.768  17.329   6.999 -0.1239 -0.2542  0.0381
  998loPI   C3B14281   0.719  17.465   7.278 -0.1778  0.2288  0.1531
  998loPI   C4B14282   0.727  17.400   7.766  0.1876 -0.2126  0.1085
  999loPI    C114283   1.170   7.251   5.770  0.1298  0.3271  0.0791
  999loPI    C214284   0.865   7.061   5.593  0.2754  0.1306  0.0369
  999loPI    C314285   1.068   7.342   5.394  0.3328  0.0268 -0.0524
  999loPI   PO414286   1.067   7.322   6.026 -0.0445 -0.0336 -0.1748
  999loPI   GL114287   1.325   7.304   6.426 -0.3857  0.0209 -0.1124
  999loPI   GL214288   1.043   7.477   6.486  0.2020  0.0139  0.0169
  999loPI   C1A14289   1.501   7.015   6.765  0.4909 -0.2711  0.0865
  999loPI   C2A14290   1.382   6.855   7.154 -0.0509  0.2022  0.1626
  999loPI   C3A14291   1.197   6.643   7.532 -0.4348  0.0678 -0.0182
  999loPI   C4A14292   1.228   6.409   7.902 -0.1096  0.1351  0.1239
  999loPI   C5A14293   1.405   6.419   8.289  0.0728 -0.2248 -0.2742
  999loPI   C6A14294   1.406   6.576   8.651  0.2134  0.3101 -0.2836
  999loPI   C1B14295   0.659   7.737   6.644 -0.0260 -0.1995 -0.0311
  999loPI   C2B14296   0.534   7.719   6.994 -0.0031  0.2083 -0.0910
  999loPI   C3B14297   0.256   7.775   7.207 -0.1268  0.3026  0.1924
  999loPI   C4B14298  -0.068   7.570   7.433 -0.0485 -0.0092  0.1120
 1000loPI    C114299   9.061  15.433   6.080  0.1604  0.1334  0.0424
 1000loPI    C214300   8.959  15.366   5.699  0.0656 -0.1226  0.1108
 1000loPI    C314301   9.296  15.564   5.784  0.0049  0.0786 -0.1068
 1000loPI   PO414302   8.840  15.468   6.172 -0.0461  0.0321  0.1220
 1000loPI   GL114303   8.776  15.750   6.449 -0.3745 -0.0515 -0.1827
 1000loPI   GL214304   9.088  15.820   6.608  0.1845  0.0744 -0.1276
 1000loPI   C1A14305   8.722  15.900   6.877 -0.2985  0.1185 -0.1530
 1000loPI   C2A14306   8.484  16.005   7.215 -0.1695 -0.1928  0.0328
 1000loPI   C3A14307   8.355  16.123   7.633 -0.1503  0.2246 -0.0022
 1000loPI   C4A14308   8.283  16.296   8.019 -0.1186 -0.1243  0.1436
 1000loPI   C5A14309   8.015  16.416   8.350 -0.1046 -0.0970 -0.1598
 1000loPI   C6A14310   7.671  16.586   8.444 -0.2061  0.1272 -0.2776
 1000loPI   C1B14311   8.951  15.426   6.915 -0.0382  0.2175 -0.0351
 1000loPI   C2B14312   8.772  15.255   7.361  0.2189  0.2058 -0.0176
 1000loPI   C3B14313   8.782  15.346   7.828 -0.0122 -0.0030 -0.2188
 1000loPI   C4B14314   9.031  15.471   8.194  0.0149 -0.0497  0.0206
 1001loPI    C114315   9.239   2.487   5.929 -0.0530  0.0666 -0.0500
 1001loPI    C214316   8.963   2.665   5.701 -0.0844  0.0626 -0.0151
 1001loPI    C314317   9.347   2.670   5.590 -0.1204 -0.0776 -0.1501
 1001loPI   PO414318   9.027   2.468   6.207 -0.1470  0.0583  0.0827
 1001loPI   GL114319   8.911   2.494   6.479 -0.3643 -0.1766 -0.2333
 1001loPI   GL214320   8.876   2.041   6.492  0.0963 -0.1218 -0.1712
 1001loPI   C1A14321   8.688   2.672   6.880 -0.4255  0.1487 -0.1336
 1001loPI   C2A14322   8.795   2.834   7.319 -0.1345 -0.0321  0.2461
 1001loPI   C3A14323   8.903   3.036   7.707 -0.0687 -0.0559  0.1158
 1001loPI   C4A14324   8.821   3.188   8.127  0.1415  0.0771 -0.0237
 1001loPI   C5A14325   9.047   3.425   8.245 -0.1735 -0.2139  0.5233
 1001loPI   C6A14326   9.530   3.312   8.351 -0.2616 -0.1779  0.2440
 1001loPI   C1B14327   8.886   2.147   6.870  0.3861  0.0500 -0.1202
 1001loPI   C2B14328   8.646   2.218   7.210  0.1926  0.1426  0.1148
 1001loPI   C3B14329   8.475   2.017   7.501 -0.0836 -0.3859  0.0184
 1001loPI   C4B14330   8.192   1.970   7.914 -0.1123  0.3583 -0.3680
 1002loPI    C114331  14.247   9.683   5.655  0.1190 -0.1801  0.0402
 1002loPI    C214332  14.171   9.375   5.411  0.0889 -0.2507  0.1377
 1002loPI    C314333  14.305   9.722   5.261 -0.2777 -0.1738 -0.0218
 1002loPI   PO414334  13.999   9.719   5.838 -0.2806 -0.3471 -0.0213
 1002loPI   GL114335  13.956   9.848   6.214 -0.4435  0.0042  0.0642
 1002loPI   GL214336  13.793   9.812   6.377 -0.0431 -0.0900  0.1682
 1002loPI   C1A14337  14.005  10.317   6.376 -0.0808 -0.1566 -0.0921
 1002loPI   C2A14338  14.162  10.429   6.759 -0.1412  0.0375 -0.0071
 1002loPI   C3A14339  14.212  10.333   7.235 -0.0052 -0.1347 -0.2657
 1002loPI   C4A14340  13.895   9.976   7.415  0.1264 -0.2005  0.0034
 1002loPI   C5A14341  13.504   9.692   7.517  0.0020 -0.0854 -0.3315
 1002loPI   C6A14342  13.255   9.692   7.828 -0.1782 -0.0124 -0.0087
 1002loPI   C1B14343  13.828   9.920   6.834 -0.4363  0.0944  0.1532
 1002loPI   C2B14344  13.522  10.021   7.135  0.0095 -0.1190  0.2823
 1002loPI   C3B14345  13.305  10.196   7.523  0.0684  0.0110  0.0482
 1002loPI   C4B14346  12.968  10.419   7.709  0.0572 -0.0340 -0.3145
 1003loPI    C114347   0.641   8.489   5.519 -0.1715 -0.0273 -0.0076
 1003loPI    C214348   0.921   8.758   5.424  0.0019 -0.2760 -0.2122
 1003loPI    C314349   0.540   8.872   5.465  0.0932  0.0219 -0.1699
 1003loPI   PO414350   0.803   8.354   5.778  0.0679  0.2231 -0.2834
 1003loPI   GL114351   0.770   8.474   6.245  0.3211  0.0907  0.1271
 1003loPI   GL214352   0.798   8.719   6.306 -0.3328 -0.1451 -0.0671
 1003loPI   C1A14353   0.682   8.286   6.582 -0.0589  0.0407  0.2274
 1003loPI   C2A14354   0.830   8.337   7.015 -0.1193 -0.1933 -0.1590
 1003loPI   C3A14355   1.036   8.380   7.341 -0.0744  0.1569 -0.0142
 1003loPI   C4A14356   0.975   8.257   7.717  0.0866  0.1621 -0.4935
 1003loPI   C5A14357   0.751   7.963   8.029  0.1125  0.1705  0.2524
 1003loPI   C6A14358   0.726   7.681   8.509  0.0584 -0.2000 -0.3067
 1003loPI   C1B14359   0.392   8.777   6.404 -0.2074  0.2877  0.0671
 1003loPI   C2B14360  -0.034   8.763   6.292 -0.4066  0.2503  0.3682
 1003loPI   C3B14361  -0.194   8.540   6.703  0.3095 -0.3531  0.1114
 1003loPI   C4B14362  -0.211   8.472   7.132 -0.0354 -0.0975 -0.2541
 1004loPI    C114363  15.282  12.207   5.451 -0.1082  0.1197  0.1078
 1004loPI    C214364  15.366  12.449   5.143  0.0615 -0.0258  0.0376
 1004loPI    C314365  15.185  12.098   5.079 -0.0413  0.0109  0.1218
 1004loPI   PO414366  15.495  12.240   5.603 -0.0416  0.0063  0.2826
 1004loPI   GL114367  15.697  12.550   5.776 -0.0323  0.2067  0.0168
 1004loPI   GL214368  15.997  12.439   5.848 -0.0970 -0.0950  0.2783
 1004loPI   C1A14369  15.579  12.539   6.182 -0.0898 -0.0290 -0.0048
 1004loPI   C2A14370  15.678  12.495   6.626 -0.2062  0.0923 -0.2337
 1004loPI   C3A14371  15.764  12.458   7.076  0.1000  0.3148  0.1615
 1004loPI   C4A14372  15.905  12.459   7.448 -0.2012  0.0689 -0.0236
 1004loPI   C5A14373  15.996  12.272   7.955  0.2627 -0.0912 -0.2387
 1004loPI   C6A14374  16.134  12.334   8.385 -0.0620  0.0778 -0.2134
 1004loPI   C1B14375  16.061  12.647   6.175 -0.2286  0.1765 -0.0505
 1004loPI   C2B14376  16.226  12.757   6.589 -0.1823 -0.0522  0.0666
 1004loPI   C3B14377  16.162  12.766   7.062  0.0533  0.2646  0.0980
 1004loPI   C4B14378  16.152  12.881   7.491 -0.0691  0.0037 -0.5153
 1005loPI    C114379   1.190   9.621   6.100  0.0269 -0.1723  0.0447
 1005loPI    C214380   1.221   9.829   5.759 -0.3462  0.0057  0.1136
 1005loPI    C314381   1.243   9.430   5.752  0.1982  0.0297 -0.0426
 1005loPI   PO414382   0.974   9.736   6.159 -0.0024  0.1633  0.4252
 1005loPI   GL114383   0.954  10.086   6.420  0.3622  0.0216 -0.1389
 1005loPI   GL214384   1.079  10.409   6.418  0.0377  0.2040  0.0644
 1005loPI   C1A14385   0.626   9.984   6.744  0.0178  0.1030  0.0225
 1005loPI   C2A14386   0.615   9.697   7.054  0.3034  0.1194  0.0835
 1005loPI   C3A14387   0.312   9.722   7.483 -0.1857 -0.0957  0.0751
 1005loPI   C4A14388   0.114   9.793   7.864  0.1120 -0.0155  0.1042
 1005loPI   C5A14389  -0.330   9.736   8.131 -0.0936 -0.1573  0.1956
 1005loPI   C6A14390  -0.626   9.810   8.535 -0.1671  0.0694  0.1483
 1005loPI   C1B14391   1.228  10.153   6.832  0.2014  0.1145 -0.1715
 1005loPI   C2B14392   0.928  10.033   7.155  0.0619 -0.3538  0.0128
 1005loPI   C3B14393   0.780   9.899   7.533  0.0747 -0.0154  0.0221
 1005loPI   C4B14394   0.574   9.818   7.926 -0.0461  0.0175  0.0424
 1006loPI    C114395   9.309  16.719   6.215  0.0798  0.0246  0.0955
 1006loPI    C214396   9.448  16.728   5.840 -0.2292  0.2248 -0.0192
 1006loPI    C314397   9.641  16.926   6.129  0.0953 -0.0539 -0.0372
 1006loPI   PO414398   9.361  16.403   6.413  0.0484 -0.0154 -0.1995
 1006loPI   GL114399   9.450  16.240   6.815  0.0260 -0.1302 -0.2140
 1006loPI   GL214400   9.648  16.467   6.923  0.0092  0.1503 -0.1506
 1006loPI   C1A14401   9.257  16.016   7.130  0.0492 -0.0332  0.0073
 1006loPI   C2A14402   8.959  15.745   7.323  0.2446  0.1197  0.1256
 1006loPI   C3A14403   8.754  15.822   7.587  0.1977  0.1804 -0.0101
 1006loPI   C4A14404   8.649  15.818   8.034 -0.2886  0.1766 -0.2740
 1006loPI   C5A14405   8.393  15.916   8.398  0.3028 -0.2569 -0.1567
 1006loPI   C6A14406   8.437  16.078   8.674 -0.0738 -0.2147 -0.4309
 1006loPI   C1B14407   9.455  16.461   7.332 -0.2161 -0.2472  0.0985
 1006loPI   C2B14408   9.315  16.198   7.742  0.1503  0.1900  0.1958
 1006loPI   C3B14409   9.195  16.021   8.164 -0.3270 -0.0778 -0.0379
 1006loPI   C4B14410   8.919  15.878   8.506 -0.0952  0.3482  0.0465
 1007loPI    C114411  15.734  16.334   4.992 -0.0506 -0.1044 -0.0238
 1007loPI    C214412  15.346  16.378   5.078  0.0137  0.1468  0.1490
 1007loPI    C314413  15.493  16.520   4.734 -0.0895 -0.1530 -0.0226
 1007loPI   PO414414  15.867  16.379   5.203  0.0337  0.1144 -0.1174
 1007loPI   GL114415  15.876  16.412   5.678 -0.0825 -0.1875  0.3080
 1007loPI   GL214416  16.222  16.290   5.697 -0.3156  0.1466 -0.0348
 1007loPI   C1A14417  15.880  16.129   5.970  0.0375  0.0979  0.2283
 1007loPI   C2A14418  16.010  15.789   6.251 -0.0011  0.0515 -0.0668
 1007loPI   C3A14419  16.095  15.751   6.543 -0.0030 -0.0544 -0.3198
 1007loPI   C4A14420  16.298  15.597   6.890  0.0742  0.0273  0.1635
 1007loPI   C5A14421  16.506  15.509   7.289 -0.2066  0.0637 -0.0071
 1007loPI   C6A14422  16.563  15.517   7.739 -0.2429 -0.2421  0.0554
 1007loPI   C1B14423  16.477  16.247   6.070  0.0562 -0.2410 -0.0329
 1007loPI   C2B14424  16.398  16.163   6.544  0.2454  0.0444  0.1660
 1007loPI   C3B14425  16.267  16.109   6.931 -0.0563 -0.1186  0.1478
 1007loPI   C4B14426  15.842  16.221   7.076  0.1612 -0.3078  0.3280
 1008loPI    C114427  12.058   9.610   5.876  0.0013 -0.2352  0.1230
 1008loPI    C214428  11.806   9.661   5.570  0.1049 -0.0052  0.0734
 1008loPI    C314429  12.154   9.857   5.576  0.0409  0.1042  0.4086
 1008loPI   PO414430  11.888   9.550   6.090  0.2902  0.1971 -0.0093
 1008loPI   GL114431  11.860   9.485   6.523 -0.1550  0.3488  0.0245
 1008loPI   GL214432  11.722   9.241   6.619 -0.1516  0.1543  0.1526
 1008loPI   C1A14433  12.090   9.550   6.910  0.2437 -0.0216 -0.6587
 1008loPI   C2A14434  12.173   9.489   7.334  0.1110 -0.0535 -0.0944
 1008loPI   C3A14435  12.493   9.632   7.652 -0.1159 -0.1292  0.2162
 1008loPI   C4A14436  12.719   9.465   8.034  0.0603  0.0462 -0.0887
 1008loPI   C5A14437  12.967   9.572   8.305 -0.0582 -0.4850  0.0126
 1008loPI   C6A14438  13.393   9.633   8.488  0.0893 -0.1836  0.0033
 1008loPI   C1B14439  11.751   9.193   7.090  0.0102 -0.2523  0.0115
 1008loPI   C2B14440  11.797   9.250   7.486 -0.0518 -0.0514  0.1595
 1008loPI   C3B14441  11.883   9.513   7.771  0.1061 -0.0941 -0.0166
 1008loPI   C4B14442  12.255   9.611   8.138  0.1311  0.0222  0.0629
 1009loPI    C114443  17.134  17.422   5.167  0.2092  0.1462 -0.0176
 1009loPI    C214444  17.364  17.376   4.843  0.0841 -0.1358 -0.0692
 1009loPI    C314445  16.970  17.314   4.819  0.0316  0.1306  0.0700
 1009loPI   PO414446  17.361  17.673   5.259 -0.3743 -0.2204  0.0908
 1009loPI   GL114447  17.264  17.950   5.694  0.1742 -0.1500 -0.1506
 1009loPI   GL214448  17.472  18.115   5.957 -0.0005 -0.1303  0.0190
 1009loPI   C1A14449  17.272  17.695   6.132 -0.1725 -0.1282  0.3311
 1009loPI   C2A14450  17.253  17.441   6.480  0.0886  0.2398  0.2062
 1009loPI   C3A14451  17.238  17.347   6.930 -0.1151  0.0892 -0.2599
 1009loPI   C4A14452  17.191  17.278   7.316 -0.0733 -0.0386 -0.2385
 1009loPI   C5A14453  17.073  17.568   7.660 -0.3637  0.0311 -0.0372
 1009loPI   C6A14454  16.621  17.740   7.748  0.0711  0.0018  0.2852
 1009loPI   C1B14455  17.728  18.281   6.261 -0.0960  0.1890  0.1355
 1009loPI   C2B14456  17.991  18.135   6.617 -0.0475  0.1801 -0.3122
 1009loPI   C3B14457  17.877  18.038   7.025 -0.1276 -0.0482 -0.0871
 1009loPI   C4B14458  17.859  18.013   7.487  0.2528  0.0366 -0.0249
 1010loPI    C114459   7.568   7.176   5.628 -0.0294 -0.3157  0.0209
 1010loPI    C214460   7.341   7.350   5.348 -0.0076 -0.1774  0.0882
 1010loPI    C314461   7.431   6.961   5.320 -0.1532 -0.2051 -0.0021
 1010loPI   PO414462   7.472   7.277   5.854  0.1976 -0.2952 -0.2015
 1010loPI   GL114463   7.300   7.412   6.171 -0.0438  0.2039 -0.0725
 1010loPI   GL214464   7.564   7.397   6.380  0.5068  0.1530 -0.0230
 1010loPI   C1A14465   7.022   7.479   6.512 -0.3661 -0.2762 -0.0852
 1010loPI   C2A14466   7.041   7.504   7.023  0.0604  0.0050  0.2814
 1010loPI   C3A14467   7.012   7.443   7.475  0.0435  0.1310  0.1782
 1010loPI   C4A14468   7.199   7.335   7.844  0.2681  0.4617 -0.0698
 1010loPI   C5A14469   7.464   7.464   8.254  0.0102  0.0164  0.1673
 1010loPI   C6A14470   7.851   7.657   8.462 -0.1554 -0.1809 -0.0105
 1010loPI   C1B14471   7.494   7.511   6.786  0.0747  0.0689 -0.1598
 1010loPI   C2B14472   7.548   7.516   7.184  0.1069 -0.0699 -0.0600
 1010loPI   C3B14473   7.631   7.373   7.556 -0.2026  0.1851 -0.2575
 1010loPI   C4B14474   7.776   7.259   7.921  0.0372 -0.1350 -0.3317
 1011loPI    C114475  14.124   7.800   5.932  0.0332  0.0295  0.1050
 1011loPI    C214476  14.476   7.714   6.100  0.1973 -0.0115 -0.2506
 1011loPI    C314477  14.209   7.424   6.037  0.1551 -0.0042 -0.1083
 1011loPI   PO414478  14.137   8.073   5.974 -0.1492  0.0826 -0.0388
 1011loPI   GL114479  13.875   8.475   6.272 -0.1121  0.0448 -0.1105
 1011loPI   GL214480  13.604   8.509   6.179  0.3085 -0.0173 -0.1235
 1011loPI   C1A14481  14.020   8.372   6.708  0.1281 -0.1137  0.0764
 1011loPI   C2A14482  13.964   8.496   7.227  0.2027  0.1085  0.0146
 1011loPI   C3A14483  13.920   8.466   7.795  0.0918  0.1550  0.1506
 1011loPI   C4A14484  14.042   8.099   8.079  0.1933 -0.1706  0.0653
 1011loPI   C5A14485  14.170   7.710   8.141  0.0079  0.0198 -0.3938
 1011loPI   C6A14486  14.352   7.337   8.209 -0.0551 -0.2477 -0.1181
 1011loPI   C1B14487  13.544   8.598   6.596  0.1126  0.0082  0.0398
 1011loPI   C2B14488  13.525   8.645   7.032  0.0934 -0.0090  0.2507
 1011loPI   C3B14489  13.471   8.722   7.423  0.3332  0.1277  0.0731
 1011loPI   C4B14490  13.494   8.825   7.824  0.1965  0.0629  0.2694
 1012loPI    C114491  14.209   8.717   5.930 -0.1147  0.0390  0.0104
 1012loPI    C214492  13.903   8.500   5.789  0.0284 -0.1551 -0.0055
 1012loPI    C314493  14.047   8.806   5.575  0.0276 -0.2399 -0.1283
 1012loPI   PO414494  14.310   8.558   6.121 -0.1828 -0.1894 -0.1719
 1012loPI   GL114495  14.467   8.568   6.543 -0.1768 -0.2173 -0.2870
 1012loPI   GL214496  14.544   8.287   6.487 -0.2703  0.0240  0.1039
 1012loPI   C1A14497  14.352   8.680   6.963 -0.0926  0.0199  0.1872
 1012loPI   C2A14498  14.428   8.795   7.339  0.0878 -0.0312 -0.1604
 1012loPI   C3A14499  14.485   8.696   7.759  0.0552  0.4667  0.0225
 1012loPI   C4A14500  14.447   8.417   8.128  0.0723 -0.1693  0.0466
 1012loPI   C5A14501  14.580   8.101   8.379 -0.1102 -0.2271 -0.2160
 1012loPI   C6A14502  14.566   7.694   8.530 -0.0107  0.1176 -0.0060
 1012loPI   C1B14503  14.317   8.143   6.972  0.1529  0.1724 -0.3225
 1012loPI   C2B14504  14.125   8.034   7.363 -0.0578 -0.2761  0.0611
 1012loPI   C3B14505  13.863   7.985   7.630  0.0459  0.0033  0.1460
 1012loPI   C4B14506  13.765   7.538   7.805 -0.0456 -0.1352  0.0035
 1013POPI    C114507   3.527   7.953   5.927 -0.0311 -0.0968  0.1516
 1013POPI    C214508   3.470   7.576   5.807 -0.0952 -0.0385 -0.0054
 1013POPI    C314509   3.821   7.757   5.740  0.0276 -0.1544  0.3031
 1013POPI   PO414510   3.535   7.987   6.101 -0.0674 -0.2464 -0.2575
 1013POPI   GL114511   3.850   7.924   6.496 -0.1248 -0.0582  0.1893
 1013POPI   GL214512   4.173   8.062   6.559 -0.3048  0.4485 -0.0711
 1013POPI   C1A14513   3.691   7.921   6.861 -0.0553  0.2121  0.2125
 1013POPI   D2A14514   3.550   7.635   7.042 -0.0197  0.0726 -0.1363
 1013POPI   C3A14515   3.653   7.264   6.846 -0.1414  0.0346 -0.0156
 1013POPI   C4A14516   4.029   7.090   6.938 -0.3783 -0.0816  0.0342
 1013POPI   C1B14517   4.124   8.064   7.041 -0.2385  0.1237 -0.2246
 1013POPI   C2B14518   4.143   8.105   7.452 -0.0283 -0.1047 -0.4484
 1013POPI   C3B14519   3.858   8.133   7.812 -0.0929  0.1816 -0.1241
 1013POPI   C4B14520   3.369   8.108   7.967  0.0915  0.2585  0.0486
 1014POPI    C114521   1.166   5.571   5.537 -0.1203 -0.3212 -0.0841
 1014POPI    C214522   0.795   5.599   5.390 -0.1041 -0.4383 -0.1486
 1014POPI    C314523   1.102   5.528   5.144  0.0137  0.0392 -0.1496
 1014POPI   PO414524   1.220   5.440   5.772 -0.3077  0.0239 -0.1486
 1014POPI   GL114525   1.316   5.552   6.141 -0.0761  0.0419 -0.0782
 1014POPI   GL214526   1.116   5.572   6.405  0.0374 -0.0264  0.1642
 1014POPI   C1A14527   1.447   5.233   6.400  0.0222  0.0419 -0.1682
 1014POPI   D2A14528   1.582   4.840   6.586  0.0532  0.1749  0.0103
 1014POPI   C3A14529   1.683   4.618   6.970  0.1630 -0.4166  0.2495
 1014POPI   C4A14530   1.613   4.241   7.094  0.0768 -0.2542  0.2235
 1014POPI   C1B14531   1.106   5.467   6.833  0.2479  0.1157 -0.2026
 1014POPI   C2B14532   1.330   5.601   7.289 -0.1780  0.0609  0.2015
 1014POPI   C3B14533   1.220   5.405   7.610  0.1863  0.0938  0.1023
 1014POPI   C4B14534   1.302   5.223   8.061 -0.1972  0.1351 -0.1846
 1015POPI    C114535  17.089   1.014   5.400  0.3467 -0.1834  0.1775
 1015POPI    C214536  17.119   1.392   5.273 -0.0945 -0.2404 -0.1158
 1015POPI    C314537  17.443   1.158   5.282  0.1892  0.1495  0.1003
 1015POPI   PO414538  16.863   1.036   5.618  0.0423  0.1341  0.2630
 1015POPI   GL114539  16.800   1.013   6.048 -0.1461 -0.0716  0.1318
 1015POPI   GL214540  16.690   0.792   6.191  0.0984  0.1790 -0.1236
 1015POPI   C1A14541  16.606   1.142   6.492 -0.3074  0.0337 -0.1589
 1015POPI   D2A14542  16.864   1.204   6.877 -0.0454 -0.0935  0.0433
 1015POPI   C3A14543  17.000   1.011   7.189 -0.2131  0.1292  0.0000
 1015POPI   C4A14544  17.270   0.808   7.489  0.1429  0.3840  0.0210
 1015POPI   C1B14545  16.791   0.625   6.566  0.1135 -0.1682 -0.0056
 1015POPI   C2B14546  16.625   0.760   6.955 -0.0446 -0.1345  0.1392
 1015POPI   C3B14547  16.689   0.672   7.356  0.4890  0.0349 -0.3185
 1015POPI   C4B14548  16.745   0.810   7.744  0.0756 -0.0032 -0.0131
 1016POPI    C114549  15.490   8.791   6.035  0.0569  0.1837  0.3208
 1016POPI    C214550  15.830   8.983   5.947  0.0430  0.1582  0.2101
 1016POPI    C314551  15.753   8.627   5.782 -0.1373  0.2638  0.0636
 1016POPI   PO414552  15.475   8.733   6.294 -0.1316 -0.0076  0.0538
 1016POPI   GL114553  15.756   8.746   6.608 -0.3832  0.0363 -0.1558
 1016POPI   GL214554  15.663   8.419   6.739  0.0498  0.0173  0.1898
 1016POPI   C1A14555  15.820   8.841   6.959 -0.0337 -0.0845 -0.0144
 1016POPI   D2A14556  16.042   8.883   7.228  0.1671  0.4398  0.0250
 1016POPI   C3A14557  15.991   8.741   7.609 -0.0041 -0.0635 -0.1120
 1016POPI   C4A14558  16.020   8.518   7.947  0.1139  0.0384  0.0090
 1016POPI   C1B14559  15.644   8.448   7.227 -0.2201  0.2208  0.1214
 1016POPI   C2B14560  15.629   8.416   7.600  0.4567  0.1625 -0.0593
 1016POPI   C3B14561  15.397   8.401   7.994 -0.1146 -0.1050 -0.2622
 1016POPI   C4B14562  15.555   8.377   8.408 -0.0138 -0.1016 -0.0690
 1017POPI    C114563  11.854   6.575   5.444 -0.0605 -0.0618  0.0747
 1017POPI    C214564  12.127   6.862   5.390 -0.0783 -0.0726 -0.0770
 1017POPI    C314565  12.079   6.577   5.113 -0.1166 -0.1761  0.0353
 1017POPI   PO414566  11.924   6.443   5.656 -0.2883  0.5402  0.1348
 1017POPI   GL114567  11.926   6.570   6.056  0.0707 -0.3573 -0.1311
 1017POPI   GL214568  11.774   6.786   6.317 -0.0423  0.1365  0.0159
 1017POPI   C1A14569  12.019   6.436   6.457  0.2547  0.3211  0.1773
 1017POPI   D2A14570  12.305   6.516   6.860 -0.0161  0.2436 -0.2088
 1017POPI   C3A14571  12.099   6.568   7.319  0.0339  0.1659  0.2284
 1017POPI   C4A14572  12.027   6.926   7.546 -0.0810 -0.0350  0.1237
 1017POPI   C1B14573  11.825   6.763   6.839 -0.0416  0.4725  0.0570
 1017POPI   C2B14574  11.709   7.016   7.188  0.0518  0.0183  0.0900
 1017POPI   C3B14575  11.335   7.115   7.357  0.1828 -0.3145  0.1445
 1017POPI   C4B14576  11.061   6.943   7.630  0.1723  0.2976 -0.3151
 1018POPI    C114577   6.745   9.546   5.658  0.0629  0.0259  0.1088
 1018POPI    C214578   6.648   9.163   5.722  0.2320 -0.0808 -0.2447
 1018POPI    C314579   6.473   9.366   5.425 -0.0605  0.2050  0.1129
 1018POPI   PO414580   6.796   9.649   5.918 -0.1693 -0.0744 -0.1790
 1018POPI   GL114581   6.641   9.743   6.278 -0.0334 -0.1046 -0.0043
 1018POPI   GL214582   6.868  10.042   6.309  0.1916  0.3149 -0.0262
 1018POPI   C1A14583   6.595   9.779   6.712  0.0808  0.0787  0.0202
 1018POPI   D2A14584   6.663   9.892   7.009 -0.4127 -0.1727 -0.0953
 1018POPI   C3A14585   6.838   9.706   7.409 -0.0350  0.2244 -0.2073
 1018POPI   C4A14586   6.996   9.874   7.753  0.2591 -0.1274 -0.2800
 1018POPI   C1B14587   7.032  10.021   6.751  0.0177  0.0398 -0.2915
 1018POPI   C2B14588   7.157  10.028   7.200  0.1760  0.2332 -0.2955
 1018POPI   C3B14589   7.307  10.239   7.617  0.0803 -0.4190  0.1275
 1018POPI   C4B14590   7.701  10.183   7.782  0.1805  0.0439 -0.0334
 1019POPI    C114591   1.556  16.337   5.577  0.1130 -0.1295 -0.1197
 1019POPI    C214592   1.685  16.503   5.237  0.3362 -0.2785 -0.1099
 1019POPI    C314593   1.865  16.591   5.584 -0.0439  0.0608  0.0090
 1019POPI   PO414594   1.318  16.340   5.630  0.0862  0.0849 -0.0519
 1019POPI   GL114595   1.107  16.372   6.012  0.0273 -0.0802 -0.1440
 1019POPI   GL214596   0.999  16.095   6.156  0.0186  0.1599  0.3611
 1019POPI   C1A14597   1.360  16.522   6.392 -0.0866  0.0923 -0.0438
 1019POPI   D2A14598   1.697  16.415   6.605 -0.1964 -0.1424  0.1032
 1019POPI   C3A14599   1.767  16.212   7.013  0.1043  0.0510 -0.0627
 1019POPI   C4A14600   1.577  16.212   7.440 -0.3872 -0.1992 -0.1505
 1019POPI   C1B14601   1.021  16.011   6.508 -0.0344  0.2179  0.1164
 1019POPI   C2B14602   1.170  16.318   6.767 -0.0678 -0.0089 -0.2560
 1019POPI   C3B14603   1.454  16.559   7.043  0.1552  0.0785 -0.1177
 1019POPI   C4B14604   1.589  16.681   7.354  0.0774 -0.0183  0.0858
 1020POPI    C114605  10.221  13.310   6.037  0.0369  0.3048  0.0142
 1020POPI    C214606  10.118  13.442   5.674 -0.1566  0.1707  0.0188
 1020POPI    C314607  10.342  13.113   5.711 -0.0970  0.2114  0.0200
 1020POPI   PO414608   9.973  13.298   6.238  0.0897  0.0315 -0.0728
 1020POPI   GL114609   9.608  13.565   6.436 -0.3190  0.1206 -0.0084
 1020POPI   GL214610   9.886  13.655   6.613 -0.0765 -0.2307  0.2533
 1020POPI   C1A14611   9.417  13.549   6.855 -0.0387 -0.0521 -0.0997
 1020POPI   D2A14612   9.202  13.314   7.066 -0.1955  0.0076 -0.0201
 1020POPI   C3A14613   9.208  13.287   7.494  0.1927  0.0839 -0.3373
 1020POPI   C4A14614   9.266  13.471   7.916  0.1047  0.0201  0.1020
 1020POPI   C1B14615   9.800  13.703   7.109  0.0214 -0.1485 -0.1883
 1020POPI   C2B14616   9.583  13.603   7.551  0.0914  0.0902 -0.1853
 1020POPI   C3B14617   9.751  13.725   7.962 -0.2007 -0.0022 -0.0651
 1020POPI   C4B14618   9.975  14.100   8.119  0.0976 -0.3846 -0.0166
 1021POPI    C114619   1.230  11.564   5.542 -0.0355  0.1869  0.2738
 1021POPI    C214620   1.217  11.169   5.478  0.0489  0.2042  0.1466
 1021POPI    C314621   0.963  11.411   5.286  0.1282  0.2309  0.0749
 1021POPI   PO414622   1.362  11.594   5.810 -0.0036  0.0016  0.0766
 1021POPI   GL114623   1.182  11.718   6.224 -0.2014 -0.1968 -0.0015
 1021POPI   GL214624   1.362  11.449   6.319  0.0766  0.2247 -0.0596
 1021POPI   C1A14625   1.276  11.807   6.662 -0.1416  0.0599 -0.1214
 1021POPI   D2A14626   1.562  12.067   6.892  0.2082  0.1227 -0.1867
 1021POPI   C3A14627   1.301  12.267   7.220 -0.0426  0.0718 -0.1264
 1021POPI   C4A14628   1.129  12.441   7.573 -0.1812  0.3549 -0.1240
 1021POPI   C1B14629   1.393  11.312   6.740 -0.0761  0.0220 -0.0153
 1021POPI   C2B14630   1.293  11.085   7.087 -0.0532  0.1558 -0.4327
 1021POPI   C3B14631   1.207  11.081   7.443 -0.0479  0.1618  0.1965
 1021POPI   C4B14632   0.926  10.826   7.694  0.0178 -0.0170 -0.0791
 1022POPI    C114633   9.709  14.406   5.713 -0.1506  0.0951  0.0087
 1022POPI    C214634   9.909  14.743   5.792  0.0093 -0.0451  0.2116
 1022POPI    C314635  10.005  14.525   5.472  0.1711 -0.1025  0.2985
 1022POPI   PO414636   9.721  14.274   5.929  0.0824  0.1973  0.0935
 1022POPI   GL114637   9.831  14.146   6.371  0.1521 -0.1109 -0.0994
 1022POPI   GL214638   9.609  14.084   6.648  0.1244 -0.2306  0.1663
 1022POPI   C1A14639  10.036  14.387   6.691 -0.1150  0.0781 -0.1159
 1022POPI   D2A14640   9.853  14.594   6.839  0.1616 -0.2735  0.1904
 1022POPI   C3A14641   9.460  14.624   7.151  0.1028  0.3802  0.0112
 1022POPI   C4A14642   9.248  14.571   7.622  0.0665  0.1961  0.1402
 1022POPI   C1B14643   9.625  14.165   7.012 -0.1881  0.1159 -0.4653
 1022POPI   C2B14644   9.545  14.194   7.410 -0.1722  0.0072 -0.2419
 1022POPI   C3B14645   9.463  14.172   7.876  0.2758 -0.1917 -0.1020
 1022POPI   C4B14646   9.507  14.017   8.288  0.1122  0.0292  0.3139
 1023POPI    C114647  15.180   9.161   5.908 -0.0627 -0.0956 -0.0631
 1023POPI    C214648  15.069   8.810   5.752  0.1641 -0.1670 -0.0667
 1023POPI    C314649  15.012   9.147   5.545 -0.0017 -0.2069 -0.0877
 1023POPI   PO414650  15.072   9.093   6.172 -0.0855  0.1052 -0.0016
 1023POPI   GL114651  14.877   9.051   6.517  0.1014  0.0018 -0.3326
 1023POPI   GL214652  14.645   9.377   6.497 -0.2033  0.0703 -0.0231
 1023POPI   C1A14653  14.781   8.977   6.933 -0.2629 -0.0408  0.0582
 1023POPI   D2A14654  14.920   9.208   7.273  0.3493  0.0315  0.0879
 1023POPI   C3A14655  14.868   9.053   7.602  0.3216  0.3124 -0.1783
 1023POPI   C4A14656  14.826   9.252   8.068 -0.0334 -0.2413  0.0250
 1023POPI   C1B14657  14.662   9.490   6.847 -0.1135 -0.4368  0.1627
 1023POPI   C2B14658  14.790   9.707   7.198  0.5187 -0.0162  0.1415
 1023POPI   C3B14659  14.911   9.799   7.560  0.1922 -0.0733  0.1674
 1023POPI   C4B14660  15.119   9.824   8.050  0.0501  0.1017  0.0219
 1024POPI    C114661   2.108   8.109   5.890  0.1695 -0.2039 -0.0464
 1024POPI    C214662   1.725   8.006   5.831  0.0706  0.1366 -0.0172
 1024POPI    C314663   1.965   8.078   5.518  0.1088 -0.0653 -0.0353
 1024POPI   PO414664   2.244   8.061   6.139  0.4665  0.1299 -0.3290
 1024POPI   GL114665   2.361   7.765   6.532  0.1488 -0.1452  0.0690
 1024POPI   GL214666   2.186   8.135   6.635  0.1067 -0.1078  0.2286
 1024POPI   C1A14667   2.527   7.898   6.900  0.0054 -0.2116 -0.3538
 1024POPI   D2A14668   2.439   8.058   7.291  0.0369  0.1796  0.1464
 1024POPI   C3A14669   2.403   7.946   7.698 -0.1907 -0.0853 -0.3296
 1024POPI   C4A14670   2.184   8.156   8.103 -0.1349 -0.1907 -0.1053
 1024POPI   C1B14671   1.988   7.847   6.867  0.0022  0.0584  0.2195
 1024POPI   C2B14672   1.855   7.661   7.246 -0.2105  0.0009  0.0935
 1024POPI   C3B14673   1.712   7.657   7.593 -0.2067 -0.2779 -0.0911
 1024POPI   C4B14674   1.697   7.368   7.826  0.1425 -0.0659 -0.1103
 1025POPI    C114675  13.146   6.720   5.299  0.0159  0.1002  0.0879
 1025POPI    C214676  13.427   6.953   5.135  0.0459 -0.0983 -0.1480
 1025POPI    C314677  13.273   6.648   4.927 -0.4764  0.1156 -0.0909
 1025POPI   PO414678  13.302   6.669   5.589 -0.0060  0.0253  0.2450
 1025POPI   GL114679  13.421   6.757   6.071  0.0322  0.1353  0.1263
 1025POPI   GL214680  13.187   6.886   6.243  0.5435 -0.0492  0.1460
 1025POPI   C1A14681  13.712   6.626   6.422  0.0749 -0.0922 -0.1144
 1025POPI   D2A14682  13.862   6.400   6.730 -0.2014 -0.1102 -0.1068
 1025POPI   C3A14683  14.199   6.336   7.009  0.1635  0.0951  0.3108
 1025POPI   C4A14684  14.172   6.383   7.457 -0.1862 -0.2355 -0.1924
 1025POPI   C1B14685  13.182   6.848   6.725  0.3248  0.1623 -0.0464
 1025POPI   C2B14686  13.192   7.008   7.177  0.0953 -0.1217  0.1164
 1025POPI   C3B14687  13.004   7.449   7.448 -0.0717  0.1226  0.3508
 1025POPI   C4B14688  12.894   7.482   7.846 -0.1154 -0.1333 -0.0238
 1026POPI    C114689  14.154   4.198   5.433 -0.1079 -0.3387 -0.0704
 1026POPI    C214690  14.348   4.454   5.195 -0.1344  0.0217  0.2848
 1026POPI    C314691  14.537   4.131   5.338 -0.0738 -0.1166 -0.0938
 1026POPI   PO414692  14.051   4.389   5.633  0.1154  0.1885  0.0233
 1026POPI   GL114693  14.168   4.172   6.003 -0.4614  0.2278 -0.1283
 1026POPI   GL214694  13.935   3.990   6.139  0.0198  0.0427 -0.0023
 1026POPI   C1A14695  14.260   4.298   6.446 -0.0674  0.4568  0.1996
 1026POPI   D2A14696  14.542   4.213   6.834 -0.0434  0.0236  0.0673
 1026POPI   C3A14697  14.378   4.340   7.231 -0.1206 -0.0360  0.0704
 1026POPI   C4A14698  14.262   4.199   7.527 -0.1694  0.0477  0.0706
 1026POPI   C1B14699  13.934   3.996   6.670 -0.1604 -0.0766  0.1123
 1026POPI   C2B14700  13.966   3.864   7.170 -0.2914 -0.0932  0.0068
 1026POPI   C3B14701  13.649   3.629   7.360  0.1205 -0.1438 -0.1364
 1026POPI   C4B14702  13.547   3.307   7.744  0.2549  0.0047  0.0240
 1027POPI    C114703   5.441  15.517   6.071  0.0539  0.3823 -0.1051
 1027POPI    C214704   5.483  15.434   6.460  0.0260 -0.0969 -0.1980
 1027POPI    C314705   5.166  15.295   6.260  0.0070  0.2014 -0.3812
 1027POPI   PO414706   5.587  15.760   6.089  0.0068 -0.2000  0.1602
 1027POPI   GL114707   5.540  15.968   6.449  0.2291  0.1352 -0.0315
 1027POPI   GL214708   5.861  15.947   6.497  0.0273 -0.0066 -0.0205
 1027POPI   C1A14709   5.258  15.837   6.759  0.2076 -0.2245 -0.2259
 1027POPI   D2A14710   5.294  15.577   7.129  0.0499  0.2991 -0.2275
 1027POPI   C3A14711   5.208  15.670   7.552 -0.2060  0.1557  0.1802
 1027POPI   C4A14712   4.698  15.660   7.742 -0.1796  0.0536  0.3342
 1027POPI   C1B14713   5.977  16.068   6.887 -0.3012 -0.1757  0.0405
 1027POPI   C2B14714   6.326  16.097   7.046  0.0065  0.1319  0.1773
 1027POPI   C3B14715   6.428  15.981   7.472 -0.1897  0.0659 -0.1310
 1027POPI   C4B14716   6.466  15.893   7.866 -0.2768  0.0720  0.1270
 1028POPI    C114717  17.762   4.492   5.770  0.2346  0.0763  0.0867
 1028POPI    C214718  18.025   4.539   5.473  0.2105 -0.2292  0.0134
 1028POPI    C314719  17.659   4.699   5.443  0.3223  0.0365  0.0337
 1028POPI   PO414720  17.917   4.659   6.014  0.2503  0.0166  0.1632
 1028POPI   GL114721  17.842   4.434   6.496  0.3765  0.0625 -0.2079
 1028POPI   GL214722  17.616   4.706   6.417 -0.0640  0.1768  0.3985
 1028POPI   C1A14723  18.100   4.424   6.892  0.0735  0.1741  0.0080
 1028POPI   D2A14724  18.300   4.575   7.354 -0.0494 -0.1224 -0.1214
 1028POPI   C3A14725  17.991   4.432   7.675 -0.1524 -0.0062  0.0807
 1028POPI   C4A14726  18.132   4.206   8.075  0.2903  0.3064  0.4036
 1028POPI   C1B14727  17.646   4.651   6.938 -0.0179 -0.1011  0.1735
 1028POPI   C2B14728  17.747   4.669   7.293  0.0638 -0.0762  0.0942
 1028POPI   C3B14729  17.710   4.862   7.611  0.1522 -0.1342  0.2180
 1028POPI   C4B14730  17.676   4.936   8.109  0.1510  0.0955  0.1245
 1029POPI    C114731   5.027  14.537   6.082  0.1679  0.1111  0.0458
 1029POPI    C214732   5.279  14.317   5.862  0.0453  0.1294 -0.1158
 1029POPI    C314733   5.110  14.643   5.705  0.0156  0.1867  0.0329
 1029POPI   PO414734   5.102  14.522   6.370 -0.0894  0.0801 -0.2027
 1029POPI   GL114735   5.028  14.156   6.623  0.4712  0.2503 -0.1570
 1029POPI   GL214736   4.774  14.439   6.727 -0.2163  0.1731  0.1539
 1029POPI   C1A14737   5.053  14.009   7.060  0.0463 -0.1572 -0.0619
 1029POPI   D2A14738   5.025  14.072   7.359 -0.0459 -0.2402  0.0936
 1029POPI   C3A14739   5.365  13.898   7.610  0.1419 -0.0304 -0.0900
 1029POPI   C4A14740   5.364  13.922   7.960  0.0025 -0.1061  0.1618
 1029POPI   C1B14741   4.640  14.398   7.166  0.2476 -0.1055 -0.0303
 1029POPI   C2B14742   4.662  14.321   7.648  0.1502  0.1146  0.0337
 1029POPI   C3B14743   4.950  14.334   7.909 -0.3016  0.1905 -0.1173
 1029POPI   C4B14744   5.270  14.447   8.075 -0.0952  0.0047 -0.1745
 1030POPI    C114745   7.399   6.163   5.851  0.0910  0.0850 -0.1706
 1030POPI    C214746   7.345   5.803   6.017  0.1019  0.0951 -0.1453
 1030POPI    C314747   7.042   5.984   5.829  0.1620 -0.0358 -0.3720
 1030POPI   PO414748   7.599   6.236   5.943  0.0841  0.2455 -0.0907
 1030POPI   GL114749   7.657   6.515   6.210 -0.1521 -0.0848 -0.1497
 1030POPI   GL214750   7.969   6.594   6.024 -0.0828  0.2235 -0.0414
 1030POPI   C1A14751   7.778   6.437   6.559 -0.0420 -0.1607 -0.0943
 1030POPI   D2A14752   7.645   6.200   6.880 -0.1330 -0.0970 -0.0812
 1030POPI   C3A14753   7.776   5.863   6.837  0.1801  0.0259  0.0264
 1030POPI   C4A14754   7.735   5.375   6.834  0.0881 -0.2786  0.0105
 1030POPI   C1B14755   8.212   6.780   6.389  0.3082  0.0050 -0.1323
 1030POPI   C2B14756   8.261   6.819   6.761  0.1921  0.3999 -0.4346
 1030POPI   C3B14757   8.386   6.793   7.200 -0.4865 -0.0477 -0.0175
 1030POPI   C4B14758   8.291   6.781   7.588  0.2074 -0.1056 -0.0191
 1031POPI    C114759  13.373  10.363   5.794 -0.1346  0.0583 -0.0340
 1031POPI    C214760  13.213  10.152   5.494  0.1684 -0.0199 -0.1439
 1031POPI    C314761  13.582  10.304   5.457  0.2212 -0.0580  0.2014
 1031POPI   PO414762  13.293  10.312   5.975  0.1266  0.1583  0.2592
 1031POPI   GL114763  13.436  10.215   6.394  0.1076  0.2061 -0.0075
 1031POPI   GL214764  13.305   9.938   6.327  0.1662 -0.0846 -0.0103
 1031POPI   C1A14765  13.245  10.283   6.798 -0.2092 -0.0041  0.2718
 1031POPI   D2A14766  13.227  10.492   7.124  0.3947  0.0662  0.2237
 1031POPI   C3A14767  12.849  10.446   7.199 -0.0438  0.4929 -0.2567
 1031POPI   C4A14768  12.495  10.379   7.442  0.0879  0.1420  0.1278
 1031POPI   C1B14769  13.380   9.732   6.719  0.0618 -0.1639 -0.0584
 1031POPI   C2B14770  13.271   9.594   7.104 -0.1824  0.3169 -0.1194
 1031POPI   C3B14771  13.073   9.371   7.531 -0.0574  0.0837 -0.1984
 1031POPI   C4B14772  13.214   9.216   7.998  0.0774 -0.0218 -0.0275
 1032POPI    C114773   2.647  12.311   5.824 -0.0496 -0.0692 -0.1761
 1032POPI    C214774   2.876  12.630   5.750 -0.0250 -0.0265  0.0745
 1032POPI    C314775   2.580  12.533   5.498 -0.0597  0.2179  0.0183
 1032POPI   PO414776   2.693  12.269   6.116 -0.1386  0.1912  0.2364
 1032POPI   GL114777   2.760  12.209   6.488 -0.0905 -0.0104  0.0672
 1032POPI   GL214778   2.575  11.941   6.567 -0.2960  0.2333  0.0575
 1032POPI   C1A14779   2.967  12.231   6.821 -0.0846  0.2135  0.0931
 1032POPI   D2A14780   2.991  12.148   7.247 -0.0866 -0.1239 -0.2172
 1032POPI   C3A14781   3.159  12.002   7.563 -0.2314 -0.0869  0.1274
 1032POPI   C4A14782   3.319  11.920   7.979 -0.1434  0.2002 -0.1581
 1032POPI   C1B14783   2.602  11.917   6.998  0.1463  0.1653  0.0531
 1032POPI   C2B14784   2.501  11.884   7.515 -0.0874 -0.1047  0.4160
 1032POPI   C3B14785   2.425  11.829   7.887 -0.1562 -0.0777 -0.1105
 1032POPI   C4B14786   2.263  11.777   8.365 -0.1317  0.1299 -0.0378
 1033POPI    C114787   1.149  13.749   5.554  0.3523  0.1117 -0.0596
 1033POPI    C214788   1.249  13.628   5.186  0.0780 -0.0498 -0.0841
 1033POPI    C314789   0.878  13.757   5.260  0.1319 -0.0162  0.1363
 1033POPI   PO414790   1.190  13.608   5.716  0.2779 -0.0204 -0.0084
 1033POPI   GL114791   0.942  13.493   6.126  0.1416 -0.2074  0.0218
 1033POPI   GL214792   1.194  13.730   6.175  0.2946  0.0935  0.0374
 1033POPI   C1A14793   0.820  13.373   6.572 -0.0607 -0.1787  0.1189
 1033POPI   D2A14794   0.677  13.554   6.957 -0.1188  0.0374  0.2070
 1033POPI   C3A14795   0.668  13.493   7.438  0.0556  0.0360  0.0817
 1033POPI   C4A14796   0.531  13.475   7.856  0.1775  0.0474 -0.2681
 1033POPI   C1B14797   1.212  13.671   6.602  0.0626  0.2197 -0.0062
 1033POPI   C2B14798   1.394  13.705   6.999 -0.0194  0.0906 -0.0023
 1033POPI   C3B14799   1.536  13.660   7.351 -0.0433 -0.0290  0.2343
 1033POPI   C4B14800   1.455  13.819   7.734 -0.0867 -0.2063  0.5044
 1034POPI    C114801   8.957   3.166   5.771 -0.0145 -0.1065  0.0919
 1034POPI    C214802   8.913   3.091   5.381  0.0225  0.2243  0.0215
 1034POPI    C314803   9.171   3.371   5.503  0.1552 -0.0127  0.2966
 1034POPI   PO414804   8.721   3.283   5.868  0.3280  0.3251 -0.4416
 1034POPI   GL114805   8.654   3.402   6.297  0.2218  0.1050 -0.0415
 1034POPI   GL214806   8.988   3.247   6.309 -0.0070  0.1013  0.0336
 1034POPI   C1A14807   8.725   3.661   6.661  0.1568  0.1036 -0.3709
 1034POPI   D2A14808   8.740   3.679   7.100 -0.1860  0.0166  0.3017
 1034POPI   C3A14809   8.554   3.783   7.421 -0.3948  0.0339  0.1060
 1034POPI   C4A14810   8.198   3.891   7.737 -0.0088 -0.0226 -0.1175
 1034POPI   C1B14811   8.939   3.191   6.690  0.3418  0.0987  0.1468
 1034POPI   C2B14812   8.924   3.216   7.002  0.0011  0.2173  0.2114
 1034POPI   C3B14813   9.044   3.357   7.381  0.0975 -0.3000 -0.1116
 1034POPI   C4B14814   8.838   3.554   7.796  0.2224 -0.1861  0.0685
 1035POPI    C114815  16.722  13.114   5.124 -0.0713  0.0365  0.1494
 1035POPI    C214816  16.326  13.089   5.179 -0.0633  0.2166  0.2960
 1035POPI    C314817  16.479  13.381   4.951 -0.0486 -0.1498 -0.1789
 1035POPI   PO414818  16.816  12.929   5.375  0.1994  0.0456 -0.2021
 1035POPI   GL114819  17.065  13.248   5.589  0.1124 -0.0003 -0.1333
 1035POPI   GL214820  17.035  13.469   5.765 -0.1534  0.1283 -0.1339
 1035POPI   C1A14821  16.893  13.077   5.992  0.2394 -0.0710  0.2132
 1035POPI   D2A14822  16.671  12.825   6.275  0.1162  0.3763 -0.0375
 1035POPI   C3A14823  16.680  12.739   6.729 -0.3258  0.0049  0.1409
 1035POPI   C4A14824  16.713  12.540   7.141 -0.0662  0.1528 -0.0397
 1035POPI   C1B14825  16.949  13.531   6.296  0.1741 -0.0218 -0.2581
 1035POPI   C2B14826  16.780  13.219   6.572  0.1021  0.1200  0.0316
 1035POPI   C3B14827  16.600  13.126   7.043 -0.0432  0.3046 -0.2395
 1035POPI   C4B14828  16.454  13.269   7.430 -0.2520 -0.2135 -0.0710
 1036POPI    C114829  11.437  11.879   6.094 -0.2089  0.1681 -0.0082
 1036POPI    C214830  11.385  11.716   5.733  0.0073 -0.2279  0.1330
 1036POPI    C314831  11.542  12.082   5.766  0.0218 -0.2036 -0.1712
 1036POPI   PO414832  11.431  11.631   6.219  0.0479  0.3184  0.1975
 1036POPI   GL114833  11.542  11.511   6.707 -0.0569  0.0545  0.1817
 1036POPI   GL214834  11.851  11.475   6.515 -0.1032  0.1059  0.1212
 1036POPI   C1A14835  11.649  11.493   7.148  0.0433 -0.1202 -0.2982
 1036POPI   D2A14836  11.585  11.384   7.560 -0.0302 -0.2143  0.0311
 1036POPI   C3A14837  11.785  11.369   7.911  0.1014  0.1744  0.1966
 1036POPI   C4A14838  11.666  11.273   8.350  0.2369 -0.1224 -0.0531
 1036POPI   C1B14839  12.037  11.632   6.873  0.4198 -0.1820  0.2214
 1036POPI   C2B14840  12.285  11.890   7.186  0.1890  0.1160 -0.2058
 1036POPI   C3B14841  12.521  11.892   7.517 -0.1694  0.0010 -0.0026
 1036POPI   C4B14842  12.571  11.905   7.924 -0.1289 -0.6596  0.0302
 1037POPI    C114843   5.039  11.827   5.577 -0.1279 -0.2281 -0.0686
 1037POPI    C214844   5.334  12.000   5.369 -0.2484  0.0752  0.0073
 1037POPI    C314845   5.168  11.661   5.237 -0.0375  0.0378 -0.1667
 1037POPI   PO414846   5.187  11.946   5.868 -0.3038 -0.2448 -0.0420
 1037POPI   GL114847   5.152  12.034   6.335  0.1020 -0.4265  0.0192
 1037POPI   GL214848   4.939  12.290   6.412  0.0738  0.1193  0.0525
 1037POPI   C1A14849   5.263  12.079   6.803  0.1840  0.0748 -0.1126
 1037POPI   D2A14850   5.317  12.227   7.275  0.0178  0.1964  0.1209
 1037POPI   C3A14851   5.081  12.049   7.548 -0.3082  0.2862 -0.2399
 1037POPI   C4A14852   5.067  11.710   7.847 -0.1640 -0.2430 -0.0961
 1037POPI   C1B14853   4.802  11.892   6.708  0.1922 -0.0525 -0.1916
 1037POPI   C2B14854   4.854  11.871   7.117 -0.0420 -0.2247  0.2154
 1037POPI   C3B14855   4.637  11.798   7.469 -0.1594  0.1027 -0.0554
 1037POPI   C4B14856   4.596  11.558   7.912 -0.0172  0.2868 -0.1157
 1038POPI    C114857  12.234   5.117   5.903  0.2978 -0.0229  0.0776
 1038POPI    C214858  12.006   4.818   6.039 -0.0568  0.2448  0.0848
 1038POPI    C314859  12.203   4.777   5.694 -0.3244  0.1036 -0.0542
 1038POPI   PO414860  12.376   5.134   6.086 -0.3571 -0.1382 -0.1866
 1038POPI   GL114861  12.534   5.192   6.459  0.0577  0.2242  0.3159
 1038POPI   GL214862  12.892   5.049   6.407 -0.3163  0.0131 -0.0996
 1038POPI   C1A14863  12.380   4.877   6.765  0.2576 -0.2259  0.2250
 1038POPI   D2A14864  12.547   4.530   6.988 -0.1157  0.4307 -0.0163
 1038POPI   C3A14865  12.661   4.488   7.423 -0.1961 -0.1799 -0.1510
 1038POPI   C4A14866  12.682   4.624   7.771  0.2805  0.4258 -0.5042
 1038POPI   C1B14867  12.960   4.871   6.736  0.0135 -0.1212 -0.0123
 1038POPI   C2B14868  12.988   4.874   7.168  0.0692  0.2465 -0.2642
 1038POPI   C3B14869  13.073   4.938   7.538 -0.1421  0.1455 -0.0802
 1038POPI   C4B14870  13.100   4.999   7.987 -0.0617  0.1331 -0.3050
 1039POPI    C114871   0.519   3.866   5.842 -0.1246  0.0734  0.0613
 1039POPI    C214872   0.430   4.245   5.750 -0.1201  0.0539 -0.0236
 1039POPI    C314873   0.758   4.073   5.597 -0.0033  0.0850  0.1879
 1039POPI   PO414874   0.471   3.866   6.150 -0.0226 -0.1227  0.1485
 1039POPI   GL114875   0.253   3.962   6.528  0.1646  0.0841 -0.1652
 1039POPI   GL214876  -0.108   3.969   6.578 -0.1135  0.0549  0.3387
 1039POPI   C1A14877   0.352   3.916   6.959  0.2950  0.0144  0.3705
 1039POPI   D2A14878   0.183   4.132   7.278  0.0867 -0.0109 -0.1247
 1039POPI   C3A14879   0.196   3.920   7.665 -0.2417 -0.0818  0.1257
 1039POPI   C4A14880   0.173   3.745   8.039  0.0105  0.2422  0.3086
 1039POPI   C1B14881  -0.223   4.167   6.904 -0.2361 -0.2037 -0.3370
 1039POPI   C2B14882  -0.337   4.201   7.381  0.0101 -0.0732 -0.0562
 1039POPI   C3B14883  -0.262   4.169   7.877 -0.0707 -0.3823  0.0132
 1039POPI   C4B14884  -0.181   4.410   8.195 -0.0908 -0.4988  0.2242
 1040POPI    C114885   7.370   7.961   5.755 -0.0408  0.0041  0.0304
 1040POPI    C214886   7.675   7.776   5.937 -0.0411  0.2475  0.2846
 1040POPI    C314887   7.607   7.715   5.547 -0.0752 -0.3269  0.3724
 1040POPI   PO414888   7.190   7.982   6.096  0.2713  0.2762  0.0856
 1040POPI   GL114889   7.449   7.980   6.500 -0.0570  0.2911 -0.2240
 1040POPI   GL214890   7.549   8.203   6.646 -0.1590  0.0731 -0.4028
 1040POPI   C1A14891   7.189   7.918   6.869  0.1099  0.1231 -0.1249
 1040POPI   D2A14892   7.142   7.905   7.307 -0.0247 -0.0476 -0.0841
 1040POPI   C3A14893   7.347   7.765   7.719  0.1923  0.1346 -0.1884
 1040POPI   C4A14894   7.721   7.835   7.911 -0.2139 -0.0313  0.0675
 1040POPI   C1B14895   7.600   8.136   7.045  0.1202 -0.0436  0.2860
 1040POPI   C2B14896   7.563   8.167   7.491  0.0901  0.0946 -0.1612
 1040POPI   C3B14897   7.505   8.293   7.925 -0.1249 -0.0542  0.3516
 1040POPI   C4B14898   7.267   8.462   8.281  0.1224  0.0241  0.2362
 1041POPI    C114899   3.071   1.176   5.643 -0.1627 -0.0736  0.0155
 1041POPI    C214900   2.809   1.463   5.739 -0.0776 -0.0251  0.1051
 1041POPI    C314901   3.008   1.481   5.392 -0.2523 -0.1052 -0.0009
 1041POPI   PO414902   3.125   1.086   5.965  0.0230 -0.0749 -0.1453
 1041POPI   GL114903   2.932   1.396   6.222  0.0471  0.3828  0.0619
 1041POPI   GL214904   2.995   1.262   6.440  0.0495 -0.0394 -0.1787
 1041POPI   C1A14905   2.583   1.507   6.497  0.0447 -0.0368  0.0148
 1041POPI   D2A14906   2.443   1.619   6.898  0.3038 -0.2050  0.0910
 1041POPI   C3A14907   2.565   1.619   7.275 -0.0321 -0.0788  0.0151
 1041POPI   C4A14908   2.595   1.565   7.611  0.1638 -0.0939  0.2901
 1041POPI   C1B14909   2.868   1.315   6.875  0.0785 -0.0683 -0.0662
 1041POPI   C2B14910   2.747   1.137   7.357  0.2191 -0.0962  0.0052
 1041POPI   C3B14911   2.601   0.978   7.767 -0.2220  0.1594  0.0310
 1041POPI   C4B14912   2.237   0.964   8.050  0.1191 -0.0806  0.2502
 1042POPI    C114913   5.142  10.172   6.032 -0.0105  0.0715 -0.0369
 1042POPI    C214914   5.453  10.050   5.811  0.0548  0.1382  0.0178
 1042POPI    C314915   5.081   9.942   5.710  0.0836  0.1742 -0.1286
 1042POPI   PO414916   5.259  10.109   6.299 -0.4345 -0.0444  0.1518
 1042POPI   GL114917   5.034  10.095   6.620 -0.1198 -0.2056 -0.2281
 1042POPI   GL214918   5.326  10.369   6.703 -0.1638  0.0230  0.2778
 1042POPI   C1A14919   4.928  10.082   7.045  0.0536  0.1914  0.2197
 1042POPI   D2A14920   4.796  10.310   7.330  0.0583  0.0414 -0.1801
 1042POPI   C3A14921   4.903  10.156   7.795  0.0879  0.1272 -0.2562
 1042POPI   C4A14922   4.924  10.007   8.179  0.3674 -0.1128  0.0396
 1042POPI   C1B14923   5.356  10.417   7.132  0.0545  0.0183 -0.1948
 1042POPI   C2B14924   5.363  10.364   7.566  0.0682  0.2367  0.0200
 1042POPI   C3B14925   5.032  10.628   7.697 -0.0046 -0.0793 -0.0855
 1042POPI   C4B14926   4.570  10.699   7.657  0.1874  0.2278  0.0538
 1043POPI    C114927   9.726   3.562   5.537 -0.0380 -0.1299 -0.0708
 1043POPI    C214928   9.854   3.941   5.536 -0.0490 -0.1252  0.0857
 1043POPI    C314929   9.949   3.698   5.234  0.0322 -0.0226  0.0278
 1043POPI   PO414930   9.526   3.611   5.785 -0.0431 -0.0782  0.0648
 1043POPI   GL114931   9.558   3.718   6.290 -0.1650  0.1987  0.0606
 1043POPI   GL214932   9.740   3.924   6.495 -0.0419  0.0157  0.0932
 1043POPI   C1A14933   9.470   3.431   6.480 -0.2771 -0.0303  0.1535
 1043POPI   D2A14934   9.349   3.360   6.898 -0.0956  0.0025  0.0555
 1043POPI   C3A14935   9.294   2.964   7.111 -0.0474  0.3227  0.2421
 1043POPI   C4A14936   9.271   2.838   7.560 -0.1679 -0.0628  0.1527
 1043POPI   C1B14937   9.758   3.693   6.889 -0.1699 -0.2652  0.1656
 1043POPI   C2B14938   9.901   3.789   7.278 -0.0828  0.0751  0.1713
 1043POPI   C3B14939   9.864   3.739   7.695 -0.1407 -0.0184  0.1480
 1043POPI   C4B14940   9.948   3.989   8.012  0.3645 -0.3208 -0.1217
 1044POPI    C114941   4.833   7.519   5.737  0.1996 -0.1975  0.1079
 1044POPI    C214942   5.213   7.593   5.836  0.1606 -0.0142  0.1261
 1044POPI    C314943   5.103   7.593   5.452  0.2092 -0.2207  0.1111
 1044POPI   PO414944   4.671   7.716   5.966 -0.3981  0.0910 -0.0838
 1044POPI   GL114945   4.725   7.697   6.438  0.2094  0.1204 -0.1578
 1044POPI   GL214946   5.040   7.727   6.447  0.0367  0.1337 -0.2850
 1044POPI   C1A14947   4.463   7.610   6.804  0.0660 -0.1114 -0.0954
 1044POPI   D2A14948   4.067   7.599   7.093  0.0286 -0.0893  0.0669
 1044POPI   C3A14949   3.989   7.296   7.362  0.0100  0.1350 -0.1177
 1044POPI   C4A14950   3.782   7.173   7.773  0.1272  0.0618 -0.0148
 1044POPI   C1B14951   4.966   7.707   6.961 -0.2011 -0.1098 -0.2767
 1044POPI   C2B14952   5.092   7.662   7.416  0.1388  0.1179 -0.0563
 1044POPI   C3B14953   5.028   7.864   7.737  0.0756  0.2341  0.1892
 1044POPI   C4B14954   5.297   8.011   7.948  0.0516 -0.1366  0.0347
 1045POPI    C114955  15.986  14.826   5.178  0.0818  0.2709  0.0514
 1045POPI    C214956  15.960  14.991   4.815  0.1046  0.0559 -0.0497
 1045POPI    C314957  15.648  14.794   4.967  0.0821  0.1786  0.0646
 1045POPI   PO414958  16.024  14.977   5.285 -0.0948  0.1018 -0.1879
 1045POPI   GL114959  15.975  15.050   5.657  0.1360 -0.0020 -0.1939
 1045POPI   GL214960  15.725  14.984   5.926  0.4553  0.1696  0.1244
 1045POPI   C1A14961  16.041  15.296   6.036  0.2755  0.1589 -0.2585
 1045POPI   D2A14962  15.908  15.182   6.379  0.0163 -0.4248  0.0245
 1045POPI   C3A14963  15.924  15.241   6.889 -0.0120 -0.6075 -0.3142
 1045POPI   C4A14964  16.036  15.288   7.276 -0.1757 -0.2454  0.2616
 1045POPI   C1B14965  15.546  14.825   6.350  0.0408 -0.3791 -0.0538
 1045POPI   C2B14966  15.722  14.767   6.739 -0.1468  0.2690  0.1306
 1045POPI   C3B14967  16.035  14.746   7.066 -0.0509  0.0076  0.0903
 1045POPI   C4B14968  16.343  14.610   7.380  0.0207 -0.2134  0.1077
 1046POPI    C114969   2.592   5.774   5.832 -0.0792 -0.1516 -0.0756
 1046POPI    C214970   2.279   5.924   5.634  0.0009  0.0166 -0.0761
 1046POPI    C314971   2.638   6.098   5.602  0.0678 -0.1020  0.0222
 1046POPI   PO414972   2.479   5.780   6.095 -0.0383 -0.1302 -0.0827
 1046POPI   GL114973   2.365   5.606   6.383  0.0263  0.0684  0.1097
 1046POPI   GL214974   2.132   5.806   6.460 -0.3167  0.0442 -0.2075
 1046POPI   C1A14975   2.590   5.423   6.602  0.0972 -0.3091 -0.1002
 1046POPI   D2A14976   2.551   5.309   6.975 -0.0319 -0.1411 -0.1368
 1046POPI   C3A14977   2.382   5.218   7.342 -0.1380 -0.0733  0.0398
 1046POPI   C4A14978   2.204   5.499   7.644  0.0226 -0.0183  0.3046
 1046POPI   C1B14979   2.096   5.588   6.806 -0.0520 -0.0741 -0.1748
 1046POPI   C2B14980   1.987   5.457   7.209 -0.0934 -0.0619  0.0841
 1046POPI   C3B14981   1.700   5.432   7.658  0.0906 -0.2215 -0.1637
 1046POPI   C4B14982   1.793   5.539   8.065 -0.3083  0.2270  0.0032
 1047POPI    C114983   1.759  17.435   5.921 -0.0328  0.3155 -0.0598
 1047POPI    C214984   1.701  17.196   5.606 -0.1666  0.0655  0.1501
 1047POPI    C314985   1.873  17.554   5.557  0.0763 -0.0890 -0.1624
 1047POPI   PO414986   1.506  17.294   6.085 -0.0577 -0.0164 -0.0563
 1047POPI   GL114987   1.493  16.975   6.393  0.1368 -0.3951  0.2421
 1047POPI   GL214988   1.819  16.879   6.536  0.3512  0.0920  0.2504
 1047POPI   C1A14989   1.106  16.950   6.647  0.1947  0.1321  0.1310
 1047POPI   D2A14990   0.893  16.827   7.012 -0.0825 -0.0736 -0.0325
 1047POPI   C3A14991   1.122  16.671   7.380  0.1935  0.2992 -0.1128
 1047POPI   C4A14992   1.076  16.375   7.749  0.1716  0.1066 -0.1128
 1047POPI   C1B14993   1.884  17.107   6.878 -0.0308 -0.1211  0.1425
 1047POPI   C2B14994   1.794  17.222   7.296  0.1763 -0.0706  0.1548
 1047POPI   C3B14995   1.480  17.213   7.556  0.1217  0.0683  0.0619
 1047POPI   C4B14996   1.062  17.133   7.526 -0.0204  0.0140 -0.0293
 1048POPI    C114997   2.631  16.849   6.261 -0.0291  0.2765 -0.0965
 1048POPI    C214998   2.812  16.674   5.949 -0.0653  0.1648 -0.0556
 1048POPI    C314999   2.985  16.985   6.134  0.0499  0.1051 -0.0624
 1048POPI   PO415000   2.417  16.812   6.215  0.0302  0.0948 -0.1192
 1048POPI   GL115001   2.235  16.545   6.505  0.2074 -0.1293 -0.1071
 1048POPI   GL215002   2.435  16.525   6.638  0.1168  0.0128 -0.1478
 1048POPI   C1A15003   2.029  16.645   6.963  0.1485  0.3009 -0.2083
 1048POPI   D2A15004   2.142  16.591   7.271  0.2798 -0.1266  0.2165
 1048POPI   C3A15005   1.960  16.867   7.604  0.0891 -0.0780 -0.1000
 1048POPI   C4A15006   1.529  16.783   7.870 -0.1798  0.2003  0.0703
 1048POPI   C1B15007   2.575  16.557   7.052  0.0721  0.0413  0.0432
 1048POPI   C2B15008   2.871  16.622   7.338 -0.0564 -0.2236 -0.0131
 1048POPI   C3B15009   2.940  16.737   7.764 -0.3365  0.0423  0.3940
 1048POPI   C4B15010   2.806  16.754   8.207 -0.2159 -0.1570 -0.0583
 1049POPI    C115011  14.975   6.866   5.371  0.0399  0.3091 -0.4020
 1049POPI    C215012  15.258   6.584   5.366  0.0817  0.3434 -0.1258
 1049POPI    C315013  14.954   6.566   5.106  0.1531  0.1172 -0.1968
 1049POPI   PO415014  15.125   7.035   5.565  0.0098 -0.1871  0.0732
 1049POPI   GL115015  15.055   7.044   6.041 -0.1464  0.1343 -0.0922
 1049POPI   GL215016  14.897   6.863   5.926  0.1993 -0.0447  0.2232
 1049POPI   C1A15017  15.012   6.972   6.489 -0.1041  0.1844  0.1099
 1049POPI   D2A15018  15.225   7.049   6.918  0.0588 -0.1516  0.0417
 1049POPI   C3A15019  15.177   7.091   7.339  0.0791  0.0243 -0.0442
 1049POPI   C4A15020  15.065   6.928   7.718  0.0498  0.0609 -0.0733
 1049POPI   C1B15021  14.548   6.820   6.283 -0.2720 -0.1151  0.3558
 1049POPI   C2B15022  14.459   6.663   6.736 -0.0429  0.2122  0.1655
 1049POPI   C3B15023  14.543   6.651   7.218 -0.1277  0.1161 -0.0795
 1049POPI   C4B15024  14.553   6.705   7.693 -0.0883 -0.0787  0.1316
 1050POPI    C115025  10.033  16.630   6.049 -0.2093 -0.0719  0.0201
 1050POPI    C215026  10.405  16.482   6.050 -0.1309  0.1175 -0.2094
 1050POPI    C315027  10.157  16.398   5.747 -0.2439  0.0710 -0.1047
 1050POPI   PO415028  10.148  16.893   6.186  0.3617 -0.0297 -0.1917
 1050POPI   GL115029   9.942  17.128   6.484 -0.1626 -0.0857 -0.0807
 1050POPI   GL215030   9.946  17.441   6.488  0.0566 -0.0477 -0.2265
 1050POPI   C1A15031   9.753  16.978   6.747 -0.0696  0.0593  0.1385
 1050POPI   D2A15032   9.647  16.876   7.189  0.0097 -0.1976 -0.1735
 1050POPI   C3A15033   9.707  16.744   7.640  0.1091  0.1118  0.1011
 1050POPI   C4A15034   9.970  16.957   8.082  0.2467 -0.3417  0.1278
 1050POPI   C1B15035   9.832  17.499   6.812  0.1335  0.0347 -0.1591
 1050POPI   C2B15036   9.850  17.584   7.226 -0.2858  0.1793 -0.0799
 1050POPI   C3B15037   9.802  17.662   7.639  0.0472 -0.0418 -0.1537
 1050POPI   C4B15038   9.837  17.735   8.061  0.2318  0.1893  0.0958
 1051POPI    C115039   8.309  10.512   5.820  0.0006  0.0592  0.0477
 1051POPI    C215040   8.106  10.719   5.544  0.0692 -0.0963 -0.1214
 1051POPI    C315041   8.102  10.319   5.537  0.1918 -0.1007  0.0149
 1051POPI   PO415042   8.222  10.658   6.027 -0.1147 -0.2352  0.2989
 1051POPI   GL115043   8.030  10.698   6.380  0.0272  0.1052  0.1384
 1051POPI   GL215044   8.104  10.400   6.521  0.2733 -0.2283 -0.1788
 1051POPI   C1A15045   8.145  10.914   6.773 -0.1474  0.0802  0.0903
 1051POPI   D2A15046   8.086  10.803   7.215 -0.1661  0.1318 -0.0914
 1051POPI   C3A15047   8.123  11.193   7.557 -0.1299 -0.1075  0.0971
 1051POPI   C4A15048   8.081  11.280   7.820  0.0942  0.1457  0.2347
 1051POPI   C1B15049   7.845  10.328   6.977  0.2016 -0.3027  0.0664
 1051POPI   C2B15050   7.627  10.060   7.280 -0.1160 -0.2037 -0.0400
 1051POPI   C3B15051   7.525   9.747   7.570  0.1412 -0.4174  0.0689
 1051POPI   C4B15052   7.463   9.708   7.950  0.2061 -0.4053  0.2104
 1052POPI    C115053  11.121   0.611   5.633 -0.1232 -0.0734 -0.1544
 1052POPI    C215054  11.393   0.325   5.568 -0.1717 -0.0778 -0.3419
 1052POPI    C315055  11.464   0.700   5.449 -0.0331  0.0274  0.0598
 1052POPI   PO415056  11.055   0.658   5.850 -0.4270  0.3062  0.0632
 1052POPI   GL115057  11.085   0.622   6.219  0.0630  0.2354 -0.1578
 1052POPI   GL215058  11.299   0.352   6.375  0.0689  0.1360  0.2150
 1052POPI   C1A15059  10.917   0.610   6.645 -0.0366  0.0992 -0.0949
 1052POPI   D2A15060  10.644   0.822   6.888  0.1115 -0.2064 -0.0030
 1052POPI   C3A15061  10.728   0.877   7.404  0.0364  0.0399  0.2949
 1052POPI   C4A15062  10.665   0.736   7.875  0.0950  0.2676 -0.0626
 1052POPI   C1B15063  11.299   0.236   6.839 -0.3113 -0.1119  0.0172
 1052POPI   C2B15064  11.447  -0.008   7.222  0.2461 -0.4163  0.3032
 1052POPI   C3B15065  11.674   0.037   7.597  0.2051 -0.0051  0.1319
 1052POPI   C4B15066  12.027  -0.060   7.791  0.0708  0.1017  0.1817
 1053POPI    C115067   1.890  13.164   5.832  0.0777  0.1035 -0.0736
 1053POPI    C215068   2.253  13.137   5.666  0.0476  0.2983 -0.1733
 1053POPI    C315069   1.992  13.410   5.534 -0.2014  0.0400 -0.2250
 1053POPI   PO415070   1.956  13.203   6.055  0.2878 -0.1349 -0.0975
 1053POPI   GL115071   2.099  13.016   6.484 -0.0516  0.0045 -0.0792
 1053POPI   GL215072   2.126  13.358   6.533 -0.2928  0.2146  0.0522
 1053POPI   C1A15073   2.149  12.879   6.862 -0.0349  0.2002  0.0444
 1053POPI   D2A15074   2.230  12.839   7.292 -0.1444 -0.0820  0.2182
 1053POPI   C3A15075   2.502  12.844   7.569  0.2668 -0.1155  0.1422
 1053POPI   C4A15076   2.815  13.174   7.685 -0.1296  0.0192  0.2154
 1053POPI   C1B15077   2.207  13.402   6.959  0.1171  0.0585 -0.2331
 1053POPI   C2B15078   2.011  13.574   7.292 -0.1962 -0.0272  0.1098
 1053POPI   C3B15079   1.904  13.618   7.724 -0.0560  0.1336  0.0473
 1053POPI   C4B15080   1.953  13.444   8.073 -0.1542  0.1746 -0.0863
 1054POPI    C115081  10.243  14.251   5.873 -0.1961  0.1107 -0.1816
 1054POPI    C215082  10.245  13.964   5.595  0.1212 -0.0388 -0.0308
 1054POPI    C315083  10.446  14.304   5.532  0.0714 -0.0117 -0.0446
 1054POPI   PO415084  10.437  14.175   6.116 -0.0889  0.0250  0.0841
 1054POPI   GL115085  10.551  14.355   6.438 -0.0565 -0.0277 -0.0515
 1054POPI   GL215086  10.793  14.283   6.563 -0.1211 -0.3079 -0.5486
 1054POPI   C1A15087  10.458  14.554   6.840  0.1851 -0.1818  0.0273
 1054POPI   D2A15088  10.424  14.446   7.273  0.3243  0.3059  0.1329
 1054POPI   C3A15089   9.997  14.483   7.374  0.0021  0.2915  0.4206
 1054POPI   C4A15090   9.819  14.485   7.736  0.0860 -0.2055 -0.0466
 1054POPI   C1B15091  10.900  14.247   7.018 -0.0688  0.2443 -0.4606
 1054POPI   C2B15092  10.818  14.150   7.415 -0.1574  0.2089 -0.3280
 1054POPI   C3B15093  10.808  14.134   7.878  0.1739 -0.1417  0.1499
 1054POPI   C4B15094  11.072  14.327   8.305  0.1001  0.4856  0.1071
 1055POPI    C115095   9.684   6.577   6.022  0.1038  0.0356  0.2190
 1055POPI    C215096  10.040   6.759   6.010 -0.0685  0.3755  0.1339
 1055POPI    C315097   9.841   6.685   5.670  0.0392 -0.0607  0.1600
 1055POPI   PO415098   9.755   6.358   6.125 -0.1636 -0.0440  0.0209
 1055POPI   GL115099   9.481   6.215   6.480  0.1311 -0.1226  0.0218
 1055POPI   GL215100   9.396   6.530   6.450 -0.2792  0.1475  0.1967
 1055POPI   C1A15101   9.671   6.189   6.903 -0.1277 -0.2731  0.0629
 1055POPI   D2A15102   9.900   6.384   7.208  0.2225 -0.0631  0.0145
 1055POPI   C3A15103  10.026   6.644   7.612  0.3353 -0.1308 -0.2583
 1055POPI   C4A15104  10.102   6.469   8.016  0.0022  0.2070 -0.4195
 1055POPI   C1B15105   9.248   6.537   6.815 -0.2592  0.5063  0.0971
 1055POPI   C2B15106   9.357   6.372   7.253  0.2493  0.0559 -0.1162
 1055POPI   C3B15107   9.474   6.321   7.678 -0.1352  0.4577  0.1052
 1055POPI   C4B15108   9.833   6.070   7.891  0.1165 -0.2041  0.0763
 1056POPI    C115109   7.756   9.125   5.988  0.0271  0.0076 -0.0191
 1056POPI    C215110   7.911   8.923   5.680  0.0786 -0.1069  0.0813
 1056POPI    C315111   7.603   8.770   5.884  0.0223 -0.0153  0.0653
 1056POPI   PO415112   7.868   9.266   6.163 -0.1793 -0.0244  0.0336
 1056POPI   GL115113   7.979   9.431   6.569  0.1195 -0.1999 -0.0548
 1056POPI   GL215114   7.962   9.940   6.615  0.0823  0.0532  0.1637
 1056POPI   C1A15115   8.116   9.284   6.940  0.2854 -0.3899 -0.0814
 1056POPI   D2A15116   8.477   9.096   7.040  0.1537  0.2518 -0.1779
 1056POPI   C3A15117   8.690   8.926   7.452 -0.0897  0.0964 -0.1429
 1056POPI   C4A15118   8.580   8.956   7.809 -0.0030  0.1500  0.2036
 1056POPI   C1B15119   8.087   9.868   7.040  0.0532 -0.0880  0.2570
 1056POPI   C2B15120   8.197  10.104   7.311  0.0578  0.3311 -0.0825
 1056POPI   C3B15121   8.202  10.315   7.763  0.2502 -0.1552 -0.2340
 1056POPI   C4B15122   8.339  10.375   8.166 -0.2466  0.2956 -0.3052
 1057POPI    C115123   3.452  17.237   6.028  0.3705 -0.0551  0.3183
 1057POPI    C215124   3.691  17.495   5.838 -0.0022  0.2411  0.2390
 1057POPI    C315125   3.380  17.333   5.647  0.0547 -0.0407  0.3790
 1057POPI   PO415126   3.362  17.247   6.369  0.0998 -0.1201  0.1601
 1057POPI   GL115127   3.668  17.069   6.693  0.2399 -0.2080  0.2902
 1057POPI   GL215128   3.740  17.276   6.781 -0.0668 -0.1295 -0.1523
 1057POPI   C1A15129   3.601  16.810   6.947  0.2788 -0.1489 -0.0928
 1057POPI   D2A15130   3.665  16.907   7.444 -0.2672 -0.5350  0.0512
 1057POPI   C3A15131   4.104  17.047   7.498  0.0571  0.0124 -0.0662
 1057POPI   C4A15132   4.474  16.788   7.534 -0.2177 -0.4640  0.1710
 1057POPI   C1B15133   3.548  17.347   7.126  0.1223  0.0138 -0.2908
 1057POPI   C2B15134   3.482  17.431   7.503 -0.0869  0.0274  0.0425
 1057POPI   C3B15135   3.417  17.509   7.964  0.2691 -0.0475 -0.2289
 1057POPI   C4B15136   3.478  17.867   8.173 -0.0257 -0.2267 -0.0539
 1058POPI    C115137   2.110   9.124   5.941 -0.0029  0.1747  0.0202
 1058POPI    C215138   2.367   8.904   5.728 -0.2348 -0.2316  0.1496
 1058POPI    C315139   2.044   9.062   5.552 -0.0113  0.1054  0.0326
 1058POPI   PO415140   2.075   8.998   6.160 -0.0739  0.0138  0.0169
 1058POPI   GL115141   1.753   8.923   6.423 -0.3465 -0.1464 -0.1118
 1058POPI   GL215142   1.422   8.776   6.301 -0.0848  0.0386  0.1803
 1058POPI   C1A15143   2.046   8.955   6.839 -0.2683  0.1080  0.0014
 1058POPI   D2A15144   1.974   8.972   7.284  0.1371  0.4678 -0.0971
 1058POPI   C3A15145   2.134   9.002   7.679 -0.0950 -0.1721 -0.0576
 1058POPI   C4A15146   2.151   9.369   7.874 -0.2395  0.1443 -0.0658
 1058POPI   C1B15147   1.303   8.832   6.698  0.0615 -0.0922 -0.0637
 1058POPI   C2B15148   1.040   8.856   7.036 -0.0380 -0.3094  0.0746
 1058POPI   C3B15149   0.775   8.789   7.461  0.1588  0.2030 -0.1933
 1058POPI   C4B15150   0.755   8.948   7.812 -0.2086  0.0953 -0.0142
 1059POPI    C115151   4.129   2.555   6.022  0.0205 -0.0338  0.1091
 1059POPI    C215152   4.478   2.484   5.839  0.0129 -0.0800  0.1124
 1059POPI    C315153   4.191   2.687   5.649  0.0627  0.0081  0.1308
 1059POPI   PO415154   4.088   2.329   6.145 -0.2239 -0.1738 -0.2848
 1059POPI   GL115155   4.125   2.379   6.556 -0.0794 -0.0823 -0.1646
 1059POPI   GL215156   3.893   2.412   6.702  0.2651  0.0614 -0.1145
 1059POPI   C1A15157   4.360   2.485   6.922  0.0369 -0.2756  0.0936
 1059POPI   D2A15158   4.442   2.314   7.359 -0.0787 -0.1422  0.0331
 1059POPI   C3A15159   4.463   1.904   7.416 -0.2149  0.0748  0.0530
 1059POPI   C4A15160   4.577   1.548   7.635 -0.0066  0.2355  0.0749
 1059POPI   C1B15161   3.602   2.331   7.080  0.0212 -0.0964 -0.2501
 1059POPI   C2B15162   3.417   2.298   7.437  0.0282 -0.0711  0.1208
 1059POPI   C3B15163   3.344   2.467   7.911  0.2702 -0.1128 -0.1023
 1059POPI   C4B15164   3.549   2.627   8.314  0.2503  0.1610  0.0545
 1060POPI    C115165   2.980   4.215   5.723 -0.0017 -0.0639 -0.0341
 1060POPI    C215166   3.263   4.313   5.458  0.0132 -0.0015  0.0047
 1060POPI    C315167   2.995   4.030   5.369  0.1883 -0.1783  0.0322
 1060POPI   PO415168   2.884   4.482   5.753 -0.2279 -0.0952 -0.0003
 1060POPI   GL115169   2.690   4.520   6.178 -0.1080  0.0411  0.0077
 1060POPI   GL215170   2.604   4.194   6.053 -0.0068  0.2628 -0.0983
 1060POPI   C1A15171   3.021   4.413   6.589 -0.0962  0.1496  0.0921
 1060POPI   D2A15172   3.135   4.031   6.723 -0.0644  0.0830  0.0603
 1060POPI   C3A15173   3.101   4.019   7.190  0.1732  0.2979  0.0651
 1060POPI   C4A15174   2.994   3.947   7.593  0.0409 -0.1892  0.2224
 1060POPI   C1B15175   2.553   4.212   6.528  0.0831 -0.0811  0.2747
 1060POPI   C2B15176   2.632   4.242   6.886  0.2170 -0.0980 -0.3504
 1060POPI   C3B15177   2.589   4.189   7.362  0.0412  0.2225 -0.2224
 1060POPI   C4B15178   2.518   4.196   7.770  0.2026 -0.1335  0.4033
 1061POPI    C115179   2.756   9.566   6.104  0.0539 -0.0180 -0.1920
 1061POPI    C215180   2.620   9.191   6.081 -0.0483  0.0023  0.0491
 1061POPI    C315181   2.598   9.431   5.762  0.0206 -0.1961 -0.1075
 1061POPI   PO415182   2.625   9.774   6.269 -0.0530  0.1789  0.1297
 1061POPI   GL115183   2.447   9.595   6.586 -0.0766 -0.1787 -0.2191
 1061POPI   GL215184   2.348   9.229   6.494 -0.2829  0.2519  0.0023
 1061POPI   C1A15185   2.292   9.446   6.927  0.0679  0.2057  0.1230
 1061POPI   D2A15186   2.293   9.406   7.374  0.1120 -0.1748  0.1160
 1061POPI   C3A15187   2.646   9.235   7.452  0.0868 -0.0913 -0.2914
 1061POPI   C4A15188   2.756   8.746   7.686 -0.0495 -0.0151  0.3066
 1061POPI   C1B15189   2.539   8.992   6.786 -0.2990 -0.4019 -0.0307
 1061POPI   C2B15190   2.419   8.839   7.201  0.0387  0.0693  0.0699
 1061POPI   C3B15191   2.285   8.517   7.516  0.5850  0.0409 -0.2240
 1061POPI   C4B15192   1.978   8.558   7.873 -0.0761  0.0580 -0.4366
 1062POPI    C115193   7.640  10.600   5.772  0.3777  0.1679  0.1243
 1062POPI    C215194   7.305  10.815   5.739  0.2594 -0.0178  0.1028
 1062POPI    C315195   7.632  10.923   5.536  0.1628  0.0673 -0.0090
 1062POPI   PO415196   7.656  10.535   6.007 -0.0343 -0.1063  0.0294
 1062POPI   GL115197   7.582  10.305   6.458 -0.1629 -0.1501  0.3378
 1062POPI   GL215198   7.425  10.070   6.469 -0.2218  0.1600 -0.0532
 1062POPI   C1A15199   7.601  10.732   6.682 -0.0106 -0.1960 -0.3017
 1062POPI   D2A15200   7.563  11.093   6.867  0.0870  0.1899  0.1363
 1062POPI   C3A15201   7.683  11.137   7.269  0.1400  0.4149 -0.0301
 1062POPI   C4A15202   7.626  11.075   7.667  0.0658  0.1228  0.1433
 1062POPI   C1B15203   7.469   9.834   6.800 -0.2645  0.0999  0.1333
 1062POPI   C2B15204   7.693   9.608   7.078  0.2566  0.1033 -0.0190
 1062POPI   C3B15205   7.920   9.527   7.348  0.1645 -0.0680 -0.0666
 1062POPI   C4B15206   7.999   9.778   7.726 -0.0063 -0.0699  0.0822
 1063POPI    C115207  17.198  13.820   5.275  0.2295  0.0479  0.1721
 1063POPI    C215208  17.072  13.473   5.122 -0.1206  0.1083  0.3118
 1063POPI    C315209  17.428  13.494   5.303  0.1616 -0.0374 -0.2031
 1063POPI   PO415210  16.958  13.881   5.434 -0.2666 -0.2874 -0.0274
 1063POPI   GL115211  16.774  13.956   5.818 -0.0206  0.3445 -0.1459
 1063POPI   GL215212  16.733  14.290   5.626  0.5600  0.2098  0.0101
 1063POPI   C1A15213  16.806  14.032   6.284  0.1961 -0.0980 -0.1679
 1063POPI   D2A15214  16.947  13.918   6.659  0.5311  0.1280  0.1158
 1063POPI   C3A15215  17.280  14.063   6.912 -0.0533  0.2562 -0.4815
 1063POPI   C4A15216  17.719  14.231   6.926 -0.0051  0.3089 -0.2528
 1063POPI   C1B15217  16.634  14.522   5.978 -0.0946 -0.0446 -0.0712
 1063POPI   C2B15218  16.686  14.627   6.392 -0.1782  0.0366  0.0978
 1063POPI   C3B15219  16.947  14.882   6.749 -0.1362  0.1497 -0.1231
 1063POPI   C4B15220  17.025  14.921   7.098 -0.2591 -0.2041  0.1089
 1064POPI    C115221   2.872   2.299   5.505 -0.0701 -0.0521 -0.0582
 1064POPI    C215222   2.564   2.254   5.253 -0.0408 -0.0130 -0.1012
 1064POPI    C315223   2.776   2.593   5.252  0.1714 -0.1437 -0.2606
 1064POPI   PO415224   2.862   2.344   5.807  0.0218  0.0549  0.1652
 1064POPI   GL115225   3.048   2.356   6.150 -0.2634 -0.2758 -0.1132
 1064POPI   GL215226   3.032   2.587   6.353 -0.1171  0.0770 -0.0641
 1064POPI   C1A15227   2.946   2.178   6.569 -0.1122 -0.2788  0.0842
 1064POPI   D2A15228   2.779   2.025   6.907  0.1163 -0.1230 -0.0100
 1064POPI   C3A15229   2.934   2.294   7.198  0.1541  0.4067 -0.0786
 1064POPI   C4A15230   2.889   2.546   7.481 -0.0168 -0.0518  0.0802
 1064POPI   C1B15231   3.193   2.564   6.843  0.0543  0.1012 -0.0298
 1064POPI   C2B15232   3.328   2.705   7.219  0.2832 -0.3330 -0.0199
 1064POPI   C3B15233   3.310   2.939   7.565 -0.0438  0.1154 -0.1440
 1064POPI   C4B15234   3.320   2.985   7.988  0.3393  0.0311  0.3744
 1065POPI    C115235  15.130   6.286   5.803 -0.0052  0.0481  0.1845
 1065POPI    C215236  15.019   6.165   5.439  0.1354 -0.1444  0.2041
 1065POPI    C315237  14.789   6.420   5.644 -0.0291 -0.1674  0.0504
 1065POPI   PO415238  15.442   6.298   5.769 -0.1907  0.1695 -0.0637
 1065POPI   GL115239  15.685   6.227   6.124 -0.0693  0.1110 -0.0468
 1065POPI   GL215240  15.768   6.482   6.078  0.1586 -0.1654 -0.1164
 1065POPI   C1A15241  15.585   5.992   6.499  0.1218  0.0547  0.1050
 1065POPI   D2A15242  15.597   5.746   6.843 -0.0793 -0.0361  0.2673
 1065POPI   C3A15243  15.575   5.713   7.159  0.0267 -0.0495 -0.0935
 1065POPI   C4A15244  15.698   5.717   7.595  0.3119  0.0769  0.0465
 1065POPI   C1B15245  15.864   6.514   6.511  0.2446  0.0665  0.2917
 1065POPI   C2B15246  15.950   6.609   6.888  0.2363  0.0754  0.0611
 1065POPI   C3B15247  15.909   6.558   7.316  0.4465  0.0667 -0.2038
 1065POPI   C4B15248  16.095   6.633   7.734  0.2775 -0.1758 -0.0210
 1066POPI    C115249   0.220   1.559   5.850 -0.1107 -0.0882 -0.1613
 1066POPI    C215250   0.365   1.236   5.664 -0.0361 -0.1898  0.0698
 1066POPI    C315251   0.004   1.378   5.567 -0.0067 -0.2533 -0.1360
 1066POPI   PO415252   0.342   1.574   6.061 -0.0129 -0.0531 -0.2718
 1066POPI   GL115253   0.477   1.553   6.491 -0.0562 -0.0893 -0.3648
 1066POPI   GL215254   0.161   1.384   6.496 -0.0126  0.2076  0.0745
 1066POPI   C1A15255   0.304   1.496   7.012  0.0504  0.0812 -0.2763
 1066POPI   D2A15256   0.126   1.382   7.359 -0.1854  0.0634 -0.1460
 1066POPI   C3A15257   0.214   1.112   7.715  0.1519 -0.1715  0.0077
 1066POPI   C4A15258   0.238   1.042   8.139 -0.0673  0.3850  0.1847
 1066POPI   C1B15259   0.167   0.990   6.815  0.2872  0.1006  0.1814
 1066POPI   C2B15260   0.047   0.908   7.252 -0.1389  0.1229 -0.0927
 1066POPI   C3B15261   0.019   0.694   7.569  0.2063 -0.1859  0.1952
 1066POPI   C4B15262  -0.215   0.785   7.963 -0.0575  0.0643 -0.2171
 1067POPI    C115263  12.334  13.233   5.624  0.1713  0.1139 -0.1326
 1067POPI    C215264  12.163  13.103   5.286 -0.0725  0.2467 -0.0633
 1067POPI    C315265  11.955  13.103   5.628  0.2026  0.0251  0.1090
 1067POPI   PO415266  12.384  13.495   5.689 -0.0636  0.1902  0.0539
 1067POPI   GL115267  12.439  13.699   6.058 -0.3898 -0.0265  0.1874
 1067POPI   GL215268  12.827  13.527   6.173 -0.1201  0.1367  0.0235
 1067POPI   C1A15269  12.425  13.482   6.450 -0.2306 -0.0005 -0.1081
 1067POPI   D2A15270  12.286  13.560   6.856 -0.1729  0.3409  0.1421
 1067POPI   C3A15271  12.347  13.561   7.237 -0.1199  0.3617 -0.1056
 1067POPI   C4A15272  12.365  13.700   7.692 -0.3163  0.1716  0.0692
 1067POPI   C1B15273  12.877  13.724   6.545 -0.3222 -0.0506  0.2574
 1067POPI   C2B15274  12.817  13.743   6.918  0.4839 -0.0735 -0.2392
 1067POPI   C3B15275  12.786  13.879   7.189  0.2026 -0.0628 -0.0875
 1067POPI   C4B15276  12.881  13.937   7.644 -0.1109  0.3529 -0.0173
 1068POPI    C115277  16.519   0.869   5.343 -0.4415  0.0680  0.0187
 1068POPI    C215278  16.598   1.248   5.240  0.0544 -0.0220  0.0455
 1068POPI    C315279  16.762   0.946   5.035 -0.2240 -0.2231  0.1129
 1068POPI   PO415280  16.364   0.909   5.557 -0.2720 -0.2865 -0.1591
 1068POPI   GL115281  16.240   0.823   5.936 -0.0041 -0.1466 -0.1146
 1068POPI   GL215282  16.216   1.099   6.080 -0.0754 -0.3606 -0.1182
 1068POPI   C1A15283  16.268   0.581   6.224  0.4265  0.1767  0.2473
 1068POPI   D2A15284  16.199   0.501   6.713  0.2856  0.0025  0.1938
 1068POPI   C3A15285  16.164   0.755   7.176 -0.0519 -0.0993 -0.0148
 1068POPI   C4A15286  16.202   0.909   7.530  0.0682  0.0861  0.1188
 1068POPI   C1B15287  16.049   0.953   6.520 -0.1649  0.1167  0.1662
 1068POPI   C2B15288  16.323   1.145   6.898 -0.1476 -0.1032  0.0573
 1068POPI   C3B15289  16.522   1.145   7.281 -0.0939  0.2602  0.0709
 1068POPI   C4B15290  16.580   1.264   7.745  0.2008 -0.4121 -0.1220
 1069POPI    C115291   7.485  14.497   6.187  0.0775  0.0314 -0.1671
 1069POPI    C215292   7.250  14.795   6.060  0.0010  0.0234 -0.0460
 1069POPI    C315293   7.584  14.703   5.859  0.0545  0.2273 -0.0523
 1069POPI   PO415294   7.413  14.514   6.430  0.0691  0.3044  0.4135
 1069POPI   GL115295   7.563  14.468   6.765 -0.2191  0.1143  0.0891
 1069POPI   GL215296   7.778  14.790   6.824  0.2293 -0.2316 -0.1004
 1069POPI   C1A15297   7.501  14.488   7.290  0.1555 -0.2195 -0.2822
 1069POPI   D2A15298   7.342  14.514   7.676 -0.1948  0.0122 -0.0168
 1069POPI   C3A15299   7.304  14.441   8.088 -0.2001  0.0182 -0.0444
 1069POPI   C4A15300   7.494  14.618   8.437  0.0201  0.1671  0.0828
 1069POPI   C1B15301   7.969  14.740   7.264  0.1912  0.0858  0.4509
 1069POPI   C2B15302   7.999  14.864   7.694 -0.1767 -0.1800 -0.2344
 1069POPI   C3B15303   7.981  15.224   8.088  0.0144 -0.3278  0.1323
 1069POPI   C4B15304   7.965  15.563   8.470 -0.2473  0.2287 -0.0847
 1070POPI    C115305   0.830  16.078   5.264 -0.2034 -0.2884  0.0617
 1070POPI    C215306   0.920  16.031   5.650  0.0166  0.0249  0.0521
 1070POPI    C315307   1.103  15.807   5.374 -0.1046 -0.1648  0.1234
 1070POPI   PO415308   0.560  16.029   5.238 -0.0584 -0.1993 -0.2251
 1070POPI   GL115309   0.343  15.932   5.638 -0.1115  0.1844  0.1708
 1070POPI   GL215310   0.057  15.907   5.490  0.1028 -0.3182  0.4436
 1070POPI   C1A15311   0.462  15.927   6.116 -0.0202 -0.2020 -0.1736
 1070POPI   D2A15312   0.403  16.137   6.352  0.2925 -0.3905 -0.0002
 1070POPI   C3A15313   0.612  16.309   6.658 -0.1696  0.0828 -0.0625
 1070POPI   C4A15314   0.621  16.744   6.622 -0.2026 -0.1780  0.1873
 1070POPI   C1B15315  -0.020  16.184   5.831 -0.0917  0.0419  0.0632
 1070POPI   C2B15316   0.112  16.394   6.046 -0.3680 -0.0672 -0.1795
 1070POPI   C3B15317   0.588  16.560   6.209 -0.1031 -0.0116  0.0284
 1070POPI   C4B15318   0.954  16.786   6.203 -0.1873 -0.3112  0.0300
 1071POPI    C115319   9.782   4.350   6.083 -0.2874 -0.2031  0.2678
 1071POPI    C215320   9.395   4.320   6.181 -0.3217 -0.0401  0.1865
 1071POPI    C315321   9.562   4.049   5.939 -0.4643  0.0633 -0.0298
 1071POPI   PO415322   9.952   4.416   6.345  0.0134  0.0403  0.1909
 1071POPI   GL115323   9.988   4.256   6.750  0.1621 -0.1468  0.2616
 1071POPI   GL215324  10.086   4.605   6.792  0.1272 -0.0195  0.1422
 1071POPI   C1A15325  10.153   4.232   7.190  0.0435 -0.0226 -0.2879
 1071POPI   D2A15326  10.136   4.168   7.633 -0.0919 -0.0647 -0.1457
 1071POPI   C3A15327  10.452   4.302   7.918  0.2342  0.1244  0.2223
 1071POPI   C4A15328  10.380   4.462   8.390  0.2639  0.0350  0.1825
 1071POPI   C1B15329  10.102   4.766   7.202 -0.2099  0.2091 -0.0893
 1071POPI   C2B15330  10.090   4.680   7.604  0.0237 -0.0745 -0.3322
 1071POPI   C3B15331   9.948   4.626   8.059  0.1078 -0.1993  0.2734
 1071POPI   C4B15332   9.831   4.313   8.396  0.0584  0.2153 -0.0820
 1072POPI    C115333  14.721   7.255   5.631  0.1752 -0.1175 -0.1686
 1072POPI    C215334  14.999   7.543   5.620  0.0401  0.0212 -0.0158
 1072POPI    C315335  14.731   7.510   5.324  0.0315  0.0772 -0.0143
 1072POPI   PO415336  14.668   7.327   5.869  0.1881 -0.0656 -0.1390
 1072POPI   GL115337  14.986   7.508   6.186  0.0564  0.1626 -0.2344
 1072POPI   GL215338  15.091   7.528   6.467 -0.2580  0.0757 -0.2338
 1072POPI   C1A15339  14.689   7.786   6.498  0.0062 -0.0133 -0.3786
 1072POPI   D2A15340  14.466   7.629   6.802 -0.2338 -0.1311  0.1039
 1072POPI   C3A15341  14.552   7.708   7.237 -0.1912 -0.1639  0.1569
 1072POPI   C4A15342  14.889   7.969   7.240 -0.2579 -0.2031 -0.4260
 1072POPI   C1B15343  14.994   7.549   6.855 -0.0103  0.0127 -0.1439
 1072POPI   C2B15344  15.052   7.537   7.321 -0.1651  0.2608 -0.0075
 1072POPI   C3B15345  15.129   7.466   7.733  0.2158  0.2572 -0.1145
 1072POPI   C4B15346  15.068   7.595   8.188  0.2349 -0.0536  0.3531
 1073POPI    C115347  11.687   7.664   5.627  0.0048 -0.2613 -0.0798
 1073POPI    C215348  12.046   7.497   5.569  0.1509  0.0008  0.0489
 1073POPI    C315349  11.847   7.655   5.260  0.0037 -0.4171 -0.0770
 1073POPI   PO415350  11.601   7.407   5.875  0.0115  0.4324 -0.0373
 1073POPI   GL115351  11.951   7.306   6.264  0.5213  0.0699 -0.0113
 1073POPI   GL215352  12.228   7.413   6.348 -0.2100  0.0774  0.0602
 1073POPI   C1A15353  11.824   7.216   6.631  0.0089 -0.2032  0.0850
 1073POPI   D2A15354  12.123   7.231   6.978  0.2362 -0.1789  0.2992
 1073POPI   C3A15355  11.946   7.376   7.375  0.1364  0.1329 -0.1512
 1073POPI   C4A15356  11.908   7.645   7.738 -0.0183  0.3945 -0.0577
 1073POPI   C1B15357  12.437   7.540   6.761 -0.1188 -0.2123  0.0654
 1073POPI   C2B15358  12.521   7.635   7.114 -0.3624  0.0728 -0.0511
 1073POPI   C3B15359  12.355   7.602   7.522 -0.0113 -0.1846  0.1122
 1073POPI   C4B15360  12.445   7.632   7.956  0.0098 -0.2844 -0.0592
 1074POPI    C115361  11.453  11.055   5.683 -0.0865  0.2412 -0.0707
 1074POPI    C215362  11.283  11.345   5.466 -0.2085  0.0774 -0.1973
 1074POPI    C315363  11.676  11.275   5.435 -0.1009  0.4934  0.1367
 1074POPI   PO415364  11.419  10.974   5.948 -0.0928 -0.1568 -0.2418
 1074POPI   GL115365  11.717  10.657   6.104 -0.1275  0.2292  0.2165
 1074POPI   GL215366  11.526  10.555   6.235 -0.1437  0.0203 -0.4234
 1074POPI   C1A15367  11.947  10.853   6.481 -0.0201  0.2724 -0.2768
 1074POPI   D2A15368  11.796  11.043   6.802 -0.0645  0.3799  0.1055
 1074POPI   C3A15369  11.991  11.065   7.165 -0.2762  0.1709 -0.0170
 1074POPI   C4A15370  12.087  11.413   7.365  0.1703 -0.3406 -0.0674
 1074POPI   C1B15371  11.263  10.627   6.669 -0.1856  0.1309  0.1224
 1074POPI   C2B15372  11.142  10.578   7.061  0.2375  0.2640  0.0778
 1074POPI   C3B15373  11.178  10.574   7.504  0.2406 -0.0046 -0.0379
 1074POPI   C4B15374  11.235  10.735   7.874 -0.1801  0.2390  0.0709
 1075POPI    C115375  16.228   9.590   5.286  0.0436  0.1125  0.0047
 1075POPI    C215376  16.237   9.833   4.968 -0.1261  0.1793  0.0499
 1075POPI    C315377  15.972   9.535   4.984  0.1416 -0.0689 -0.0467
 1075POPI   PO415378  16.465   9.518   5.409 -0.2119  0.2361  0.0463
 1075POPI   GL115379  16.529   9.836   5.751 -0.2513  0.1316  0.0543
 1075POPI   GL215380  16.407   9.642   5.987 -0.0974 -0.0841  0.0621
 1075POPI   C1A15381  16.578  10.095   6.111 -0.0237  0.2898 -0.0583
 1075POPI   D2A15382  16.616  10.253   6.440  0.0725  0.0896  0.2974
 1075POPI   C3A15383  16.956  10.120   6.665  0.1352 -0.2712 -0.0269
 1075POPI   C4A15384  17.042  10.238   7.120 -0.2387 -0.1424  0.1282
 1075POPI   C1B15385  16.712   9.743   6.423 -0.1586 -0.3756  0.1950
 1075POPI   C2B15386  16.636   9.785   6.778  0.2037  0.0523 -0.3348
 1075POPI   C3B15387  16.650   9.916   7.121  0.0433  0.2557  0.2158
 1075POPI   C4B15388  16.769  10.114   7.540  0.0076  0.0828 -0.0308
 1076POPI    C115389   8.883  14.973   6.191  0.0081  0.0261  0.0960
 1076POPI    C215390   8.557  15.075   6.399  0.0159  0.0567  0.0935
 1076POPI    C315391   8.560  15.113   6.001  0.0235  0.0587  0.0937
 1076POPI   PO415392   8.964  14.691   6.295  0.0178 -0.1271  0.2329
 1076POPI   GL115393   9.306  14.583   6.660  0.0716 -0.0916 -0.3301
 1076POPI   GL215394   9.145  14.447   6.798 -0.0383 -0.0486  0.1159
 1076POPI   C1A15395   9.169  14.953   6.900 -0.2399 -0.0035 -0.0504
 1076POPI   D2A15396   9.233  15.072   7.317  0.0538  0.1283 -0.1544
 1076POPI   C3A15397   9.204  15.173   7.717 -0.0755 -0.0930  0.3468
 1076POPI   C4A15398   9.428  15.185   7.996 -0.2139  0.0329 -0.1075
 1076POPI   C1B15399   9.079  14.264   7.148 -0.2996  0.3316 -0.2655
 1076POPI   C2B15400   8.757  14.196   7.440  0.0847  0.0936 -0.0248
 1076POPI   C3B15401   8.686  13.999   7.710  0.1288 -0.0196 -0.1060
 1076POPI   C4B15402   8.516  13.998   8.093  0.0050  0.0335 -0.1285
 1077POPI    C115403  13.096  13.099   5.544  0.1024  0.0570  0.2068
 1077POPI    C215404  12.814  13.165   5.819  0.1800  0.2019  0.2527
 1077POPI    C315405  12.814  13.374   5.479 -0.1662 -0.2704 -0.0500
 1077POPI   PO415406  13.304  13.114   5.672 -0.1613  0.0534  0.0296
 1077POPI   GL115407  13.598  13.351   5.933  0.2178 -0.0857 -0.1810
 1077POPI   GL215408  13.315  13.306   6.149  0.0146  0.3342 -0.1446
 1077POPI   C1A15409  13.773  13.301   6.371 -0.0446 -0.0531 -0.1898
 1077POPI   D2A15410  13.841  13.437   6.802 -0.1317  0.1451 -0.3083
 1077POPI   C3A15411  13.639  13.275   7.237 -0.2645 -0.3118 -0.2003
 1077POPI   C4A15412  13.329  13.107   7.439  0.0262 -0.1126 -0.3148
 1077POPI   C1B15413  13.301  13.367   6.513 -0.2681 -0.2370  0.1009
 1077POPI   C2B15414  13.272  13.472   6.946  0.2994 -0.0789  0.0386
 1077POPI   C3B15415  13.288  13.603   7.312  0.0780  0.0057 -0.2537
 1077POPI   C4B15416  13.574  13.598   7.637  0.1100  0.0635 -0.3979
 1078POPI    C115417  16.353   8.531   5.870 -0.1167 -0.2263  0.0628
 1078POPI    C215418  16.211   8.671   5.523  0.0319 -0.1310  0.0397
 1078POPI    C315419  16.111   8.303   5.646 -0.1985 -0.0821  0.0032
 1078POPI   PO415420  16.318   8.773   6.062  0.2043  0.1020 -0.0604
 1078POPI   GL115421  16.157   8.998   6.355 -0.2853 -0.2159  0.0790
 1078POPI   GL215422  16.127   9.274   6.216  0.1230 -0.2024 -0.2527
 1078POPI   C1A15423  16.291   9.131   6.775  0.3952 -0.0657 -0.0698
 1078POPI   D2A15424  16.347   9.304   7.177 -0.1024  0.1702 -0.2252
 1078POPI   C3A15425  16.317   9.204   7.564  0.1364  0.0635  0.0806
 1078POPI   C4A15426  16.241   9.040   7.984 -0.0033  0.0774 -0.0592
 1078POPI   C1B15427  16.248   9.565   6.410  0.1341  0.0566  0.4036
 1078POPI   C2B15428  16.163   9.729   6.804  0.0426 -0.2341 -0.0209
 1078POPI   C3B15429  16.114   9.794   7.167 -0.2044 -0.1147 -0.0097
 1078POPI   C4B15430  16.336   9.714   7.531 -0.2304 -0.1699 -0.0992
 1079POPI    C115431   1.204   0.191   5.589  0.0528 -0.1579  0.1805
 1079POPI    C215432   1.483  -0.037   5.415  0.0002  0.0015 -0.1213
 1079POPI    C315433   1.521   0.361   5.413 -0.1807  0.0198 -0.0781
 1079POPI   PO415434   0.990  -0.027   5.797 -0.1549 -0.2689  0.2718
 1079POPI   GL115435   0.817   0.190   6.088  0.0576  0.0704  0.2261
 1079POPI   GL215436   1.035   0.308   6.193 -0.0887  0.1714 -0.0844
 1079POPI   C1A15437   0.591   0.052   6.385 -0.1301  0.0253  0.0968
 1079POPI   D2A15438   0.610  -0.017   6.755  0.0032  0.0796 -0.3462
 1079POPI   C3A15439   0.486   0.005   7.211 -0.0948  0.1454 -0.2094
 1079POPI   C4A15440   0.774   0.075   7.420  0.3371 -0.2169 -0.4396
 1079POPI   C1B15441   1.077   0.015   6.580 -0.0750  0.0131 -0.1724
 1079POPI   C2B15442   1.041  -0.065   7.035 -0.1569  0.0336  0.2288
 1079POPI   C3B15443   1.248  -0.423   7.159  0.2477  0.1561 -0.0848
 1079POPI   C4B15444   1.376  -0.818   7.060 -0.2518  0.0436 -0.0384
 1080POPI    C115445  10.221   9.121   6.078 -0.1965  0.0067  0.0784
 1080POPI    C215446  10.001   8.801   5.981 -0.1230 -0.0360  0.0515
 1080POPI    C315447  10.005   9.121   5.742 -0.0868 -0.0695  0.0069
 1080POPI   PO415448  10.292   9.083   6.383  0.1170 -0.1110  0.1777
 1080POPI   GL115449  10.009   9.083   6.684  0.2679  0.1158 -0.1024
 1080POPI   GL215450   9.623   8.897   6.645 -0.0425 -0.1229 -0.0591
 1080POPI   C1A15451  10.032   9.151   7.132 -0.0080  0.1786  0.0065
 1080POPI   D2A15452  10.143   9.222   7.558 -0.1834  0.1265 -0.0143
 1080POPI   C3A15453  10.231   8.930   7.905 -0.2729 -0.0213 -0.0192
 1080POPI   C4A15454  10.211   8.630   8.204  0.0942 -0.0149 -0.0165
 1080POPI   C1B15455   9.728   8.740   7.063 -0.1278 -0.1320  0.0489
 1080POPI   C2B15456   9.751   8.793   7.412 -0.3108  0.2002  0.2235
 1080POPI   C3B15457   9.661   8.708   7.873 -0.1379  0.1537 -0.2065
 1080POPI   C4B15458   9.763   8.544   8.263 -0.0788 -0.2925 -0.2599
 1081POPI    C115459   2.014   6.588   6.058  0.2279 -0.1328 -0.0538
 1081POPI    C215460   1.665   6.408   5.982  0.2584 -0.3077  0.2063
 1081POPI    C315461   1.965   6.383   5.718  0.0677 -0.1336 -0.0307
 1081POPI   PO415462   1.929   6.779   6.281 -0.0899 -0.0049  0.2064
 1081POPI   GL115463   1.976   6.779   6.616  0.2629 -0.1080 -0.1896
 1081POPI   GL215464   2.195   6.904   6.756 -0.1213 -0.3166 -0.1697
 1081POPI   C1A15465   1.800   6.638   6.949 -0.1457 -0.1369 -0.0205
 1081POPI   D2A15466   1.859   6.444   7.226  0.0205 -0.1734 -0.1958
 1081POPI   C3A15467   2.245   6.292   7.459  0.0561 -0.0568  0.0574
 1081POPI   C4A15468   2.495   6.164   7.790  0.1673 -0.1718 -0.3310
 1081POPI   C1B15469   2.284   6.867   7.227 -0.1014 -0.1079 -0.3031
 1081POPI   C2B15470   2.270   6.731   7.629 -0.1699 -0.1630 -0.2810
 1081POPI   C3B15471   2.122   7.001   7.971  0.0895  0.1442  0.1885
 1081POPI   C4B15472   1.919   7.365   8.255  0.1675 -0.1988  0.1550
 1082POPI    C115473   0.037   2.824   5.999  0.0071 -0.0667  0.0234
 1082POPI    C215474   0.083   3.136   5.753 -0.0257 -0.1258 -0.0580
 1082POPI    C315475   0.289   2.799   5.690  0.1909 -0.0391  0.1691
 1082POPI   PO415476  -0.219   2.795   6.016  0.0936 -0.0892  0.0466
 1082POPI   GL115477  -0.592   2.716   6.172  0.1121  0.2970  0.0174
 1082POPI   GL215478  -0.707   2.353   6.337 -0.0481  0.1406 -0.0469
 1082POPI   C1A15479  -0.770   2.926   6.548  0.2448 -0.4541  0.1609
 1082POPI   D2A15480  -0.856   2.938   7.069  0.0311  0.1101 -0.0280
 1082POPI   C3A15481  -1.131   3.103   7.258  0.3862 -0.2059 -0.3424
 1082POPI   C4A15482  -1.330   3.132   7.649  0.0512 -0.2203 -0.0282
 1082POPI   C1B15483  -0.816   2.126   6.686  0.2358 -0.2013  0.3330
 1082POPI   C2B15484  -0.837   2.410   7.061 -0.0453 -0.2908 -0.0900
 1082POPI   C3B15485  -1.012   2.513   7.433 -0.1457  0.0290  0.1294
 1082POPI   C4B15486  -1.114   2.712   7.730  0.2824  0.1683 -0.2583
 1083POPI    C115487   8.108  11.218   5.706  0.1414  0.2266 -0.0174
 1083POPI    C215488   7.981  11.247   5.328 -0.0245 -0.1181  0.0080
 1083POPI    C315489   8.372  11.259   5.409  0.0092  0.0108 -0.1675
 1083POPI   PO415490   7.944  11.412   5.799 -0.1513 -0.1521 -0.1348
 1083POPI   GL115491   7.867  11.531   6.185  0.0767  0.1470  0.1822
 1083POPI   GL215492   7.567  11.344   6.344  0.0440  0.1224  0.0059
 1083POPI   C1A15493   7.942  11.410   6.667  0.2009  0.2251 -0.0881
 1083POPI   D2A15494   8.075  11.381   7.083 -0.2264  0.2345 -0.2236
 1083POPI   C3A15495   8.428  11.272   7.193 -0.0634  0.2499  0.0177
 1083POPI   C4A15496   8.632  11.310   7.586 -0.1819  0.1504 -0.1136
 1083POPI   C1B15497   7.330  11.468   6.703 -0.0761  0.2816  0.2036
 1083POPI   C2B15498   7.294  11.416   7.209  0.0220 -0.0315 -0.0237
 1083POPI   C3B15499   7.268  11.386   7.648 -0.1011 -0.4003 -0.5354
 1083POPI   C4B15500   7.185  11.505   8.081 -0.1033  0.2295 -0.0675
 1084POPI    C115501   1.740   2.110   5.974  0.3435 -0.0504 -0.2619
 1084POPI    C215502   1.662   2.253   5.608  0.2610 -0.0216 -0.2333
 1084POPI    C315503   1.492   2.421   5.928  0.1580 -0.1876 -0.1994
 1084POPI   PO415504   1.981   1.963   6.059  0.2239 -0.0568 -0.1666
 1084POPI   GL115505   1.944   1.862   6.545 -0.0123  0.1177  0.2022
 1084POPI   GL215506   1.927   1.636   6.866  0.1655 -0.4091 -0.0682
 1084POPI   C1A15507   2.157   2.029   6.983  0.0182 -0.1786  0.0420
 1084POPI   D2A15508   2.465   2.082   7.400  0.0141  0.0839 -0.2275
 1084POPI   C3A15509   2.810   2.085   7.677  0.1073 -0.3314  0.1737
 1084POPI   C4A15510   2.897   2.488   8.011  0.2340  0.2942 -0.1575
 1084POPI   C1B15511   2.102   1.651   7.276  0.1158 -0.1381  0.0473
 1084POPI   C2B15512   2.134   1.850   7.592 -0.0358 -0.1159 -0.2754
 1084POPI   C3B15513   2.388   1.909   7.971  0.1951  0.1370 -0.1577
 1084POPI   C4B15514   2.423   1.831   8.399 -0.1483 -0.2647  0.0207
 1085POPI    C115515  17.763   7.439   5.781  0.0502  0.1375 -0.0603
 1085POPI    C215516  17.950   7.376   6.129  0.1488 -0.1237 -0.1583
 1085POPI    C315517  18.120   7.606   5.849  0.0264  0.1646 -0.0004
 1085POPI   PO415518  17.516   7.588   5.842 -0.1079 -0.1397 -0.1070
 1085POPI   GL115519  17.353   7.628   6.211  0.1698 -0.1621  0.1267
 1085POPI   GL215520  17.560   7.549   6.431  0.1113 -0.3552  0.3546
 1085POPI   C1A15521  17.163   8.000   6.589 -0.0510  0.0109 -0.2679
 1085POPI   D2A15522  17.277   8.254   6.897 -0.0316 -0.1755 -0.3733
 1085POPI   C3A15523  17.370   8.082   7.276 -0.0309 -0.2195 -0.0578
 1085POPI   C4A15524  17.433   7.900   7.708 -0.1834  0.0148  0.1126
 1085POPI   C1B15525  17.527   7.640   6.987 -0.1276  0.1523  0.1047
 1085POPI   C2B15526  17.285   7.515   7.415  0.0542 -0.0115 -0.0645
 1085POPI   C3B15527  17.588   7.439   7.857 -0.0795  0.0115 -0.1963
 1085POPI   C4B15528  17.850   7.367   8.191 -0.0044 -0.1565 -0.0824
 1086POPI    C115529   4.792  16.295   5.629  0.0015  0.1474 -0.0694
 1086POPI    C215530   4.452  16.358   5.830  0.0575  0.1407  0.0286
 1086POPI    C315531   4.467  16.078   5.544  0.0313  0.0133  0.1508
 1086POPI   PO415532   4.944  16.290   5.860  0.2112  0.2431  0.0848
 1086POPI   GL115533   4.877  16.432   6.246 -0.1143  0.0634 -0.0141
 1086POPI   GL215534   4.569  16.472   6.273 -0.0496 -0.0582 -0.1520
 1086POPI   C1A15535   5.132  16.300   6.616 -0.1194 -0.4078  0.2699
 1086POPI   D2A15536   5.005  16.273   7.040  0.0065 -0.2267 -0.0305
 1086POPI   C3A15537   5.076  16.172   7.506  0.4428  0.1060  0.0833
 1086POPI   C4A15538   5.053  15.966   7.916  0.0676 -0.4998  0.2520
 1086POPI   C1B15539   4.659  16.102   6.651  0.2005 -0.1800 -0.0694
 1086POPI   C2B15540   4.512  15.659   6.755 -0.1374  0.2377  0.1386
 1086POPI   C3B15541   4.489  15.190   6.827 -0.3262 -0.0237 -0.0082
 1086POPI   C4B15542   4.646  14.838   6.978  0.2298 -0.0018 -0.2485
 1087POPI    C115543  11.412   2.847   6.020  0.0424  0.1373  0.1091
 1087POPI    C215544  11.223   2.506   5.929  0.1904  0.0134  0.2613
 1087POPI    C315545  11.030   2.796   6.127  0.0584  0.0269  0.1141
 1087POPI   PO415546  11.683   2.758   6.001 -0.0029 -0.2410 -0.3039
 1087POPI   GL115547  11.954   2.540   6.299  0.1064 -0.0562 -0.0333
 1087POPI   GL215548  11.926   2.284   6.320  0.1638 -0.2347 -0.0142
 1087POPI   C1A15549  11.859   2.642   6.795  0.0516 -0.1373 -0.0572
 1087POPI   D2A15550  11.816   2.882   7.229 -0.0819 -0.0102  0.3469
 1087POPI   C3A15551  11.782   2.886   7.700 -0.0450 -0.0340  0.0990
 1087POPI   C4A15552  11.807   3.259   7.941 -0.2070  0.1971  0.0694
 1087POPI   C1B15553  12.015   2.169   6.731  0.1652 -0.0289 -0.0017
 1087POPI   C2B15554  11.853   2.234   7.103  0.1510  0.2444  0.1375
 1087POPI   C3B15555  11.700   2.024   7.415  0.0216 -0.0849 -0.1650
 1087POPI   C4B15556  12.004   1.767   7.811 -0.0194 -0.1775  0.1312
 1088POPI    C115557  10.747   9.134   6.176 -0.2163 -0.1117  0.0618
 1088POPI    C215558  11.014   8.856   6.069 -0.0998  0.0925 -0.1883
 1088POPI    C315559  10.973   9.189   5.851 -0.1627  0.3224  0.1654
 1088POPI   PO415560  10.825   9.244   6.451 -0.1412 -0.1340  0.1918
 1088POPI   GL115561  10.707   9.138   6.793 -0.1239 -0.2230 -0.0740
 1088POPI   GL215562  10.438   9.269   6.878 -0.2491  0.1471 -0.2382
 1088POPI   C1A15563  10.744   9.052   7.195  0.1869 -0.0493 -0.1067
 1088POPI   D2A15564  10.658   9.066   7.663  0.0333 -0.2252  0.1792
 1088POPI   C3A15565  10.736   8.847   8.072  0.1001 -0.2666  0.1202
 1088POPI   C4A15566  10.851   8.725   8.422 -0.1540 -0.0113 -0.0352
 1088POPI   C1B15567  10.464   9.457   7.238 -0.5091 -0.0440  0.2516
 1088POPI   C2B15568  10.573   9.665   7.527 -0.0131  0.1267  0.2718
 1088POPI   C3B15569  10.659   9.926   7.838  0.3245 -0.0178 -0.0310
 1088POPI   C4B15570  10.787  10.073   8.219 -0.0511  0.0296 -0.1088
 1089POPI    C115571   6.281   0.827   5.785  0.1694  0.1590 -0.2794
 1089POPI    C215572   5.958   0.967   5.974  0.2450 -0.0793  0.0334
 1089POPI    C315573   5.945   0.899   5.580  0.0421  0.2906 -0.0286
 1089POPI   PO415574   6.355   0.580   5.999 -0.2928  0.1681 -0.3338
 1089POPI   GL115575   6.277   0.475   6.397 -0.0361  0.0546  0.1528
 1089POPI   GL215576   6.025   0.221   6.500 -0.3260 -0.0966 -0.0009
 1089POPI   C1A15577   6.157   0.627   6.764 -0.0365  0.1996  0.1112
 1089POPI   D2A15578   6.279   0.539   7.207 -0.3004  0.1121 -0.1339
 1089POPI   C3A15579   5.968   0.413   7.309  0.1852 -0.0946 -0.1985
 1089POPI   C4A15580   5.698   0.048   7.304 -0.2526 -0.2253 -0.1769
 1089POPI   C1B15581   5.955   0.183   6.919 -0.2237 -0.2601  0.1135
 1089POPI   C2B15582   6.117  -0.168   7.241 -0.2126  0.2855 -0.2819
 1089POPI   C3B15583   6.110  -0.011   7.654 -0.0831 -0.2531 -0.3259
 1089POPI   C4B15584   5.760   0.299   7.757 -0.2702 -0.0513 -0.0282
 1090POPI    C115585   3.191   0.592   5.721 -0.1718 -0.0221 -0.1015
 1090POPI    C215586   2.980   0.485   6.043 -0.2690  0.3191 -0.0477
 1090POPI    C315587   2.883   0.340   5.683 -0.1662 -0.0559  0.0710
 1090POPI   PO415588   3.459   0.563   5.806  0.0081 -0.3431 -0.2932
 1090POPI   GL115589   3.450   0.739   6.246 -0.1327  0.0311 -0.0116
 1090POPI   GL215590   3.531   1.024   6.486  0.1780 -0.2732  0.2671
 1090POPI   C1A15591   3.668   0.592   6.616 -0.1704 -0.0475  0.0124
 1090POPI   D2A15592   3.624   0.867   7.005 -0.1304 -0.0969  0.0619
 1090POPI   C3A15593   3.562   0.751   7.337  0.0698  0.0545 -0.3331
 1090POPI   C4A15594   3.291   0.545   7.583 -0.0138 -0.0276  0.0441
 1090POPI   C1B15595   3.505   1.284   6.753 -0.0095 -0.1753  0.0545
 1090POPI   C2B15596   3.663   1.370   7.188  0.0531  0.0020 -0.1385
 1090POPI   C3B15597   3.614   1.212   7.577 -0.3663  0.0924 -0.0437
 1090POPI   C4B15598   3.777   0.997   7.926 -0.0772 -0.1815 -0.2742
 1091POPI    C115599  12.814  10.359   5.725  0.2505 -0.0607 -0.0532
 1091POPI    C215600  12.708  10.405   5.342  0.1845 -0.1410 -0.0449
 1091POPI    C315601  12.677  10.046   5.517  0.0354 -0.0640  0.0897
 1091POPI   PO415602  12.816  10.550   5.867  0.0686  0.1867  0.1076
 1091POPI   GL115603  13.053  10.695   6.287  0.1920 -0.0203 -0.0986
 1091POPI   GL215604  13.002  11.006   6.257  0.0344 -0.0372 -0.0499
 1091POPI   C1A15605  12.959  10.683   6.729  0.1417  0.0869 -0.0063
 1091POPI   D2A15606  12.827  10.871   6.965 -0.0704 -0.0126 -0.0104
 1091POPI   C3A15607  12.963  10.847   7.435 -0.0340  0.0995 -0.0290
 1091POPI   C4A15608  13.347  10.827   7.755  0.1051 -0.1998 -0.0120
 1091POPI   C1B15609  12.968  11.188   6.615 -0.3961 -0.2318 -0.0278
 1091POPI   C2B15610  13.193  11.311   7.032  0.4265  0.1897  0.3550
 1091POPI   C3B15611  13.186  11.281   7.425 -0.2286  0.0774 -0.0954
 1091POPI   C4B15612  13.062  11.172   7.859 -0.1039  0.1576  0.1850
 1092POPI    C115613   3.822  11.506   5.609 -0.1949 -0.0296 -0.0670
 1092POPI    C215614   3.752  11.367   5.241 -0.4334 -0.2123  0.0448
 1092POPI    C315615   3.587  11.712   5.359 -0.1066  0.0058 -0.1211
 1092POPI   PO415616   3.684  11.280   5.872  0.2654  0.0017 -0.2180
 1092POPI   GL115617   3.963  11.263   6.278  0.0741 -0.0682  0.2096
 1092POPI   GL215618   4.217  11.041   6.420 -0.1460 -0.4402 -0.0375
 1092POPI   C1A15619   3.796  11.281   6.677 -0.0802 -0.2145 -0.0997
 1092POPI   D2A15620   3.810  11.206   7.104 -0.2207 -0.1502 -0.3189
 1092POPI   C3A15621   3.665  11.316   7.506 -0.1991 -0.1094 -0.1904
 1092POPI   C4A15622   3.618  11.538   7.897  0.1024 -0.0635  0.2484
 1092POPI   C1B15623   4.243  10.924   6.725  0.2868 -0.1909 -0.1832
 1092POPI   C2B15624   4.332  10.891   7.079  0.1228 -0.2021 -0.0110
 1092POPI   C3B15625   4.217  10.962   7.414  0.0876 -0.1709  0.2515
 1092POPI   C4B15626   4.311  11.123   7.826 -0.2177 -0.0479  0.1474
 1093POPI    C115627  10.487  16.979   5.830  0.1620  0.0418  0.0112
 1093POPI    C215628  10.824  16.765   5.798  0.1892  0.0700  0.1038
 1093POPI    C315629  10.508  16.677   5.568  0.2995  0.1194 -0.0686
 1093POPI   PO415630  10.676  17.251   5.819 -0.0762  0.2513  0.2511
 1093POPI   GL115631  11.067  17.258   5.946  0.0484 -0.2688 -0.1084
 1093POPI   GL215632  11.238  16.998   5.865 -0.0569  0.0812 -0.2219
 1093POPI   C1A15633  11.291  17.269   6.373 -0.0195  0.1443 -0.1165
 1093POPI   D2A15634  11.465  17.261   6.798  0.1240  0.1043 -0.0982
 1093POPI   C3A15635  11.633  16.955   6.917  0.1112  0.1363  0.0711
 1093POPI   C4A15636  11.775  16.744   6.723 -0.2024 -0.0510  0.0091
 1093POPI   C1B15637  11.104  16.857   6.275  0.0022 -0.0935  0.2389
 1093POPI   C2B15638  11.173  16.885   6.699  0.0347 -0.1240  0.1584
 1093POPI   C3B15639  11.163  16.925   7.095  0.0469  0.0373  0.0820
 1093POPI   C4B15640  11.114  16.676   7.477  0.2273 -0.2878 -0.0525
 1094POPI    C115641   4.619  14.842   5.924 -0.0804 -0.0176  0.0321
 1094POPI    C215642   4.829  15.089   5.690 -0.1904  0.1005  0.0569
 1094POPI    C315643   4.647  14.769   5.532 -0.1733  0.1189 -0.0003
 1094POPI   PO415644   4.795  14.969   6.193  0.2195 -0.1898  0.1272
 1094POPI   GL115645   5.012  14.960   6.629  0.0624 -0.1027 -0.1583
 1094POPI   GL215646   5.358  15.090   6.833  0.1039 -0.2420  0.3159
 1094POPI   C1A15647   4.954  15.392   6.773  0.0397 -0.0034 -0.0642
 1094POPI   D2A15648   4.756  15.555   7.196 -0.0522 -0.0711  0.0056
 1094POPI   C3A15649   4.699  15.901   7.222 -0.1270 -0.0949 -0.0921
 1094POPI   C4A15650   4.335  15.915   7.272 -0.1646  0.1319  0.1372
 1094POPI   C1B15651   5.023  15.087   7.137  0.2272  0.1350 -0.0602
 1094POPI   C2B15652   5.017  15.223   7.498  0.1166  0.0497 -0.0170
 1094POPI   C3B15653   5.041  15.360   7.911 -0.0312  0.0179 -0.1356
 1094POPI   C4B15654   4.693  15.433   8.202  0.2957 -0.2677 -0.0078
 1095POPI    C115655   4.043  17.158   5.852  0.0265 -0.0454  0.1282
 1095POPI    C215656   4.211  16.854   5.654 -0.1170  0.0892 -0.2087
 1095POPI    C315657   4.378  17.217   5.641 -0.0564  0.0717  0.0279
 1095POPI   PO415658   3.965  17.102   6.043 -0.0226 -0.0915 -0.2679
 1095POPI   GL115659   4.081  17.029   6.402  0.0353  0.0866 -0.1476
 1095POPI   GL215660   4.202  17.265   6.472  0.0714 -0.1554 -0.0687
 1095POPI   C1A15661   4.477  16.885   6.672  0.0661  0.0397 -0.0594
 1095POPI   D2A15662   4.649  16.556   6.783 -0.0216  0.0258  0.2672
 1095POPI   C3A15663   4.553  16.408   7.147  0.2812 -0.3520 -0.0817
 1095POPI   C4A15664   4.532  16.280   7.455 -0.0683  0.0563 -0.0496
 1095POPI   C1B15665   4.526  17.349   6.646  0.0158 -0.2560  0.1632
 1095POPI   C2B15666   4.890  17.180   6.890 -0.2033 -0.0518  0.1294
 1095POPI   C3B15667   5.145  17.159   7.267 -0.1654 -0.2833 -0.0872
 1095POPI   C4B15668   4.924  17.102   7.629 -0.1097 -0.1388 -0.1368
 1096POPI    C115669  15.238  14.468   5.123  0.0174 -0.1272  0.0061
 1096POPI    C215670  15.064  14.659   4.818  0.2003  0.0368  0.0034
 1096POPI    C315671  15.042  14.261   4.842 -0.1750  0.0541  0.0037
 1096POPI   PO415672  15.227  14.630   5.319 -0.1767 -0.0951 -0.0899
 1096POPI   GL115673  15.148  14.609   5.667  0.0941 -0.2871 -0.0645
 1096POPI   GL215674  14.988  14.437   5.856 -0.3569 -0.0259  0.0842
 1096POPI   C1A15675  15.225  14.901   5.964 -0.2156  0.2579 -0.0370
 1096POPI   D2A15676  15.085  15.013   6.400 -0.0558 -0.1816 -0.1032
 1096POPI   C3A15677  15.357  15.072   6.745 -0.0119  0.0636 -0.2123
 1096POPI   C4A15678  15.530  15.032   7.175 -0.1758  0.0086 -0.3050
 1096POPI   C1B15679  14.845  14.142   6.168  0.1567 -0.0525 -0.0839
 1096POPI   C2B15680  14.935  14.064   6.585 -0.0363  0.0307  0.2393
 1096POPI   C3B15681  15.096  14.194   7.103  0.4347 -0.1407  0.0815
 1096POPI   C4B15682  15.251  14.146   7.553 -0.0897 -0.2106  0.3601
 1097DPPI    C115683  13.077  11.342   5.942  0.1461 -0.1014  0.1407
 1097DPPI    C215684  13.143  11.226   5.565 -0.0787  0.3142 -0.0331
 1097DPPI    C315685  12.857  11.050   5.781  0.0056  0.1200 -0.0780
 1097DPPI   PO415686  13.337  11.367   6.019  0.1162 -0.1692 -0.0216
 1097DPPI   GL115687  13.410  11.495   6.393  0.0488  0.1313 -0.0290
 1097DPPI   GL215688  13.087  11.647   6.387 -0.0806  0.0791 -0.1998
 1097DPPI   C1A15689  13.426  11.604   6.709  0.0455  0.1664 -0.0554
 1097DPPI   C2A15690  13.534  11.628   7.195 -0.0081  0.0609  0.2475
 1097DPPI   C3A15691  13.761  11.590   7.591  0.0351 -0.0820 -0.2267
 1097DPPI   C4A15692  13.991  11.465   7.893 -0.3594  0.0224  0.1239
 1097DPPI   C1B15693  12.949  11.677   6.798 -0.1485 -0.0907 -0.0560
 1097DPPI   C2B15694  12.978  11.781   7.316  0.1010  0.0968 -0.1638
 1097DPPI   C3B15695  13.094  11.632   7.766 -0.2019 -0.2050 -0.4554
 1097DPPI   C4B15696  13.146  11.655   8.187 -0.2050  0.2349 -0.0764
 1098DPPI    C115697   6.563  13.564   5.866  0.0124  0.2739 -0.0239
 1098DPPI    C215698   6.849  13.319   5.729 -0.2012 -0.0334  0.0670
 1098DPPI    C315699   6.696  13.602   5.491  0.1680  0.1283  0.0147
 1098DPPI   PO415700   6.432  13.300   6.064  0.1722  0.0010  0.0321
 1098DPPI   GL115701   6.393  13.437   6.504 -0.2953 -0.0755  0.3657
 1098DPPI   GL215702   6.530  13.169   6.573  0.1734  0.0947  0.0676
 1098DPPI   C1A15703   6.305  13.503   6.962  0.1519  0.0002  0.3638
 1098DPPI   C2A15704   6.428  13.441   7.352  0.2371 -0.0721 -0.2908
 1098DPPI   C3A15705   6.409  13.356   7.853  0.1919 -0.2846 -0.0645
 1098DPPI   C4A15706   6.133  13.394   8.200  0.2053  0.1310 -0.1190
 1098DPPI   C1B15707   6.733  13.238   6.981 -0.2506 -0.1737 -0.0194
 1098DPPI   C2B15708   6.833  13.181   7.325 -0.0387  0.2247  0.0968
 1098DPPI   C3B15709   6.809  13.046   7.881  0.1584 -0.2540  0.2110
 1098DPPI   C4B15710   6.577  12.924   8.263  0.0012  0.1301  0.1147
 1099DPPI    C115711   4.209  14.496   5.944 -0.0332 -0.2186 -0.0587
 1099DPPI    C215712   3.878  14.417   5.734 -0.0541  0.0745 -0.1395
 1099DPPI    C315713   4.139  14.691   5.602  0.2831 -0.2386 -0.1386
 1099DPPI   PO415714   4.083  14.481   6.276  0.0109 -0.2302  0.2905
 1099DPPI   GL115715   3.960  14.836   6.545  0.0222 -0.5868  0.5112
 1099DPPI   GL215716   3.731  14.645   6.732 -0.0240 -0.2705  0.0371
 1099DPPI   C1A15717   4.024  15.016   6.930 -0.1480  0.1191 -0.2574
 1099DPPI   C2A15718   4.047  15.116   7.325  0.0350  0.0170 -0.1070
 1099DPPI   C3A15719   4.402  15.332   7.563 -0.0289  0.2545 -0.0922
 1099DPPI   C4A15720   4.590  15.120   7.891 -0.0786 -0.0962  0.2398
 1099DPPI   C1B15721   3.593  14.771   7.087  0.0964 -0.0402 -0.0817
 1099DPPI   C2B15722   3.478  15.003   7.452  0.1202  0.1374 -0.0584
 1099DPPI   C3B15723   3.674  15.124   7.726 -0.1043  0.2128  0.4768
 1099DPPI   C4B15724   4.057  15.285   7.915  0.0863  0.1595 -0.0930
 1100DPPI    C115725   9.137  12.235   5.965  0.0207 -0.0710 -0.0626
 1100DPPI    C215726   9.209  11.884   5.787 -0.0292 -0.0991 -0.0276
 1100DPPI    C315727   9.273  12.226   5.589  0.1884 -0.1236 -0.0015
 1100DPPI   PO415728   9.277  12.346   6.137  0.2839  0.2726  0.1450
 1100DPPI   GL115729   9.427  12.246   6.549 -0.2201 -0.2549 -0.0251
 1100DPPI   GL215730   9.486  12.550   6.608 -0.1645  0.2731 -0.0056
 1100DPPI   C1A15731   9.686  12.089   6.895  0.2171 -0.3465  0.2879
 1100DPPI   C2A15732   9.796  12.096   7.182 -0.3873  0.1377 -0.3157
 1100DPPI   C3A15733   9.925  12.015   7.580  0.2852  0.0512  0.0467
 1100DPPI   C4A15734   9.745  12.109   7.996 -0.3646 -0.2255  0.1389
 1100DPPI   C1B15735   9.747  12.638   6.922  0.3842 -0.0868  0.1624
 1100DPPI   C2B15736   9.751  12.627   7.319  0.0861 -0.2715 -0.3430
 1100DPPI   C3B15737   9.954  12.543   7.726 -0.0372  0.0520 -0.0508
 1100DPPI   C4B15738  10.028  12.883   7.980 -0.0574  0.4807  0.3020
 1101DPPI    C115739  11.373  17.583   5.579  0.3737 -0.2544 -0.1083
 1101DPPI    C215740  11.708  17.801   5.562  0.1451  0.1054 -0.0976
 1101DPPI    C315741  11.577  17.609   5.236  0.1528  0.2861 -0.2082
 1101DPPI   PO415742  11.255  17.769   5.739 -0.1469  0.0149  0.1235
 1101DPPI   GL115743  11.372  17.777   6.108  0.3459  0.2772 -0.1706
 1101DPPI   GL215744  11.623  18.037   6.035  0.1645 -0.2242  0.0322
 1101DPPI   C1A15745  11.288  17.751   6.506  0.1887 -0.0833 -0.0868
 1101DPPI   C2A15746  11.134  17.666   6.883 -0.0516  0.0413 -0.0062
 1101DPPI   C3A15747  11.180  17.476   7.276  0.0150  0.3870 -0.2247
 1101DPPI   C4A15748  11.299  17.189   7.635  0.2840 -0.0853  0.0794
 1101DPPI   C1B15749  11.728  18.050   6.477 -0.1695  0.0371 -0.1580
 1101DPPI   C2B15750  11.787  18.247   6.839 -0.0341 -0.2000 -0.0875
 1101DPPI   C3B15751  11.696  18.346   7.222 -0.1237 -0.0716  0.0875
 1101DPPI   C4B15752  11.384  18.377   7.542  0.1593 -0.0032  0.1076
 1102DPPI    C115753  12.446  15.147   5.380  0.0877  0.0624  0.0443
 1102DPPI    C215754  12.055  15.230   5.376  0.0365 -0.1354  0.4511
 1102DPPI    C315755  12.195  14.917   5.170  0.0565  0.2150 -0.0873
 1102DPPI   PO415756  12.514  15.216   5.601  0.2569  0.1928 -0.1551
 1102DPPI   GL115757  12.758  15.034   5.920 -0.1487  0.1151 -0.0245
 1102DPPI   GL215758  12.642  14.793   5.796 -0.1045  0.0682  0.1319
 1102DPPI   C1A15759  12.707  15.012   6.308 -0.1270 -0.0441  0.0816
 1102DPPI   C2A15760  12.796  15.197   6.705  0.1018 -0.3659  0.0574
 1102DPPI   C3A15761  12.892  15.369   7.018 -0.3822  0.0931 -0.0501
 1102DPPI   C4A15762  12.861  15.358   7.517 -0.1230 -0.3072  0.0451
 1102DPPI   C1B15763  12.752  14.529   6.201 -0.3577 -0.1687  0.1315
 1102DPPI   C2B15764  12.879  14.616   6.685  0.0129  0.0521  0.2331
 1102DPPI   C3B15765  13.131  14.636   7.018  0.0480 -0.1596 -0.3756
 1102DPPI   C4B15766  13.230  14.582   7.432 -0.2283  0.0485  0.0665
 1103DPPI    C115767   8.107  14.989   6.041  0.0408 -0.0107 -0.0624
 1103DPPI    C215768   7.938  15.185   5.735 -0.1711 -0.0156  0.0493
 1103DPPI    C315769   8.144  14.848   5.668 -0.0380  0.0957 -0.1109
 1103DPPI   PO415770   8.020  15.218   6.252 -0.0549 -0.0356 -0.0379
 1103DPPI   GL115771   8.070  15.216   6.660  0.0685 -0.0179 -0.2070
 1103DPPI   GL215772   7.743  15.316   6.814 -0.3300 -0.1773 -0.0088
 1103DPPI   C1A15773   8.315  14.989   6.997  0.1255 -0.1469  0.1706
 1103DPPI   C2A15774   8.362  14.975   7.409  0.1127 -0.0175  0.1721
 1103DPPI   C3A15775   8.430  15.029   7.870 -0.0389  0.2170  0.0945
 1103DPPI   C4A15776   8.384  14.892   8.204  0.1850 -0.0854  0.3130
 1103DPPI   C1B15777   7.887  15.236   7.234  0.0452 -0.0858  0.1149
 1103DPPI   C2B15778   7.777  15.313   7.617 -0.1711 -0.2133 -0.0157
 1103DPPI   C3B15779   7.621  15.581   8.036 -0.1681 -0.0296  0.0652
 1103DPPI   C4B15780   7.265  15.899   8.136 -0.1326 -0.1048 -0.0089
 1104DPPI    C115781   8.482   1.269   5.954  0.0039  0.0559 -0.0376
 1104DPPI    C215782   8.583   1.018   5.660  0.0346 -0.0126  0.0309
 1104DPPI    C315783   8.579   0.890   6.039  0.2067  0.1331  0.0832
 1104DPPI   PO415784   8.697   1.475   5.904 -0.2988  0.2289 -0.0997
 1104DPPI   GL115785   8.907   1.569   6.296  0.0505 -0.2375  0.2392
 1104DPPI   GL215786   8.955   1.255   6.251 -0.0233 -0.3861  0.3594
 1104DPPI   C1A15787   8.971   1.630   6.741  0.3228  0.0351  0.1155
 1104DPPI   C2A15788   8.778   1.726   7.187 -0.2393  0.3365  0.2714
 1104DPPI   C3A15789   8.719   1.625   7.664 -0.0196 -0.1079 -0.0899
 1104DPPI   C4A15790   8.599   1.655   8.035 -0.1286 -0.2351 -0.1603
 1104DPPI   C1B15791   9.200   1.213   6.632  0.0672 -0.0077 -0.1344
 1104DPPI   C2B15792   9.318   1.365   7.034 -0.1074 -0.0418  0.0448
 1104DPPI   C3B15793   9.229   1.427   7.471 -0.2183 -0.1416  0.3388
 1104DPPI   C4B15794   9.365   1.349   7.823  0.0543 -0.0770  0.2279
 1105DPPI    C115795  15.555   3.389   5.773 -0.3611  0.1196 -0.1001
 1105DPPI    C215796  15.329   3.092   5.630 -0.0124 -0.1291 -0.1461
 1105DPPI    C315797  15.462   3.379   5.385 -0.0838 -0.1111 -0.1638
 1105DPPI   PO415798  15.398   3.398   6.050 -0.0293  0.0859  0.1817
 1105DPPI   GL115799  15.503   3.101   6.237  0.0600  0.1634  0.0806
 1105DPPI   GL215800  15.782   3.049   6.317 -0.0218  0.0291 -0.0425
 1105DPPI   C1A15801  15.106   3.179   6.651 -0.0223 -0.0020 -0.1683
 1105DPPI   C2A15802  15.131   3.241   7.008  0.0355 -0.0441  0.0629
 1105DPPI   C3A15803  15.120   3.210   7.451 -0.3508  0.1611 -0.1936
 1105DPPI   C4A15804  15.221   3.160   7.850 -0.2914 -0.0302 -0.4542
 1105DPPI   C1B15805  15.833   2.823   6.781  0.1965 -0.2730  0.0778
 1105DPPI   C2B15806  15.925   2.685   7.189  0.0561 -0.3192  0.4609
 1105DPPI   C3B15807  15.792   2.513   7.529 -0.0800  0.0316  0.0494
 1105DPPI   C4B15808  15.732   2.413   8.023 -0.1022 -0.2617 -0.0689
 1106DPPI    C115809   8.963  16.194   6.240 -0.0408  0.1654  0.0589
 1106DPPI    C215810   9.228  16.256   5.947 -0.1546  0.0691 -0.0660
 1106DPPI    C315811   9.274  15.947   6.196 -0.0231  0.1876  0.0590
 1106DPPI   PO415812   8.868  16.518   6.299  0.0197  0.2875 -0.2090
 1106DPPI   GL115813   9.007  16.770   6.646 -0.1424  0.1099  0.1915
 1106DPPI   GL215814   9.245  16.801   6.864 -0.2256 -0.0830 -0.1370
 1106DPPI   C1A15815   8.628  16.769   6.897  0.0650 -0.1451  0.0658
 1106DPPI   C2A15816   8.622  16.927   7.255  0.0221  0.0784 -0.3486
 1106DPPI   C3A15817   8.771  16.908   7.704  0.1060  0.1371  0.1188
 1106DPPI   C4A15818   8.755  16.829   8.084 -0.0715 -0.0610  0.1807
 1106DPPI   C1B15819   9.090  16.842   7.274 -0.1611 -0.0975 -0.2043
 1106DPPI   C2B15820   9.283  16.866   7.753 -0.1876  0.0195  0.0373
 1106DPPI   C3B15821   9.142  17.156   8.056  0.0648 -0.1539  0.2828
 1106DPPI   C4B15822   8.783  17.261   8.383 -0.1369 -0.0081  0.0947
 1107DPPI    C115823   8.312   9.694   6.273  0.0690  0.1288  0.0524
 1107DPPI    C215824   8.562   9.578   5.983  0.0380  0.1406  0.0209
 1107DPPI    C315825   8.172   9.618   5.906 -0.0021 -0.0546  0.1165
 1107DPPI   PO415826   8.369   9.872   6.346 -0.0257  0.1216  0.1459
 1107DPPI   GL115827   8.520  10.107   6.695 -0.0115 -0.1832  0.0340
 1107DPPI   GL215828   8.830  10.204   6.693  0.1532  0.0067  0.1393
 1107DPPI   C1A15829   8.615  10.115   7.112  0.1382 -0.1503  0.1170
 1107DPPI   C2A15830   8.640  10.095   7.617  0.2410 -0.0953 -0.1139
 1107DPPI   C3A15831   8.512   9.970   7.931  0.3057  0.1954  0.1413
 1107DPPI   C4A15832   8.229   9.665   8.201 -0.3466  0.1117 -0.1389
 1107DPPI   C1B15833   9.066   9.935   6.981  0.1496  0.1517  0.0655
 1107DPPI   C2B15834   9.049   9.737   7.303  0.0969 -0.1087 -0.0169
 1107DPPI   C3B15835   9.066   9.871   7.731 -0.2787 -0.0538 -0.0450
 1107DPPI   C4B15836   8.961   9.816   8.097 -0.0731 -0.1236 -0.3890
 1108DPPI    C115837  13.885  13.924   5.235 -0.0931 -0.1570 -0.0398
 1108DPPI    C215838  14.161  14.114   5.017 -0.0499  0.0124  0.1591
 1108DPPI    C315839  13.972  13.795   4.867  0.1985 -0.0592 -0.0074
 1108DPPI   PO415840  13.690  14.052   5.352 -0.1545  0.1456 -0.2829
 1108DPPI   GL115841  13.841  14.344   5.713 -0.1449 -0.0950  0.0517
 1108DPPI   GL215842  13.645  14.552   5.727  0.3628  0.1826  0.1116
 1108DPPI   C1A15843  13.845  14.354   6.151  0.0260 -0.0370  0.0186
 1108DPPI   C2A15844  13.877  14.247   6.588  0.2225  0.2890  0.3058
 1108DPPI   C3A15845  14.093  14.387   6.939  0.2529 -0.2647 -0.3925
 1108DPPI   C4A15846  14.124  14.698   7.303 -0.1870 -0.2485 -0.0408
 1108DPPI   C1B15847  13.698  14.768   6.231  0.1510 -0.1605  0.0432
 1108DPPI   C2B15848  13.843  14.749   6.654 -0.2995 -0.1071  0.1313
 1108DPPI   C3B15849  13.720  14.855   7.074  0.0292  0.2404  0.1754
 1108DPPI   C4B15850  13.688  14.802   7.527  0.1515  0.3370 -0.0741
 1109DPPI    C115851   5.880   3.021   5.749 -0.0122 -0.2466 -0.2579
 1109DPPI    C215852   5.598   2.889   5.497 -0.3296  0.1246 -0.1073
 1109DPPI    C315853   5.867   3.157   5.373 -0.1125 -0.1394 -0.2164
 1109DPPI   PO415854   5.701   3.076   5.932  0.2656 -0.0794 -0.0461
 1109DPPI   GL115855   5.905   3.215   6.316  0.2599  0.0396  0.4637
 1109DPPI   GL215856   6.071   3.379   6.339 -0.0168  0.2792  0.1264
 1109DPPI   C1A15857   5.783   3.019   6.651  0.0421  0.0085 -0.0505
 1109DPPI   C2A15858   5.658   3.049   7.023  0.1467 -0.0113  0.0310
 1109DPPI   C3A15859   5.690   2.817   7.297 -0.1883  0.1057  0.2134
 1109DPPI   C4A15860   5.519   2.857   7.651  0.0452 -0.0417  0.0036
 1109DPPI   C1B15861   6.055   3.409   6.747 -0.3285 -0.1063  0.1184
 1109DPPI   C2B15862   6.026   3.346   7.197  0.2270 -0.0565  0.2782
 1109DPPI   C3B15863   6.018   3.219   7.654 -0.4533 -0.0508  0.4613
 1109DPPI   C4B15864   6.139   3.127   8.096 -0.1311 -0.2278 -0.2674
 1110DPPI    C115865   0.832   9.230   6.150 -0.2034  0.0501 -0.0899
 1110DPPI    C215866   0.848   9.110   5.768 -0.0819 -0.2144 -0.0046
 1110DPPI    C315867   0.519   9.043   5.985 -0.0252 -0.3694  0.0343
 1110DPPI   PO415868   1.101   9.154   6.230  0.2532 -0.2810 -0.1052
 1110DPPI   GL115869   1.364   9.435   6.497  0.2312 -0.0247 -0.2155
 1110DPPI   GL215870   1.385   9.707   6.626  0.1633 -0.1003  0.2050
 1110DPPI   C1A15871   1.169   9.386   6.903  0.0189  0.0536  0.3021
 1110DPPI   C2A15872   1.019   9.547   7.303 -0.0582 -0.0923  0.0767
 1110DPPI   C3A15873   0.673   9.271   7.428  0.0422  0.0680 -0.0946
 1110DPPI   C4A15874   0.380   9.289   7.820  0.3748 -0.1184  0.3539
 1110DPPI   C1B15875   1.430   9.751   7.104 -0.1116 -0.2115 -0.0516
 1110DPPI   C2B15876   1.370   9.819   7.607  0.2386 -0.0804  0.0930
 1110DPPI   C3B15877   1.398   9.612   7.910 -0.3647 -0.1300 -0.1218
 1110DPPI   C4B15878   1.693   9.422   8.086 -0.0733  0.4247  0.3054
 1111DPPI    C115879   5.642   3.980   6.145 -0.0356 -0.0877  0.0137
 1111DPPI    C215880   5.519   3.924   5.768  0.1561 -0.3316 -0.0152
 1111DPPI    C315881   5.670   4.278   5.879  0.0259 -0.2341 -0.1453
 1111DPPI   PO415882   5.683   3.721   6.202  0.1257  0.2171 -0.1279
 1111DPPI   GL115883   5.444   3.716   6.493  0.1334 -0.0479  0.3048
 1111DPPI   GL215884   5.578   3.534   6.735 -0.1462 -0.2461  0.0776
 1111DPPI   C1A15885   5.176   3.738   6.825  0.0115 -0.2545  0.0013
 1111DPPI   C2A15886   4.945   3.719   7.198 -0.0542  0.0388  0.3539
 1111DPPI   C3A15887   4.779   3.853   7.587  0.1090 -0.3008  0.0261
 1111DPPI   C4A15888   4.732   3.868   8.045 -0.2471  0.1557  0.0715
 1111DPPI   C1B15889   5.559   3.480   7.185 -0.1910 -0.1186 -0.2104
 1111DPPI   C2B15890   5.624   3.444   7.596  0.2938  0.2391  0.3824
 1111DPPI   C3B15891   5.495   3.455   8.101  0.0858 -0.1142  0.0549
 1111DPPI   C4B15892   5.863   3.471   8.390 -0.0345 -0.1481  0.1634
 1112DPPI    C115893   5.579  16.755   5.802 -0.0115  0.0402  0.0628
 1112DPPI    C215894   5.414  16.408   5.691 -0.0864  0.1661 -0.2314
 1112DPPI    C315895   5.661  16.600   5.442 -0.0241  0.3118 -0.0595
 1112DPPI   PO415896   5.699  16.734   6.081  0.0248  0.0245  0.2896
 1112DPPI   GL115897   5.892  16.351   6.254  0.0726 -0.0430  0.3731
 1112DPPI   GL215898   5.761  16.448   6.524  0.0474  0.2084 -0.3989
 1112DPPI   C1A15899   6.227  16.228   6.478  0.1992  0.0793 -0.0998
 1112DPPI   C2A15900   6.697  16.112   6.531 -0.0959 -0.0558 -0.0204
 1112DPPI   C3A15901   7.075  16.203   6.361 -0.1462  0.2487 -0.1150
 1112DPPI   C4A15902   7.451  16.409   6.492  0.0479  0.0482 -0.2935
 1112DPPI   C1B15903   5.543  16.265   6.887  0.0061  0.1607  0.0131
 1112DPPI   C2B15904   5.518  16.198   7.245  0.0162  0.2001  0.2769
 1112DPPI   C3B15905   5.574  16.130   7.723  0.1010 -0.0791 -0.0155
 1112DPPI   C4B15906   5.552  16.301   8.069  0.2308 -0.3815  0.0995
 1113DPPI    C115907   2.381   0.624   5.984  0.0230 -0.1138  0.0909
 1113DPPI    C215908   2.650   0.865   5.814  0.0744 -0.2058  0.0411
 1113DPPI    C315909   2.363   0.698   5.591 -0.1653  0.0756  0.1337
 1113DPPI   PO415910   2.478   0.485   6.123  0.1301 -0.0327  0.1544
 1113DPPI   GL115911   2.656   0.585   6.487  0.0060  0.0344  0.0796
 1113DPPI   GL215912   2.871   0.771   6.416  0.1876 -0.2651  0.0457
 1113DPPI   C1A15913   2.648   0.866   6.892 -0.0899  0.2518  0.1684
 1113DPPI   C2A15914   2.911   0.713   7.285 -0.3230 -0.0773 -0.0151
 1113DPPI   C3A15915   2.851   0.524   7.814 -0.0828 -0.0690 -0.2402
 1113DPPI   C4A15916   3.053   0.398   8.272 -0.0273  0.1010  0.1248
 1113DPPI   C1B15917   3.174   0.899   6.760  0.0061  0.0545  0.1450
 1113DPPI   C2B15918   3.217   1.119   7.154  0.2087 -0.1279 -0.3394
 1113DPPI   C3B15919   3.180   1.022   7.638  0.2461 -0.2292 -0.3847
 1113DPPI   C4B15920   3.287   0.816   8.048 -0.1852 -0.1100 -0.1563
 1114DPPI    C115921   3.481   3.796   6.183 -0.0019 -0.1359  0.0570
 1114DPPI    C215922   3.322   3.858   5.821  0.2099 -0.0337 -0.0204
 1114DPPI    C315923   3.552   3.537   5.886  0.0010 -0.1655  0.0833
 1114DPPI   PO415924   3.571   4.136   6.343  0.1424  0.2015  0.2688
 1114DPPI   GL115925   3.913   4.288   6.576  0.2411 -0.0103  0.1925
 1114DPPI   GL215926   4.110   4.329   6.837 -0.3111 -0.3700 -0.1187
 1114DPPI   C1A15927   3.543   4.341   6.962  0.2139 -0.1062 -0.1032
 1114DPPI   C2A15928   3.482   4.363   7.419  0.0881 -0.1238  0.0924
 1114DPPI   C3A15929   3.487   4.281   7.829  0.0589  0.4553 -0.1767
 1114DPPI   C4A15930   3.303   3.885   8.002 -0.2717 -0.1395  0.2909
 1114DPPI   C1B15931   3.946   4.285   7.258  0.0742 -0.0327 -0.2034
 1114DPPI   C2B15932   3.997   4.279   7.629  0.4662 -0.1237  0.1091
 1114DPPI   C3B15933   3.933   4.426   8.044  0.1083  0.1847 -0.1680
 1114DPPI   C4B15934   3.800   4.674   8.453  0.0782  0.2189 -0.1084
 1115DPPI    C115935  12.061  14.520   5.621 -0.1792  0.0065 -0.2149
 1115DPPI    C215936  12.266  14.438   5.288 -0.0349  0.0663 -0.1416
 1115DPPI    C315937  11.879  14.342   5.313  0.0261 -0.2069 -0.2154
 1115DPPI   PO415938  12.153  14.768   5.647  0.0267 -0.0344 -0.0889
 1115DPPI   GL115939  12.240  15.077   5.982 -0.1732  0.3106  0.1695
 1115DPPI   GL215940  12.290  14.791   6.187 -0.0679 -0.2167 -0.3285
 1115DPPI   C1A15941  12.334  15.356   6.308  0.0798  0.3323  0.0022
 1115DPPI   C2A15942  12.331  15.375   6.763 -0.0182 -0.0755  0.1329
 1115DPPI   C3A15943  12.459  15.385   7.172 -0.1100 -0.1356  0.0374
 1115DPPI   C4A15944  12.301  15.570   7.543 -0.0475  0.0259 -0.0344
 1115DPPI   C1B15945  12.409  14.844   6.650  0.1814 -0.0739  0.0163
 1115DPPI   C2B15946  12.509  14.915   7.096 -0.0280 -0.1090 -0.2810
 1115DPPI   C3B15947  12.809  14.886   7.466 -0.0162  0.0847  0.0879
 1115DPPI   C4B15948  13.005  14.889   7.839 -0.0002  0.4455  0.0538
 1116DPPI    C115949  11.285  14.950   5.660  0.0397 -0.0195  0.2009
 1116DPPI    C215950  11.483  15.202   5.900  0.0987  0.1892 -0.0612
 1116DPPI    C315951  11.164  15.330   5.697 -0.0669 -0.0383  0.0512
 1116DPPI   PO415952  11.180  14.778   5.805 -0.0349 -0.0624  0.1971
 1116DPPI   GL115953  11.255  14.596   6.127 -0.1317  0.0276  0.2708
 1116DPPI   GL215954  11.349  14.308   6.241 -0.1015  0.0718 -0.0998
 1116DPPI   C1A15955  11.377  14.916   6.442  0.0788 -0.0409 -0.3144
 1116DPPI   C2A15956  11.481  15.002   6.840  0.1178  0.1293  0.0350
 1116DPPI   C3A15957  11.586  15.032   7.268 -0.1733 -0.0690 -0.0426
 1116DPPI   C4A15958  11.774  14.743   7.553  0.2535  0.1198 -0.1749
 1116DPPI   C1B15959  11.407  14.482   6.655  0.4350  0.1430 -0.1592
 1116DPPI   C2B15960  11.385  14.486   7.090  0.1478 -0.0014  0.0347
 1116DPPI   C3B15961  11.359  14.453   7.467  0.4929 -0.0681 -0.0642
 1116DPPI   C4B15962  11.247  14.417   7.827 -0.2486 -0.0713 -0.4639
 1117DPPI    C115963   8.350  12.196   5.578 -0.0617  0.2842 -0.1421
 1117DPPI    C215964   8.006  12.392   5.632 -0.2100  0.0283 -0.1439
 1117DPPI    C315965   8.071  12.194   5.291 -0.0915  0.0138 -0.1132
 1117DPPI   PO415966   8.365  12.101   5.846  0.0500  0.1975  0.1610
 1117DPPI   GL115967   8.175  11.958   6.218  0.0784  0.2977  0.1017
 1117DPPI   GL215968   8.455  12.094   6.398 -0.2310 -0.2574 -0.1652
 1117DPPI   C1A15969   8.334  11.588   6.380  0.1920 -0.0167 -0.3259
 1117DPPI   C2A15970   8.555  11.248   6.693 -0.0079 -0.1287 -0.0604
 1117DPPI   C3A15971   8.677  10.943   6.947  0.2593  0.1259  0.2569
 1117DPPI   C4A15972   8.740  10.941   7.286 -0.1718 -0.1652  0.0676
 1117DPPI   C1B15973   8.200  11.896   6.822  0.2291  0.1316 -0.0186
 1117DPPI   C2B15974   8.146  11.824   7.277  0.1662 -0.1430  0.2709
 1117DPPI   C3B15975   8.321  11.715   7.649  0.0446  0.0388 -0.0422
 1117DPPI   C4B15976   8.471  11.792   8.057 -0.1313  0.0217 -0.0859
 1118DPPI    C115977  17.299   0.516   5.470 -0.1496 -0.1085  0.2462
 1118DPPI    C215978  16.952   0.562   5.275 -0.0229 -0.0511  0.0312
 1118DPPI    C315979  17.263   0.388   5.092  0.1309  0.1002  0.1456
 1118DPPI   PO415980  17.247   0.588   5.690  0.1243  0.0900  0.1251
 1118DPPI   GL115981  17.418   0.732   6.040 -0.0229  0.2661  0.1110
 1118DPPI   GL215982  17.195   0.814   6.302 -0.1890  0.2361  0.2552
 1118DPPI   C1A15983  17.651   0.837   6.426  0.2591 -0.2481  0.1018
 1118DPPI   C2A15984  17.688   0.654   6.908  0.0158 -0.3220 -0.2447
 1118DPPI   C3A15985  17.568   0.453   7.247 -0.0570 -0.0293 -0.1384
 1118DPPI   C4A15986  17.528   0.405   7.683  0.0196  0.0701 -0.1441
 1118DPPI   C1B15987  17.204   0.798   6.729 -0.3164 -0.1508  0.1348
 1118DPPI   C2B15988  17.123   0.576   7.059 -0.0341  0.0957 -0.0310
 1118DPPI   C3B15989  16.921   0.227   7.162  0.1360  0.3047  0.1151
 1118DPPI   C4B15990  16.840  -0.118   7.250 -0.3023 -0.1743 -0.1079
 1119DPPI    C115991   5.792   6.368   5.561 -0.2680 -0.1005 -0.0640
 1119DPPI    C215992   6.134   6.163   5.536 -0.3458 -0.2880  0.3273
 1119DPPI    C315993   5.890   6.184   5.219  0.0387 -0.1210  0.0325
 1119DPPI   PO415994   5.621   6.358   5.746 -0.3908 -0.0161 -0.2429
 1119DPPI   GL115995   5.648   6.321   6.130 -0.0550 -0.3101  0.3451
 1119DPPI   GL215996   5.699   6.018   6.246  0.0484 -0.1208 -0.1576
 1119DPPI   C1A15997   5.532   6.488   6.574  0.1352 -0.1298  0.2836
 1119DPPI   C2A15998   5.597   6.471   6.908  0.2371 -0.1163  0.0833
 1119DPPI   C3A15999   5.597   6.429   7.343  0.1309 -0.3672  0.0610
 1119DPPI   C4A16000   5.578   6.489   7.724 -0.2164 -0.0967 -0.0481
 1119DPPI   C1B16001   5.975   6.237   6.597  0.3187  0.2407  0.0105
 1119DPPI   C2B16002   6.069   6.481   6.973 -0.2454  0.1542 -0.1137
 1119DPPI   C3B16003   6.082   6.455   7.444  0.0335 -0.0399 -0.0642
 1119DPPI   C4B16004   6.097   6.386   7.890 -0.0985  0.2693 -0.1080
 1120DPPI    C116005  15.448   9.897   5.733 -0.0333  0.0528  0.2333
 1120DPPI    C216006  15.125   9.925   5.498  0.3250 -0.0964 -0.2975
 1120DPPI    C316007  15.223   9.574   5.662  0.0492  0.0174  0.1291
 1120DPPI   PO416008  15.386  10.088   5.893  0.0192 -0.2992  0.1179
 1120DPPI   GL116009  15.768  10.058   6.079 -0.1674  0.1364 -0.2485
 1120DPPI   GL216010  15.915   9.790   6.164 -0.1058 -0.2245 -0.0606
 1120DPPI   C1A16011  15.674   9.959   6.573  0.0271  0.0339  0.0306
 1120DPPI   C2A16012  15.714   9.922   6.990 -0.3350 -0.0773 -0.2822
 1120DPPI   C3A16013  15.673   9.836   7.356  0.0075  0.0357  0.0770
 1120DPPI   C4A16014  15.446   9.823   7.654  0.1998  0.0814  0.3372
 1120DPPI   C1B16015  16.149  10.111   6.452  0.1048 -0.1231  0.3396
 1120DPPI   C2B16016  16.159  10.255   6.854 -0.2021  0.1404 -0.0812
 1120DPPI   C3B16017  16.257  10.201   7.346 -0.0357  0.1810 -0.2603
 1120DPPI   C4B16018  16.397  10.426   7.633  0.1860  0.1143 -0.0513
 1121DPPI    C116019  17.760   6.071   5.784  0.1155 -0.1306 -0.0907
 1121DPPI    C216020  17.558   6.393   5.661  0.1036 -0.2877 -0.4975
 1121DPPI    C316021  17.943   6.425   5.762 -0.0364 -0.0461 -0.0108
 1121DPPI   PO416022  17.601   5.963   5.960  0.0805  0.1434 -0.0010
 1121DPPI   GL116023  17.459   6.233   6.235 -0.2671 -0.0631 -0.1162
 1121DPPI   GL216024  17.580   6.542   6.150 -0.0522  0.2512 -0.0487
 1121DPPI   C1A16025  17.262   6.139   6.676  0.0229  0.3833  0.0648
 1121DPPI   C2A16026  17.196   6.033   7.117 -0.1042 -0.4386 -0.0554
 1121DPPI   C3A16027  17.054   6.117   7.537  0.0934  0.0966 -0.2505
 1121DPPI   C4A16028  17.117   6.153   7.985  0.2244  0.0304 -0.3295
 1121DPPI   C1B16029  17.756   6.659   6.572 -0.2938  0.0901 -0.1091
 1121DPPI   C2B16030  17.876   6.795   6.992  0.1437 -0.0149  0.0008
 1121DPPI   C3B16031  17.936   6.845   7.458 -0.2088 -0.3067  0.0222
 1121DPPI   C4B16032  18.203   7.099   7.761 -0.0418  0.0275  0.0378
 1122DPPI    C116033   5.689   8.593   6.376 -0.0803 -0.1839 -0.0111
 1122DPPI    C216034   5.479   8.672   6.045 -0.1268 -0.0834  0.0419
 1122DPPI    C316035   5.572   8.968   6.298  0.1446 -0.1139 -0.0191
 1122DPPI   PO416036   5.529   8.426   6.478  0.1262  0.0651 -0.1535
 1122DPPI   GL116037   5.341   8.351   6.762  0.0820  0.0028  0.0108
 1122DPPI   GL216038   5.156   8.109   6.754  0.0734  0.3448  0.0177
 1122DPPI   C1A16039   5.171   8.594   7.038  0.2088 -0.2052 -0.0794
 1122DPPI   C2A16040   5.170   8.608   7.456  0.2152 -0.0812  0.0981
 1122DPPI   C3A16041   5.165   8.660   7.799  0.0565 -0.0520  0.1963
 1122DPPI   C4A16042   5.346   8.806   8.227 -0.1776 -0.1791  0.1126
 1122DPPI   C1B16043   5.041   8.160   7.226  0.3720  0.3969 -0.0923
 1122DPPI   C2B16044   4.809   8.255   7.533 -0.1235 -0.0863  0.3156
 1122DPPI   C3B16045   4.896   8.297   7.960 -0.0040 -0.0830  0.0011
 1122DPPI   C4B16046   5.036   8.331   8.347 -0.0599  0.1045 -0.1581
 1123DPPI    C116047   8.928  17.078   6.178  0.0644 -0.0310 -0.0965
 1123DPPI    C216048   9.198  17.144   5.891 -0.0904 -0.0094 -0.2389
 1123DPPI    C316049   8.975  16.812   5.884 -0.1387  0.0215 -0.1786
 1123DPPI   PO416050   8.920  17.392   6.248 -0.1032  0.2790  0.2932
 1123DPPI   GL116051   8.875  17.727   6.689 -0.3899  0.1044  0.0425
 1123DPPI   GL216052   9.078  17.944   6.728 -0.1991  0.0099 -0.0138
 1123DPPI   C1A16053   8.583  17.753   6.949 -0.0372  0.1018 -0.1171
 1123DPPI   C2A16054   8.545  17.791   7.358  0.0253 -0.0709  0.1214
 1123DPPI   C3A16055   8.341  17.936   7.744  0.2600 -0.0069  0.2823
 1123DPPI   C4A16056   7.935  18.036   7.678  0.0128 -0.0926  0.1554
 1123DPPI   C1B16057   8.951  17.948   7.162 -0.1930  0.2169 -0.2148
 1123DPPI   C2B16058   8.884  18.039   7.596  0.2028 -0.0114  0.0477
 1123DPPI   C3B16059   9.035  18.240   7.973 -0.0495 -0.3664 -0.1368
 1123DPPI   C4B16060   9.284  18.077   8.360 -0.0887 -0.0064  0.1653
 1124DPPI    C116061   3.957  17.880   6.042 -0.1012  0.0577  0.0060
 1124DPPI    C216062   3.769  18.206   6.177  0.1106  0.0937  0.2208
 1124DPPI    C316063   3.986  18.225   5.842  0.0311  0.1442  0.1719
 1124DPPI   PO416064   4.158  17.828   6.230  0.3464  0.0422  0.1290
 1124DPPI   GL116065   4.030  17.803   6.667 -0.1340  0.3466 -0.3312
 1124DPPI   GL216066   3.645  17.937   6.577  0.0619  0.0970 -0.2484
 1124DPPI   C1A16067   3.925  17.779   7.072 -0.2183  0.1975  0.0832
 1124DPPI   C2A16068   3.936  17.534   7.438 -0.2964 -0.0371 -0.0030
 1124DPPI   C3A16069   3.825  17.296   7.831  0.3643  0.2485 -0.3176
 1124DPPI   C4A16070   3.809  17.453   8.263 -0.2291  0.1755  0.1765
 1124DPPI   C1B16071   3.586  18.130   6.958  0.1377  0.0869  0.1060
 1124DPPI   C2B16072   3.538  17.938   7.351  0.1007 -0.0147 -0.3242
 1124DPPI   C3B16073   3.684  17.862   7.716 -0.0041  0.2447 -0.0272
 1124DPPI   C4B16074   3.970  17.980   8.101 -0.1682 -0.1375  0.0913
 1125DPPI    C116075  10.725   2.526   5.888 -0.1438 -0.0044  0.0534
 1125DPPI    C216076  10.556   2.562   5.527 -0.1353 -0.0069  0.0492
 1125DPPI    C316077  10.871   2.320   5.577 -0.0534  0.0951  0.0294
 1125DPPI   PO416078  10.555   2.671   6.195 -0.2019 -0.0471  0.0452
 1125DPPI   GL116079  10.385   2.386   6.583  0.2179  0.0731  0.1927
 1125DPPI   GL216080  10.062   2.437   6.504  0.2588  0.0330  0.1259
 1125DPPI   C1A16081  10.335   2.365   7.012  0.0750 -0.1163  0.2499
 1125DPPI   C2A16082  10.353   2.312   7.372 -0.0480  0.1066  0.1521
 1125DPPI   C3A16083  10.417   2.148   7.804  0.0585 -0.2043 -0.2645
 1125DPPI   C4A16084  10.640   2.020   8.149  0.0960  0.3721  0.1530
 1125DPPI   C1B16085   9.807   2.655   6.853 -0.3288  0.0201 -0.0980
 1125DPPI   C2B16086   9.690   2.698   7.350 -0.2793 -0.0018  0.0175
 1125DPPI   C3B16087   9.775   2.705   7.788  0.2111  0.2307 -0.0238
 1125DPPI   C4B16088  10.102   2.675   8.053  0.0244  0.0236  0.1175
 1126DPPI    C116089  10.272   5.801   5.839 -0.1520  0.1252  0.2954
 1126DPPI    C216090  10.089   6.120   5.682 -0.1275 -0.0028  0.0003
 1126DPPI    C316091  10.429   5.985   5.520 -0.0334 -0.0625  0.2435
 1126DPPI   PO416092  10.243   5.796   6.083  0.0718 -0.1144  0.1531
 1126DPPI   GL116093  10.515   5.922   6.464  0.0668 -0.1270 -0.2216
 1126DPPI   GL216094  10.430   5.595   6.583  0.0561 -0.0573  0.0090
 1126DPPI   C1A16095  10.696   5.943   6.927 -0.1774  0.2151  0.0347
 1126DPPI   C2A16096  10.767   6.018   7.365 -0.2398 -0.0500 -0.0899
 1126DPPI   C3A16097  10.835   6.137   7.757  0.2222  0.1203 -0.2480
 1126DPPI   C4A16098  10.988   6.162   8.166  0.1335 -0.2395  0.1111
 1126DPPI   C1B16099  10.318   5.535   7.001  0.1963  0.0801  0.0132
 1126DPPI   C2B16100  10.367   5.563   7.432  0.0157 -0.0633  0.0066
 1126DPPI   C3B16101  10.274   5.592   7.892 -0.1153 -0.2070 -0.0290
 1126DPPI   C4B16102  10.129   5.666   8.339 -0.0625 -0.3600  0.0842
 1127DPPI    C116103   5.569   0.482   5.519  0.4637  0.1140  0.1082
 1127DPPI    C216104   5.665   0.683   5.187 -0.1529 -0.0014 -0.1542
 1127DPPI    C316105   5.767   0.298   5.225 -0.0208  0.0311 -0.1785
 1127DPPI   PO416106   5.481   0.672   5.702 -0.2926  0.0633  0.0877
 1127DPPI   GL116107   5.352   0.689   6.111  0.0826 -0.0018  0.1017
 1127DPPI   GL216108   5.388   1.022   6.117 -0.1453 -0.0641  0.0153
 1127DPPI   C1A16109   5.184   0.491   6.494  0.1282 -0.4073  0.0005
 1127DPPI   C2A16110   5.055   0.242   6.866 -0.1826 -0.2779 -0.0111
 1127DPPI   C3A16111   4.846   0.147   7.217 -0.1893  0.0743  0.2043
 1127DPPI   C4A16112   4.800  -0.061   7.587 -0.0336 -0.1195  0.0060
 1127DPPI   C1B16113   5.069   0.977   6.539  0.1114 -0.1789  0.0940
 1127DPPI   C2B16114   5.044   0.843   6.903  0.0326  0.1546  0.0187
 1127DPPI   C3B16115   4.989   0.639   7.216 -0.0774 -0.1610 -0.1023
 1127DPPI   C4B16116   4.806   0.537   7.647 -0.0146  0.2164  0.1384
 1128DPPI    C116117  16.432  11.875   5.304 -0.1191 -0.0909  0.1739
 1128DPPI    C216118  16.433  11.739   4.928  0.0047  0.2897  0.0325
 1128DPPI    C316119  16.098  11.723   5.145 -0.0271 -0.0753 -0.0371
 1128DPPI   PO416120  16.601  11.836   5.431 -0.1269 -0.0701 -0.1343
 1128DPPI   GL116121  16.722  11.942   5.895 -0.0281 -0.0849 -0.1035
 1128DPPI   GL216122  16.324  12.083   5.921  0.1969  0.0194 -0.2248
 1128DPPI   C1A16123  16.738  11.933   6.327 -0.1688 -0.0454  0.1275
 1128DPPI   C2A16124  16.937  11.700   6.613 -0.1157  0.3186 -0.1630
 1128DPPI   C3A16125  16.972  11.525   7.037 -0.1016  0.3611  0.1516
 1128DPPI   C4A16126  17.103  11.471   7.397  0.2665 -0.1416  0.1592
 1128DPPI   C1B16127  16.239  11.791   6.253 -0.1866  0.4378  0.1532
 1128DPPI   C2B16128  16.373  11.818   6.696  0.0262 -0.2504  0.1843
 1128DPPI   C3B16129  16.499  11.770   7.175 -0.1908 -0.0918 -0.1206
 1128DPPI   C4B16130  16.659  11.577   7.543  0.2252 -0.2385  0.1798
 1129DPPI    C116131   4.029   8.191   5.960 -0.1623 -0.0563  0.0442
 1129DPPI    C216132   4.156   7.834   6.088  0.3392  0.2073  0.3132
 1129DPPI    C316133   4.281   7.976   5.735 -0.1573 -0.0354  0.0297
 1129DPPI   PO416134   4.096   8.370   6.146  0.2800  0.1113  0.1271
 1129DPPI   GL116135   4.055   8.548   6.607  0.0453  0.0188 -0.0363
 1129DPPI   GL216136   3.848   8.830   6.528  0.0502 -0.0055 -0.2829
 1129DPPI   C1A16137   4.268   8.527   6.922 -0.1943 -0.1966 -0.1218
 1129DPPI   C2A16138   4.193   8.657   7.384  0.2536 -0.2139 -0.1160
 1129DPPI   C3A16139   4.297   8.457   7.854  0.0212  0.1320  0.0464
 1129DPPI   C4A16140   4.493   8.069   7.788 -0.2849 -0.1840 -0.1564
 1129DPPI   C1B16141   3.572   8.679   6.799 -0.1719  0.2233  0.1227
 1129DPPI   C2B16142   3.281   8.514   7.106 -0.1543  0.0144 -0.1639
 1129DPPI   C3B16143   3.186   8.504   7.547  0.0003 -0.1017 -0.0472
 1129DPPI   C4B16144   3.180   8.641   7.899 -0.0631  0.5294 -0.0469
 1130DPPI    C116145  10.737  13.231   6.097 -0.0437  0.0377 -0.0733
 1130DPPI    C216146  11.016  13.470   5.940  0.0939 -0.0362  0.0550
 1130DPPI    C316147  10.940  13.115   5.773  0.1640 -0.0687  0.0922
 1130DPPI   PO416148  10.823  13.236   6.386  0.0434 -0.3643 -0.1472
 1130DPPI   GL116149  10.706  13.184   6.788 -0.2825 -0.2123  0.0205
 1130DPPI   GL216150  10.645  12.821   6.656  0.0435  0.1306  0.1337
 1130DPPI   C1A16151  10.848  13.260   7.284 -0.2002  0.0221  0.1203
 1130DPPI   C2A16152  10.941  13.234   7.705  0.2154  0.3019 -0.1426
 1130DPPI   C3A16153  11.071  12.932   8.110  0.0469  0.2157 -0.0943
 1130DPPI   C4A16154  11.195  12.915   8.449 -0.1796 -0.4171  0.0165
 1130DPPI   C1B16155  10.618  12.869   7.152 -0.0156 -0.1179 -0.0619
 1130DPPI   C2B16156  10.675  12.788   7.515  0.2407 -0.1580 -0.2292
 1130DPPI   C3B16157  10.957  12.594   7.812  0.0929 -0.1005  0.0453
 1130DPPI   C4B16158  11.337  12.510   7.904 -0.0629  0.0580  0.0209
 1131DPPI    C116159  16.010  10.809   5.483  0.0004  0.0399  0.3054
 1131DPPI    C216160  15.726  11.048   5.632 -0.1639  0.0468 -0.0086
 1131DPPI    C316161  15.672  10.872   5.277  0.2182  0.0328 -0.0636
 1131DPPI   PO416162  16.204  10.990   5.549  0.0443  0.0182  0.1874
 1131DPPI   GL116163  16.374  10.924   5.921  0.2637  0.0659  0.0642
 1131DPPI   GL216164  16.447  11.077   6.131  0.1968  0.0241  0.0099
 1131DPPI   C1A16165  16.248  10.619   6.258 -0.1416  0.1571 -0.0178
 1131DPPI   C2A16166  16.117  10.747   6.624 -0.1934  0.1743  0.1907
 1131DPPI   C3A16167  16.187  10.663   7.097  0.0516 -0.0823  0.1973
 1131DPPI   C4A16168  15.960  10.663   7.478 -0.0339 -0.0002  0.1056
 1131DPPI   C1B16169  16.649  10.802   6.425  0.0369  0.2426 -0.1499
 1131DPPI   C2B16170  16.572  10.555   6.816  0.1347  0.1641  0.0435
 1131DPPI   C3B16171  16.646  10.576   7.157 -0.0282  0.2458 -0.3705
 1131DPPI   C4B16172  16.883  10.676   7.537 -0.0541  0.2503 -0.1159
 1132DPPI    C116173   5.296  12.460   6.002 -0.4088 -0.0321  0.2230
 1132DPPI    C216174   5.465  12.684   5.717 -0.0287  0.0520  0.5074
 1132DPPI    C316175   5.118  12.797   5.879 -0.1443  0.1113  0.2245
 1132DPPI   PO416176   5.539  12.342   6.150  0.2179  0.1412  0.0343
 1132DPPI   GL116177   5.459  12.520   6.609  0.1055 -0.0480  0.0982
 1132DPPI   GL216178   5.733  12.585   6.568  0.1628  0.0469  0.0210
 1132DPPI   C1A16179   5.218  12.678   6.882  0.1527 -0.2939  0.3029
 1132DPPI   C2A16180   5.450  12.720   7.269 -0.2068  0.1551  0.1367
 1132DPPI   C3A16181   5.670  12.743   7.570 -0.3054  0.1087  0.0007
 1132DPPI   C4A16182   5.644  12.913   7.891 -0.1304 -0.0497 -0.0475
 1132DPPI   C1B16183   5.934  12.449   6.947 -0.3035 -0.0506  0.4252
 1132DPPI   C2B16184   5.860  12.373   7.279  0.0788  0.4765  0.1312
 1132DPPI   C3B16185   6.011  12.427   7.795 -0.2618  0.1129  0.3448
 1132DPPI   C4B16186   6.246  12.420   8.183 -0.2221  0.0465  0.0319
 1133DPPI    C116187   7.303   0.819   5.813 -0.0919  0.3041  0.1640
 1133DPPI    C216188   7.196   1.098   5.547  0.2804  0.0697 -0.2476
 1133DPPI    C316189   7.124   0.712   5.471  0.0311  0.0245  0.1842
 1133DPPI   PO416190   7.236   0.880   6.003 -0.1272 -0.0067 -0.4449
 1133DPPI   GL116191   7.138   0.931   6.399  0.2383  0.1136 -0.1853
 1133DPPI   GL216192   6.824   0.988   6.295 -0.0796 -0.1533  0.1444
 1133DPPI   C1A16193   7.034   0.936   6.776 -0.3115 -0.0346  0.0702
 1133DPPI   C2A16194   7.122   0.951   7.202  0.0640  0.2519  0.3168
 1133DPPI   C3A16195   6.945   1.037   7.544  0.0022  0.2277 -0.0997
 1133DPPI   C4A16196   6.902   1.180   7.984  0.0980 -0.2593  0.1869
 1133DPPI   C1B16197   6.870   1.386   6.530 -0.0894  0.0632  0.1128
 1133DPPI   C2B16198   6.835   1.429   6.911  0.0979 -0.2472 -0.0094
 1133DPPI   C3B16199   6.905   1.502   7.301 -0.4493  0.0537 -0.1693
 1133DPPI   C4B16200   6.672   1.419   7.661  0.2188 -0.1401 -0.2875
 1134DPPI    C116201   9.418  13.726   6.036  0.1951 -0.0673  0.1227
 1134DPPI    C216202   9.285  13.380   5.886 -0.1397  0.1416 -0.0770
 1134DPPI    C316203   9.674  13.471   5.865 -0.0457 -0.2271 -0.0061
 1134DPPI   PO416204   9.170  13.791   6.300 -0.1313  0.3375  0.1634
 1134DPPI   GL116205   8.968  13.638   6.630 -0.1277  0.2914 -0.3214
 1134DPPI   GL216206   9.122  13.927   6.794 -0.0474  0.1122 -0.0929
 1134DPPI   C1A16207   8.812  13.615   6.959 -0.2641 -0.0480  0.3841
 1134DPPI   C2A16208   8.802  13.596   7.352 -0.0980  0.0419  0.2277
 1134DPPI   C3A16209   8.735  13.463   7.811 -0.0637  0.0673  0.0210
 1134DPPI   C4A16210   8.554  13.137   8.017  0.0738 -0.1193  0.0495
 1134DPPI   C1B16211   9.243  13.761   7.231  0.0727  0.0054  0.0664
 1134DPPI   C2B16212   9.128  13.877   7.617  0.1740 -0.1896 -0.1451
 1134DPPI   C3B16213   8.965  13.832   8.055  0.2838  0.4012 -0.1463
 1134DPPI   C4B16214   8.882  14.056   8.419  0.1833  0.1033 -0.2841
 1135DPPI    C116215   2.091  12.148   5.599 -0.1832  0.0463 -0.1907
 1135DPPI    C216216   2.146  11.883   5.305 -0.1251 -0.0071 -0.1319
 1135DPPI    C316217   2.259  12.263   5.255 -0.0419 -0.0339 -0.1490
 1135DPPI   PO416218   1.877  11.957   5.781  0.2499 -0.1377 -0.0504
 1135DPPI   GL116219   1.718  11.859   6.121  0.1652  0.2274  0.1621
 1135DPPI   GL216220   1.619  12.047   6.331  0.2555 -0.1867  0.2364
 1135DPPI   C1A16221   1.760  11.691   6.555 -0.1644 -0.0639  0.0889
 1135DPPI   C2A16222   1.693  11.552   7.052 -0.0856 -0.2357  0.1342
 1135DPPI   C3A16223   1.574  11.388   7.481 -0.1239  0.0261 -0.0134
 1135DPPI   C4A16224   1.526  11.293   7.902 -0.3299  0.0446  0.1252
 1135DPPI   C1B16225   1.367  12.292   6.486 -0.0555 -0.1279 -0.2341
 1135DPPI   C2B16226   1.390  12.627   6.851 -0.0490 -0.2933 -0.1961
 1135DPPI   C3B16227   1.309  12.842   7.304  0.0558 -0.2056 -0.0206
 1135DPPI   C4B16228   1.425  12.794   7.773 -0.0737 -0.0057  0.0893
 1136DPPI    C116229   3.822  10.196   6.123  0.3532  0.1785  0.3315
 1136DPPI    C216230   3.885  10.293   5.740  0.0525 -0.1272  0.1984
 1136DPPI    C316231   4.191  10.179   5.971  0.2125 -0.0949  0.0054
 1136DPPI   PO416232   3.561  10.412   6.201 -0.1893 -0.0875  0.1312
 1136DPPI   GL116233   3.289  10.517   6.421  0.0077 -0.1122  0.0237
 1136DPPI   GL216234   3.393  10.295   6.654 -0.1358 -0.1902 -0.0411
 1136DPPI   C1A16235   3.064  10.546   6.961 -0.2687  0.0676  0.1466
 1136DPPI   C2A16236   3.172  10.597   7.309  0.1523 -0.1155  0.0245
 1136DPPI   C3A16237   3.282  10.524   7.707 -0.0988  0.0065  0.0639
 1136DPPI   C4A16238   3.145  10.616   8.106  0.0594  0.2433  0.1658
 1136DPPI   C1B16239   3.410  10.147   7.151  0.0338  0.2932  0.3231
 1136DPPI   C2B16240   3.480  10.020   7.666  0.1158  0.1782 -0.0347
 1136DPPI   C3B16241   3.590  10.361   8.088 -0.3425  0.0299 -0.1774
 1136DPPI   C4B16242   3.625  10.666   8.448 -0.1279 -0.3350 -0.1404
 1137DPPI    C116243   9.449   7.962   5.927 -0.0320 -0.1260 -0.0824
 1137DPPI    C216244   9.223   8.068   5.614  0.0990  0.0221 -0.1277
 1137DPPI    C316245   9.211   7.693   5.752 -0.3559  0.0857  0.0219
 1137DPPI   PO416246   9.385   8.078   6.187 -0.0806  0.2502  0.4519
 1137DPPI   GL116247   9.194   8.000   6.598  0.0576  0.1253  0.1740
 1137DPPI   GL216248   8.914   8.158   6.775 -0.5281  0.1184  0.1231
 1137DPPI   C1A16249   9.263   7.863   6.926  0.3335  0.1107 -0.1387
 1137DPPI   C2A16250   9.264   7.704   7.359 -0.0433 -0.2107 -0.1338
 1137DPPI   C3A16251   9.316   7.766   7.850  0.1183  0.0235 -0.0362
 1137DPPI   C4A16252   9.277   7.651   8.275 -0.1936 -0.1271  0.1384
 1137DPPI   C1B16253   8.853   7.957   7.231 -0.0171  0.2132 -0.1538
 1137DPPI   C2B16254   8.934   8.004   7.697  0.1336 -0.0561 -0.0282
 1137DPPI   C3B16255   9.031   8.153   8.097 -0.1504 -0.1747 -0.0948
 1137DPPI   C4B16256   8.883   7.949   8.454 -0.2069  0.3628  0.1827
 1138DPPI    C116257   4.727   4.917   6.168 -0.2030 -0.3297 -0.1061
 1138DPPI    C216258   4.694   5.221   5.911  0.0843 -0.2062 -0.0008
 1138DPPI    C316259   4.798   4.859   5.779 -0.1625 -0.2381 -0.1126
 1138DPPI   PO416260   4.572   5.046   6.381  0.1808  0.0278 -0.2042
 1138DPPI   GL116261   4.765   5.088   6.800 -0.4290  0.1176 -0.0337
 1138DPPI   GL216262   5.052   5.079   6.611  0.1661  0.3290  0.1129
 1138DPPI   C1A16263   4.527   5.092   7.119 -0.0661  0.0743  0.0695
 1138DPPI   C2A16264   4.488   5.140   7.605 -0.2187  0.0876  0.0479
 1138DPPI   C3A16265   4.271   5.331   8.039  0.1524  0.2121 -0.0651
 1138DPPI   C4A16266   3.900   5.284   8.381 -0.0591 -0.0771 -0.1741
 1138DPPI   C1B16267   5.048   5.318   7.165  0.0715  0.0314  0.2531
 1138DPPI   C2B16268   4.967   5.261   7.694 -0.1396  0.1285  0.1353
 1138DPPI   C3B16269   4.932   5.238   8.115 -0.1722 -0.0364  0.1393
 1138DPPI   C4B16270   4.832   5.106   8.607  0.0099  0.1226  0.1300
 1139DPPI    C116271  16.333  11.559   5.775 -0.1276 -0.2434 -0.1336
 1139DPPI    C216272  16.045  11.349   5.955 -0.2626 -0.1298 -0.2150
 1139DPPI    C316273  16.003  11.459   5.573 -0.1697 -0.0002 -0.1886
 1139DPPI   PO416274  16.540  11.468   5.774  0.1790  0.0281 -0.1829
 1139DPPI   GL116275  16.768  11.472   6.052 -0.1581 -0.1718  0.1804
 1139DPPI   GL216276  16.929  11.178   6.009  0.3358  0.1029  0.5524
 1139DPPI   C1A16277  16.656  11.297   6.510 -0.1236  0.1688  0.1010
 1139DPPI   C2A16278  16.429  11.130   6.962 -0.0950  0.5003 -0.0801
 1139DPPI   C3A16279  16.411  10.936   7.482  0.1259  0.1116 -0.0812
 1139DPPI   C4A16280  16.647  10.841   7.943  0.0376  0.1052  0.1808
 1139DPPI   C1B16281  17.092  11.002   6.371 -0.0376  0.0412 -0.0819
 1139DPPI   C2B16282  17.043  11.041   6.818  0.0032  0.1387  0.3724
 1139DPPI   C3B16283  16.883  11.086   7.264 -0.4002 -0.1323 -0.2075
 1139DPPI   C4B16284  16.878  11.220   7.753 -0.1522 -0.2090  0.1191
 1140DPPI    C116285  15.448   8.237   6.302  0.4102 -0.4228 -0.0961
 1140DPPI    C216286  15.297   8.375   5.958  0.2153  0.0191  0.1576
 1140DPPI    C316287  15.639   8.166   5.958 -0.0766 -0.4867 -0.3611
 1140DPPI   PO416288  15.226   8.095   6.412  0.3485  0.1770  0.2918
 1140DPPI   GL116289  14.980   8.065   6.710 -0.0029  0.1021 -0.0331
 1140DPPI   GL216290  15.289   8.044   6.900 -0.2823 -0.2803 -0.1488
 1140DPPI   C1A16291  14.757   8.369   6.938  0.0607  0.1348 -0.0994
 1140DPPI   C2A16292  14.534   8.272   7.370 -0.2774  0.3181  0.1713
 1140DPPI   C3A16293  14.505   8.046   7.698 -0.0148  0.0385  0.2027
 1140DPPI   C4A16294  14.694   7.733   7.917  0.3105 -0.1594 -0.0405
 1140DPPI   C1B16295  15.362   8.036   7.285 -0.2355  0.2162 -0.1481
 1140DPPI   C2B16296  15.279   7.999   7.683  0.0516  0.3608  0.3219
 1140DPPI   C3B16297  15.556   7.710   7.926  0.2395 -0.0096 -0.0470
 1140DPPI   C4B16298  15.969   7.589   7.932 -0.0816  0.3282 -0.2127
 1141DPPI    C116299  13.127   3.797   5.456 -0.0233 -0.2628 -0.0580
 1141DPPI    C216300  13.037   3.412   5.519  0.1484 -0.3097 -0.0958
 1141DPPI    C316301  13.226   3.521   5.184 -0.2609 -0.1363 -0.2773
 1141DPPI   PO416302  13.230   3.850   5.755  0.0887  0.2840 -0.1174
 1141DPPI   GL116303  13.443   4.117   6.095  0.1247 -0.0584 -0.0975
 1141DPPI   GL216304  13.594   4.411   5.994  0.1639  0.0365 -0.3065
 1141DPPI   C1A16305  13.408   4.232   6.539  0.0335 -0.0491  0.0003
 1141DPPI   C2A16306  13.472   4.162   7.035  0.0542 -0.1301 -0.0318
 1141DPPI   C3A16307  13.689   4.097   7.475  0.1857  0.0010  0.0284
 1141DPPI   C4A16308  13.703   4.196   7.847  0.1124 -0.0457 -0.0693
 1141DPPI   C1B16309  13.831   4.427   6.305  0.2444  0.2295 -0.1915
 1141DPPI   C2B16310  13.815   4.454   6.814  0.0517 -0.1386  0.2202
 1141DPPI   C3B16311  13.927   4.519   7.277  0.3691 -0.1224  0.3166
 1141DPPI   C4B16312  13.883   4.635   7.701  0.2479  0.1892 -0.0928
 1142DPPI    C116313  14.281  14.958   5.123  0.0495  0.0797 -0.0817
 1142DPPI    C216314  13.931  15.023   4.940 -0.1515  0.1807  0.3267
 1142DPPI    C316315  14.176  15.330   5.020  0.1132  0.0906 -0.1079
 1142DPPI   PO416316  14.187  14.762   5.343 -0.3240  0.1580  0.1929
 1142DPPI   GL116317  14.151  14.791   5.765 -0.2151  0.1658  0.2654
 1142DPPI   GL216318  14.144  15.064   5.921  0.0496 -0.0525 -0.2486
 1142DPPI   C1A16319  14.238  14.652   6.169  0.2534  0.2575 -0.2600
 1142DPPI   C2A16320  14.391  14.713   6.545  0.3966  0.1715  0.1121
 1142DPPI   C3A16321  14.493  14.705   6.938 -0.2359 -0.1097  0.2840
 1142DPPI   C4A16322  14.566  15.037   7.284 -0.2295  0.3696 -0.1946
 1142DPPI   C1B16323  14.086  15.051   6.386  0.0987  0.1060 -0.0042
 1142DPPI   C2B16324  14.164  15.108   6.841 -0.0699 -0.1296  0.1112
 1142DPPI   C3B16325  14.142  15.268   7.345  0.2272  0.2589  0.0269
 1142DPPI   C4B16326  14.100  15.142   7.675  0.0830  0.4067 -0.2950
 1143DPPI    C116327  15.923  17.720   5.464  0.0213 -0.3602 -0.1624
 1143DPPI    C216328  16.320  17.758   5.503 -0.0209  0.0110 -0.0529
 1143DPPI    C316329  16.128  17.950   5.209 -0.1836  0.2616  0.2121
 1143DPPI   PO416330  15.831  17.774   5.649  0.0406  0.0857  0.3108
 1143DPPI   GL116331  15.971  17.956   5.941 -0.0671  0.3256 -0.0968
 1143DPPI   GL216332  15.861  18.293   5.950  0.1266 -0.0122 -0.0972
 1143DPPI   C1A16333  16.014  18.023   6.418 -0.0454  0.2920 -0.0886
 1143DPPI   C2A16334  16.032  17.948   6.901  0.1222  0.0044  0.1679
 1143DPPI   C3A16335  16.038  17.910   7.325  0.1214  0.2671  0.0429
 1143DPPI   C4A16336  16.140  17.819   7.813  0.1433 -0.1273 -0.0627
 1143DPPI   C1B16337  15.685  18.412   6.347 -0.2734 -0.0546 -0.2064
 1143DPPI   C2B16338  15.717  18.296   6.736  0.0582  0.0315 -0.0620
 1143DPPI   C3B16339  15.780  18.319   7.170 -0.0700 -0.0137 -0.1557
 1143DPPI   C4B16340  15.841  18.294   7.599  0.0229 -0.3274 -0.3190
 1144DPPI    C116341   1.414   1.822   5.457 -0.0405  0.1167  0.1590
 1144DPPI    C216342   1.480   2.075   5.154  0.0101 -0.0270  0.0489
 1144DPPI    C316343   1.773   1.834   5.281  0.0295  0.1251  0.3008
 1144DPPI   PO416344   1.266   1.944   5.749  0.0229  0.3472 -0.0865
 1144DPPI   GL116345   1.284   1.966   6.197 -0.0343  0.3352  0.0578
 1144DPPI   GL216346   1.057   2.073   6.532 -0.0434  0.0243 -0.0727
 1144DPPI   C1A16347   1.472   2.333   6.432 -0.0034 -0.0408 -0.0978
 1144DPPI   C2A16348   1.418   2.172   6.830 -0.1038 -0.3176 -0.1684
 1144DPPI   C3A16349   1.458   2.146   7.211  0.0809 -0.0659  0.2563
 1144DPPI   C4A16350   1.633   1.801   7.323 -0.3004  0.0561 -0.0211
 1144DPPI   C1B16351   0.982   2.067   6.979  0.1063 -0.2358 -0.2307
 1144DPPI   C2B16352   0.806   2.166   7.451 -0.0229  0.2070  0.0570
 1144DPPI   C3B16353   0.451   2.128   7.760  0.1161  0.2788 -0.1492
 1144DPPI   C4B16354   0.440   1.868   8.120  0.1910  0.1864  0.0673
 1145DPPI    C116355   6.333  11.839   6.151 -0.0715  0.0887  0.0557
 1145DPPI    C216356   6.474  11.723   5.795  0.0276 -0.0677  0.1446
 1145DPPI    C316357   6.160  11.971   5.815 -0.0208 -0.1118 -0.0506
 1145DPPI   PO416358   6.280  11.607   6.405  0.3126 -0.0084 -0.0601
 1145DPPI   GL116359   6.061  11.715   6.717  0.1602  0.1381  0.0573
 1145DPPI   GL216360   6.259  11.544   6.854  0.4871  0.1368 -0.2386
 1145DPPI   C1A16361   5.814  11.493   7.058 -0.2616 -0.2987  0.2330
 1145DPPI   C2A16362   5.806  11.399   7.463  0.3768  0.0439 -0.0314
 1145DPPI   C3A16363   5.862  11.291   7.896 -0.0635 -0.1628  0.1867
 1145DPPI   C4A16364   5.705  11.199   8.276 -0.0192  0.1762 -0.0927
 1145DPPI   C1B16365   6.276  11.467   7.236  0.0411  0.1296 -0.1204
 1145DPPI   C2B16366   6.273  11.547   7.633 -0.0364  0.0668 -0.0225
 1145DPPI   C3B16367   6.209  11.568   8.068 -0.2852  0.0774  0.2443
 1145DPPI   C4B16368   6.003  11.779   8.442 -0.0829 -0.4461 -0.0006
 1146DPPI    C116369   4.232  13.339   5.728 -0.1112 -0.1466 -0.0174
 1146DPPI    C216370   4.511  13.612   5.641  0.0326 -0.2369  0.1532
 1146DPPI    C316371   4.218  13.535   5.380  0.3086 -0.3198 -0.1388
 1146DPPI   PO416372   4.090  13.467   5.924 -0.0973  0.2582 -0.1923
 1146DPPI   GL116373   4.072  13.631   6.328  0.2388 -0.2502 -0.2099
 1146DPPI   GL216374   4.258  13.349   6.418  0.1591 -0.0384 -0.1440
 1146DPPI   C1A16375   4.061  13.676   6.848 -0.0390  0.1171  0.1260
 1146DPPI   C2A16376   4.050  13.535   7.257 -0.1545 -0.0414 -0.1218
 1146DPPI   C3A16377   4.103  13.400   7.722 -0.0283 -0.0969  0.2592
 1146DPPI   C4A16378   3.870  13.084   7.772 -0.1820  0.2031 -0.0380
 1146DPPI   C1B16379   4.454  13.370   6.833  0.1142  0.1433  0.1450
 1146DPPI   C2B16380   4.458  13.259   7.223 -0.0597 -0.2395 -0.1090
 1146DPPI   C3B16381   4.655  13.364   7.666  0.1023  0.0852  0.0440
 1146DPPI   C4B16382   5.000  13.331   7.990 -0.1678 -0.1033  0.3219
 1147PYPI    C116383   4.830  13.982   5.865  0.2335  0.0178  0.0257
 1147PYPI    C216384   4.693  14.354   5.817  0.0445 -0.0713 -0.1433
 1147PYPI    C316385   4.900  14.179   5.524  0.3850  0.0024  0.0471
 1147PYPI   PO416386   4.858  13.985   6.132  0.0645 -0.1177  0.0183
 1147PYPI   GL116387   5.069  13.700   6.500  0.0417 -0.2610  0.4336
 1147PYPI   GL216388   5.295  13.711   6.654 -0.0167 -0.1156  0.0741
 1147PYPI   C1A16389   4.944  13.512   6.973  0.0963  0.0713  0.1691
 1147PYPI   C2A16390   5.000  13.576   7.399  0.4582  0.0555 -0.1694
 1147PYPI   D3A16391   4.833  13.866   7.824  0.2128  0.1045 -0.0454
 1147PYPI   C4A16392   4.503  14.143   8.179  0.0146 -0.4421  0.0284
 1147PYPI   C1B16393   5.485  13.606   7.076 -0.1383  0.1880 -0.0203
 1147PYPI   C2B16394   5.501  13.431   7.560 -0.1338  0.2366  0.2257
 1147PYPI   C3B16395   5.566  13.421   8.000 -0.3199 -0.0726  0.0500
 1147PYPI   C4B16396   5.677  13.322   8.368  0.0428 -0.0966 -0.0753
 1148PYPI    C116397  17.671  10.664   5.467  0.0010  0.0559  0.1406
 1148PYPI    C216398  17.675  10.305   5.293 -0.3654  0.0172  0.2038
 1148PYPI    C316399  17.558  10.626   5.085 -0.1808  0.0776  0.1914
 1148PYPI   PO416400  17.783  10.564   5.660 -0.0881 -0.1221  0.1658
 1148PYPI   GL116401  17.971  10.532   6.056  0.1252  0.2475  0.0517
 1148PYPI   GL216402  17.935  10.266   6.213  0.0768 -0.1673 -0.2481
 1148PYPI   C1A16403  18.070  10.754   6.465  0.0292 -0.0034 -0.0234
 1148PYPI   C2A16404  18.111  10.770   6.857  0.2527  0.2727  0.1298
 1148PYPI   D3A16405  18.050  10.609   7.345  0.0683 -0.0290  0.2170
 1148PYPI   C4A16406  18.206  10.739   7.665  0.3064  0.3422  0.2143
 1148PYPI   C1B16407  18.069  10.228   6.631  0.0099 -0.0060  0.3198
 1148PYPI   C2B16408  18.030  10.164   7.142  0.1482 -0.0050 -0.0917
 1148PYPI   C3B16409  17.780  10.085   7.502  0.1572  0.0530 -0.0734
 1148PYPI   C4B16410  17.630  10.173   7.941  0.1254  0.0823  0.1562
 1149PYPI    C116411   6.731  12.711   6.281 -0.0828 -0.1691 -0.0133
 1149PYPI    C216412   6.699  12.857   5.910 -0.0332  0.0805  0.0789
 1149PYPI    C316413   6.371  12.747   6.110 -0.0573 -0.0853 -0.0499
 1149PYPI   PO416414   6.939  12.816   6.370  0.3681  0.2846  0.0207
 1149PYPI   GL116415   7.194  13.061   6.649  0.2744  0.1870 -0.1568
 1149PYPI   GL216416   7.466  12.843   6.591 -0.1727 -0.1425  0.1065
 1149PYPI   C1A16417   7.409  13.388   6.978 -0.1256  0.3077 -0.0480
 1149PYPI   C2A16418   7.426  13.432   7.433  0.0191  0.1298  0.0422
 1149PYPI   D3A16419   7.192  13.219   7.640  0.1269 -0.0686  0.3475
 1149PYPI   C4A16420   7.203  13.369   8.057 -0.2398 -0.0904  0.0751
 1149PYPI   C1B16421   7.454  12.909   7.126 -0.1983 -0.1474 -0.2019
 1149PYPI   C2B16422   7.478  12.843   7.517  0.1366 -0.1413  0.1002
 1149PYPI   C3B16423   7.377  12.918   8.066  0.3169 -0.2177  0.4062
 1149PYPI   C4B16424   7.093  12.938   8.284 -0.0524  0.3041  0.3479
 1150PYPI    C116425   1.478  12.572   5.528  0.0307  0.2213 -0.1020
 1150PYPI    C216426   1.465  12.544   5.130  0.0270 -0.0283 -0.0856
 1150PYPI    C316427   1.735  12.334   5.337 -0.0181  0.0449  0.0488
 1150PYPI   PO416428   1.468  12.770   5.674 -0.2067 -0.0636 -0.1918
 1150PYPI   GL116429   1.232  13.091   5.963 -0.0849 -0.0874 -0.1193
 1150PYPI   GL216430   1.374  13.245   6.075 -0.1669 -0.0229  0.1931
 1150PYPI   C1A16431   0.814  12.960   6.254  0.2032 -0.4561  0.1342
 1150PYPI   C2A16432   0.662  12.880   6.757 -0.1272 -0.3109  0.1352
 1150PYPI   D3A16433   0.648  13.080   7.129  0.0096  0.2306  0.0400
 1150PYPI   C4A16434   0.776  12.979   7.491 -0.1326 -0.1226  0.0880
 1150PYPI   C1B16435   1.265  13.008   6.491 -0.1884 -0.1087 -0.1866
 1150PYPI   C2B16436   1.156  13.066   6.852 -0.0458  0.0317  0.0582
 1150PYPI   C3B16437   1.107  13.291   7.187  0.2009 -0.0871 -0.1534
 1150PYPI   C4B16438   1.216  13.317   7.558 -0.1327  0.1046 -0.1465
 1151PYPI    C116439  10.057  16.047   6.106 -0.1128  0.2058  0.1407
 1151PYPI    C216440   9.754  15.837   5.951 -0.0634  0.1956  0.0577
 1151PYPI    C316441   9.716  16.231   6.006 -0.0201  0.2287 -0.1417
 1151PYPI   PO416442  10.159  15.994   6.356 -0.0932  0.0473  0.0287
 1151PYPI   GL116443  10.103  15.921   6.784 -0.2918 -0.2267 -0.3272
 1151PYPI   GL216444   9.816  16.010   6.953 -0.3911  0.0697  0.1935
 1151PYPI   C1A16445  10.355  15.939   7.210 -0.0049 -0.2938  0.1656
 1151PYPI   C2A16446  10.487  16.228   7.598 -0.0473 -0.1183  0.0772
 1151PYPI   D3A16447  10.730  16.398   7.796 -0.0408  0.3555 -0.2065
 1151PYPI   C4A16448  10.983  16.198   8.115 -0.2586 -0.2168  0.0525
 1151PYPI   C1B16449   9.891  16.015   7.360 -0.0105  0.1282  0.0365
 1151PYPI   C2B16450   9.821  16.244   7.747 -0.2000 -0.1682  0.0153
 1151PYPI   C3B16451   9.628  16.402   8.085 -0.1206 -0.0159 -0.0317
 1151PYPI   C4B16452   9.179  16.680   8.266  0.0251 -0.4366 -0.0668
 1152PYPI    C116453   3.870   9.244   6.027 -0.0464 -0.0201 -0.0657
 1152PYPI    C216454   3.813   8.967   5.744 -0.1704 -0.1349  0.0702
 1152PYPI    C316455   4.064   8.895   6.047  0.2346  0.1244 -0.1924
 1152PYPI   PO416456   3.675   9.305   6.203 -0.1151  0.3979 -0.0955
 1152PYPI   GL116457   3.666   9.356   6.608 -0.1475  0.0202  0.0780
 1152PYPI   GL216458   3.328   9.303   6.710  0.1751 -0.1418 -0.4399
 1152PYPI   C1A16459   3.680   9.529   7.014  0.0966  0.0759  0.0217
 1152PYPI   C2A16460   3.656   9.434   7.465 -0.2564  0.2808  0.0715
 1152PYPI   D3A16461   3.509   9.240   7.849  0.2050 -0.1735 -0.3789
 1152PYPI   C4A16462   3.523   8.898   8.201  0.1438  0.3336 -0.0708
 1152PYPI   C1B16463   3.456   9.089   7.132  0.3032 -0.1542  0.0211
 1152PYPI   C2B16464   3.513   8.912   7.457  0.0365 -0.0024 -0.3736
 1152PYPI   C3B16465   3.752   8.637   7.748 -0.2805 -0.0764 -0.2947
 1152PYPI   C4B16466   3.812   8.498   8.150 -0.1483  0.3535 -0.1158
 1153PYPI    C116467  17.401  12.416   5.035  0.0296  0.1410  0.0757
 1153PYPI    C216468  17.232  12.094   4.868 -0.0219  0.1218  0.1641
 1153PYPI    C316469  17.456  12.340   4.646  0.0965 -0.0267  0.1169
 1153PYPI   PO416470  17.532  12.288   5.276  0.0528 -0.1260 -0.1133
 1153PYPI   GL116471  17.442  12.393   5.794 -0.0590  0.0374 -0.0606
 1153PYPI   GL216472  17.401  12.044   5.683  0.1047  0.2322 -0.0599
 1153PYPI   C1A16473  17.463  12.324   6.180  0.0263 -0.1581 -0.1632
 1153PYPI   C2A16474  17.562  12.525   6.564 -0.1754  0.1261  0.0744
 1153PYPI   D3A16475  17.591  12.729   6.935 -0.0944 -0.2501 -0.1422
 1153PYPI   C4A16476  17.568  12.769   7.360  0.2990  0.3062 -0.0661
 1153PYPI   C1B16477  17.176  11.879   6.092  0.1563 -0.0304  0.0868
 1153PYPI   C2B16478  17.331  12.000   6.462  0.2787 -0.1345  0.2932
 1153PYPI   C3B16479  17.424  12.008   6.884 -0.0162  0.2047  0.0098
 1153PYPI   C4B16480  17.419  11.827   7.229 -0.2849 -0.2038  0.1760
 1154PYPI    C116481  17.721   6.975   5.634 -0.1340 -0.2480  0.2514
 1154PYPI    C216482  17.921   6.751   5.370 -0.1311 -0.0643  0.0957
 1154PYPI    C316483  17.528   6.814   5.323 -0.1287 -0.0236  0.1300
 1154PYPI   PO416484  17.803   6.906   5.817 -0.1879 -0.3205  0.0312
 1154PYPI   GL116485  18.057   6.945   6.299  0.1549  0.1491 -0.4161
 1154PYPI   GL216486  18.269   6.691   6.184 -0.1540 -0.2515  0.4233
 1154PYPI   C1A16487  17.840   7.160   6.566  0.0273  0.4630 -0.3622
 1154PYPI   C2A16488  17.418   7.149   6.709  0.0630  0.2091  0.2514
 1154PYPI   D3A16489  17.038   7.500   6.710 -0.0108  0.0302  0.2213
 1154PYPI   C4A16490  16.952   7.743   7.074  0.1297 -0.2128  0.2024
 1154PYPI   C1B16491  18.229   6.512   6.717  0.0142  0.1402 -0.4972
 1154PYPI   C2B16492  18.212   6.425   7.181  0.2311 -0.1679 -0.0865
 1154PYPI   C3B16493  18.237   6.482   7.592  0.1851  0.1269  0.2289
 1154PYPI   C4B16494  18.277   6.629   7.931  0.0326 -0.2433 -0.0714
 1155PYPI    C116495   3.458   8.786   6.137 -0.1834 -0.1390  0.0253
 1155PYPI    C216496   3.331   8.723   5.763 -0.1338 -0.0969  0.0011
 1155PYPI    C316497   3.635   8.509   5.910  0.2678  0.3192 -0.2015
 1155PYPI   PO416498   3.334   8.889   6.279  0.1711 -0.0804 -0.1857
 1155PYPI   GL116499   2.925   8.963   6.424  0.2387 -0.2514 -0.1458
 1155PYPI   GL216500   2.881   9.324   6.531 -0.0124 -0.0885  0.0852
 1155PYPI   C1A16501   3.015   8.933   6.854 -0.1156 -0.0439  0.0482
 1155PYPI   C2A16502   2.996   8.964   7.277 -0.1067 -0.0294 -0.2897
 1155PYPI   D3A16503   3.039   9.118   7.783  0.0148  0.0391 -0.0309
 1155PYPI   C4A16504   2.639   9.282   7.952  0.0773 -0.0256 -0.0087
 1155PYPI   C1B16505   2.784   9.422   6.982 -0.0411  0.0408  0.2655
 1155PYPI   C2B16506   2.696   9.644   7.191  0.2769 -0.1884 -0.2819
 1155PYPI   C3B16507   2.623   9.711   7.618 -0.1768  0.6086  0.0769
 1155PYPI   C4B16508   2.720   9.787   7.985  0.0886 -0.2061  0.0469
 1156PYPI    C116509   0.394   5.913   5.588 -0.2871 -0.1742  0.1260
 1156PYPI    C216510   0.122   6.107   5.368  0.1806  0.3026 -0.0557
 1156PYPI    C316511   0.378   5.856   5.192 -0.1765 -0.2051  0.1257
 1156PYPI   PO416512   0.499   6.156   5.858 -0.2878 -0.0454  0.0574
 1156PYPI   GL116513   0.635   6.169   6.222  0.2421 -0.0357 -0.0332
 1156PYPI   GL216514   0.748   6.401   6.279  0.2686 -0.1123 -0.3275
 1156PYPI   C1A16515   0.463   6.038   6.621  0.0662 -0.2971  0.0817
 1156PYPI   C2A16516   0.464   6.027   6.975 -0.0592 -0.0482 -0.2889
 1156PYPI   D3A16517   0.458   5.971   7.475  0.1877 -0.5261 -0.1724
 1156PYPI   C4A16518   0.199   5.944   7.742  0.0985 -0.0943  0.0810
 1156PYPI   C1B16519   0.864   6.473   6.701  0.2296  0.2647  0.2093
 1156PYPI   C2B16520   0.849   6.526   7.102 -0.2938 -0.2510  0.0824
 1156PYPI   C3B16521   0.807   6.318   7.514  0.0518  0.1666 -0.3386
 1156PYPI   C4B16522   0.677   6.212   7.855  0.1692 -0.0023 -0.2124
 1157PYPI    C116523   8.710   0.366   6.095  0.0950  0.0778 -0.0075
 1157PYPI    C216524   8.976   0.208   5.841  0.2325  0.0993  0.1217
 1157PYPI    C316525   8.801   0.558   5.756 -0.0999 -0.1331 -0.1828
 1157PYPI   PO416526   8.727   0.129   6.302  0.0433  0.0467 -0.0159
 1157PYPI   GL116527   8.401   0.186   6.653 -0.0600  0.2436  0.0288
 1157PYPI   GL216528   8.109  -0.045   6.677  0.0978 -0.1073  0.0192
 1157PYPI   C1A16529   8.398   0.355   7.090 -0.0045  0.0990  0.1482
 1157PYPI   C2A16530   8.444   0.430   7.487 -0.0549 -0.1604  0.2435
 1157PYPI   D3A16531   8.431   0.526   7.966  0.1454 -0.3436  0.2179
 1157PYPI   C4A16532   8.627   0.188   8.146  0.2993 -0.1716 -0.0457
 1157PYPI   C1B16533   8.059  -0.125   7.104  0.0918 -0.1107 -0.0358
 1157PYPI   C2B16534   8.083  -0.325   7.552  0.0406  0.1157 -0.0376
 1157PYPI   C3B16535   7.958  -0.366   7.961 -0.0288  0.2174  0.0779
 1157PYPI   C4B16536   7.553  -0.379   8.221  0.1319 -0.0207 -0.1093
 1158PYPI    C116537   1.077  12.251   5.619  0.3027  0.1488 -0.1132
 1158PYPI    C216538   1.233  12.142   5.971  0.0524 -0.1165 -0.0806
 1158PYPI    C316539   1.419  12.043   5.632 -0.0032 -0.3677 -0.0399
 1158PYPI   PO416540   0.855  12.295   5.685  0.0431 -0.1077 -0.1247
 1158PYPI   GL116541   0.737  12.286   6.082 -0.0743 -0.1424  0.2852
 1158PYPI   GL216542   0.725  11.916   6.206 -0.1289  0.0970  0.3112
 1158PYPI   C1A16543   0.803  12.378   6.476 -0.2419 -0.1810  0.1303
 1158PYPI   C2A16544   0.677  12.402   6.880  0.0598 -0.1074  0.0790
 1158PYPI   D3A16545   0.774  12.619   7.251  0.3348 -0.1874 -0.1064
 1158PYPI   C4A16546   0.612  12.503   7.588  0.0082  0.2426  0.1724
 1158PYPI   C1B16547   0.761  11.929   6.583 -0.0540 -0.0763  0.2604
 1158PYPI   C2B16548   0.953  12.033   6.950  0.0633 -0.1574  0.2003
 1158PYPI   C3B16549   0.852  11.992   7.443 -0.2480 -0.2073  0.2211
 1158PYPI   C4B16550   1.013  12.029   7.896 -0.1404  0.1925  0.0353
 1159PYPI    C116551   2.831   5.311   5.635 -0.0343 -0.2230  0.1019
 1159PYPI    C216552   2.561   5.024   5.704  0.0617 -0.2949  0.1819
 1159PYPI    C316553   2.876   4.950   5.468 -0.0390 -0.1811  0.0094
 1159PYPI   PO416554   3.005   5.409   5.880  0.0171  0.4807  0.3990
 1159PYPI   GL116555   3.049   5.371   6.399  0.1753  0.1094 -0.2040
 1159PYPI   GL216556   2.911   5.630   6.303  0.3327 -0.2771  0.0472
 1159PYPI   C1A16557   3.025   5.222   6.814 -0.0040  0.1131  0.0726
 1159PYPI   C2A16558   2.946   5.030   7.211 -0.1235 -0.1419 -0.3021
 1159PYPI   D3A16559   2.778   5.045   7.651 -0.0801 -0.1074 -0.1192
 1159PYPI   C4A16560   2.587   4.736   7.920 -0.1319  0.1383 -0.2076
 1159PYPI   C1B16561   2.989   5.752   6.736 -0.0876  0.3444 -0.0179
 1159PYPI   C2B16562   2.914   5.596   7.144  0.0780 -0.3898 -0.0207
 1159PYPI   C3B16563   3.025   5.469   7.513 -0.0757  0.0585  0.0916
 1159PYPI   C4B16564   3.137   5.386   7.879  0.4172  0.0759 -0.1753
 1160PYPI    C116565   8.367   8.140   6.027  0.0522  0.0386 -0.0506
 1160PYPI    C216566   8.386   8.177   5.630 -0.0657  0.1211 -0.0490
 1160PYPI    C316567   8.088   7.968   5.797 -0.0661  0.1610  0.0001
 1160PYPI   PO416568   8.472   8.344   6.106 -0.1527  0.0802  0.2372
 1160PYPI   GL116569   8.538   8.607   6.455 -0.0776 -0.0094  0.1976
 1160PYPI   GL216570   8.551   8.449   6.704  0.0721 -0.0438  0.0344
 1160PYPI   C1A16571   8.137   8.734   6.772  0.1931 -0.2179  0.0692
 1160PYPI   C2A16572   8.062   8.857   7.207 -0.4285  0.0268 -0.1436
 1160PYPI   D3A16573   8.213   9.166   7.454  0.1368 -0.1004  0.0737
 1160PYPI   C4A16574   8.096   9.107   7.852 -0.0861  0.1226 -0.0778
 1160PYPI   C1B16575   8.454   8.479   7.087  0.0963  0.0846 -0.0381
 1160PYPI   C2B16576   8.305   8.603   7.533  0.0047  0.1493 -0.0248
 1160PYPI   C3B16577   8.195   8.601   8.001 -0.0596  0.1935 -0.3300
 1160PYPI   C4B16578   7.928   8.796   8.403 -0.0011  0.1176  0.1167
 1161PYPI    C116579   9.477   3.114   6.023 -0.0828  0.1795  0.0770
 1161PYPI    C216580   9.595   3.100   5.641 -0.1835 -0.0968  0.0539
 1161PYPI    C316581   9.849   3.224   5.924 -0.1415  0.2095 -0.1138
 1161PYPI   PO416582   9.278   2.941   6.093 -0.2438  0.3955 -0.2236
 1161PYPI   GL116583   9.248   2.812   6.522 -0.3652  0.1729 -0.0212
 1161PYPI   GL216584   9.566   2.856   6.473 -0.4603  0.0714 -0.2968
 1161PYPI   C1A16585   9.249   2.540   6.860  0.0618 -0.1174  0.2535
 1161PYPI   C2A16586   9.128   2.452   7.260  0.2279  0.0450  0.0353
 1161PYPI   D3A16587   8.812   2.378   7.626 -0.1076  0.0432 -0.0685
 1161PYPI   C4A16588   8.657   2.128   7.959 -0.0737  0.0987 -0.0770
 1161PYPI   C1B16589   9.790   3.146   6.726 -0.3025 -0.2338 -0.1747
 1161PYPI   C2B16590   9.753   3.237   7.187  0.2981 -0.1905 -0.0629
 1161PYPI   C3B16591   9.771   3.159   7.544  0.2161 -0.0126  0.1878
 1161PYPI   C4B16592   9.916   3.139   8.040  0.0046  0.1033 -0.0084
 1162PYPI    C116593  16.670   7.032   5.677  0.1255  0.0359  0.0669
 1162PYPI    C216594  16.817   7.307   5.427  0.0811 -0.1462 -0.1623
 1162PYPI    C316595  16.937   6.926   5.398  0.1545 -0.1503  0.1638
 1162PYPI   PO416596  16.640   7.050   5.995  0.1124 -0.1503  0.0050
 1162PYPI   GL116597  16.722   6.960   6.420  0.4549  0.2718  0.4568
 1162PYPI   GL216598  17.079   6.874   6.284 -0.0120  0.0521  0.2275
 1162PYPI   C1A16599  16.903   6.999   6.766 -0.1446  0.0952  0.0830
 1162PYPI   C2A16600  17.129   7.075   7.163  0.2735  0.1910 -0.1529
 1162PYPI   D3A16601  17.490   7.141   7.179  0.1419 -0.4903  0.2193
 1162PYPI   C4A16602  17.470   7.000   7.529 -0.1771  0.2417  0.1413
 1162PYPI   C1B16603  17.250   6.676   6.589 -0.2758  0.0877  0.2759
 1162PYPI   C2B16604  17.370   6.654   6.993 -0.1642 -0.0371 -0.0330
 1162PYPI   C3B16605  17.295   6.497   7.325 -0.0255  0.0932  0.2573
 1162PYPI   C4B16606  17.246   6.575   7.781 -0.0957  0.1234 -0.1167
 1163PYPI    C116607  13.436   6.131   5.571  0.0496  0.0374 -0.0084
 1163PYPI    C216608  13.129   5.891   5.478  0.1330 -0.0744  0.0022
 1163PYPI    C316609  13.495   5.737   5.528  0.1503  0.0284  0.2010
 1163PYPI   PO416610  13.396   6.228   5.842  0.0071  0.1039  0.1433
 1163PYPI   GL116611  13.393   6.179   6.275 -0.1677 -0.1093  0.3824
 1163PYPI   GL216612  13.115   6.369   6.360  0.3584 -0.1811  0.0164
 1163PYPI   C1A16613  13.524   5.824   6.500 -0.3147 -0.2205  0.2342
 1163PYPI   C2A16614  13.715   5.942   6.930  0.0616 -0.1256 -0.0157
 1163PYPI   D3A16615  13.869   6.011   7.344 -0.0472  0.2269 -0.0030
 1163PYPI   C4A16616  13.708   5.856   7.649 -0.0723  0.0971 -0.2275
 1163PYPI   C1B16617  13.325   6.393   6.767 -0.1499  0.3160 -0.3648
 1163PYPI   C2B16618  13.181   6.398   7.152  0.0462 -0.5108  0.3395
 1163PYPI   C3B16619  13.205   6.668   7.540 -0.0822 -0.2032 -0.1619
 1163PYPI   C4B16620  12.946   6.951   7.757 -0.1668  0.0916  0.2720
 1164PYPI    C116621   2.518  16.145   5.793 -0.2540 -0.1429 -0.1759
 1164PYPI    C216622   2.261  16.187   6.097  0.0076  0.1113  0.0155
 1164PYPI    C316623   2.310  16.484   5.834  0.0193  0.0179 -0.0887
 1164PYPI   PO416624   2.668  15.824   5.977  0.2172 -0.0498  0.1998
 1164PYPI   GL116625   2.795  15.759   6.396 -0.2843  0.2553  0.2040
 1164PYPI   GL216626   2.491  15.903   6.552  0.1023 -0.1547  0.1595
 1164PYPI   C1A16627   3.003  15.558   6.774 -0.0823  0.2534 -0.1651
 1164PYPI   C2A16628   3.061  15.614   7.134 -0.1287  0.1079  0.0727
 1164PYPI   D3A16629   3.022  15.737   7.506 -0.0482  0.1752  0.2374
 1164PYPI   C4A16630   3.011  16.143   7.628  0.0036 -0.0940  0.0235
 1164PYPI   C1B16631   2.321  15.672   6.853 -0.1682  0.3400 -0.1998
 1164PYPI   C2B16632   2.261  15.598   7.303 -0.0894  0.0998  0.3015
 1164PYPI   C3B16633   2.590  15.412   7.618 -0.2571 -0.1047  0.2656
 1164PYPI   C4B16634   2.671  15.376   8.105 -0.2291 -0.0039 -0.0366
 1165PYPI    C116635   1.244  15.039   5.330 -0.0850 -0.0185  0.1076
 1165PYPI    C216636   1.241  14.814   4.999 -0.1459  0.0120  0.0872
 1165PYPI    C316637   1.442  14.692   5.322  0.1614  0.1226 -0.0580
 1165PYPI   PO416638   1.001  15.200   5.343 -0.0187  0.2780 -0.1414
 1165PYPI   GL116639   1.078  15.458   5.702 -0.2314 -0.0607 -0.0997
 1165PYPI   GL216640   1.222  15.173   5.932  0.2397  0.0217 -0.1061
 1165PYPI   C1A16641   0.722  15.534   6.025  0.3858 -0.0475 -0.2925
 1165PYPI   C2A16642   0.517  15.678   6.480 -0.1053 -0.0992  0.0570
 1165PYPI   D3A16643   0.669  15.833   6.869  0.0664  0.1705 -0.0443
 1165PYPI   C4A16644   0.569  15.674   7.237  0.1382 -0.1171 -0.0536
 1165PYPI   C1B16645   1.278  15.057   6.426 -0.0075 -0.3368  0.2584
 1165PYPI   C2B16646   1.208  15.059   6.823 -0.3071  0.0779 -0.0204
 1165PYPI   C3B16647   1.184  14.995   7.255  0.1916 -0.5272 -0.0357
 1165PYPI   C4B16648   0.846  14.826   7.585 -0.0695 -0.0967  0.2217
 1166PYPI    C116649  10.663   5.107   6.012 -0.0622 -0.1506 -0.0969
 1166PYPI    C216650  10.327   5.235   6.186  0.0848 -0.0931  0.1502
 1166PYPI    C316651  10.643   5.478   6.160  0.1113 -0.1492 -0.0750
 1166PYPI   PO416652  10.707   4.899   6.155 -0.1731  0.4401 -0.0898
 1166PYPI   GL116653  10.494   4.875   6.558  0.0066  0.3180  0.1341
 1166PYPI   GL216654  10.570   4.457   6.653 -0.1998 -0.2497 -0.0179
 1166PYPI   C1A16655  10.547   5.051   7.035  0.2534 -0.1850  0.1363
 1166PYPI   C2A16656  10.443   5.085   7.414 -0.0887  0.1378  0.2168
 1166PYPI   D3A16657  10.582   5.230   7.825 -0.2434  0.1510  0.1314
 1166PYPI   C4A16658  10.478   4.874   8.008 -0.2507  0.1382 -0.0087
 1166PYPI   C1B16659  10.525   4.571   7.078  0.0038  0.0677 -0.0441
 1166PYPI   C2B16660  10.511   4.492   7.408  0.0664  0.0896  0.0026
 1166PYPI   C3B16661  10.799   4.657   7.674 -0.4314 -0.0829 -0.2427
 1166PYPI   C4B16662  10.890   4.655   8.125  0.1150 -0.2013  0.0652
 1167PYPI    C116663   8.209   3.225   5.860 -0.0235  0.0238  0.1656
 1167PYPI    C216664   8.329   3.607   5.862 -0.0256  0.0254  0.0618
 1167PYPI    C316665   7.940   3.519   5.825  0.0035  0.0073 -0.2204
 1167PYPI   PO416666   8.299   3.079   6.112  0.0240 -0.1166 -0.3419
 1167PYPI   GL116667   8.095   2.940   6.545  0.1159  0.0054 -0.1726
 1167PYPI   GL216668   8.479   2.980   6.555 -0.0914 -0.5259  0.1527
 1167PYPI   C1A16669   8.204   2.691   6.879 -0.0436  0.0126  0.2024
 1167PYPI   C2A16670   8.326   2.623   7.314 -0.3782 -0.0843 -0.0155
 1167PYPI   D3A16671   8.319   2.520   7.704 -0.0925 -0.2344 -0.0211
 1167PYPI   C4A16672   8.172   2.423   8.124  0.2366 -0.1522  0.3138
 1167PYPI   C1B16673   8.469   3.066   6.995 -0.2170  0.0370  0.1514
 1167PYPI   C2B16674   8.552   3.278   7.356  0.0351 -0.0476  0.0368
 1167PYPI   C3B16675   8.418   3.238   7.755 -0.1783 -0.0659 -0.1711
 1167PYPI   C4B16676   8.315   3.127   8.114  0.1631 -0.0204  0.2170
 1168PYPI    C116677  14.095   5.245   5.587 -0.2494 -0.1456 -0.0868
 1168PYPI    C216678  13.943   5.614   5.551  0.0379 -0.0076  0.0841
 1168PYPI    C316679  14.162   5.458   5.255  0.1409  0.0659  0.1211
 1168PYPI   PO416680  13.961   5.248   5.907  0.1129  0.1140 -0.2559
 1168PYPI   GL116681  14.006   5.653   6.239 -0.2229  0.0345 -0.1911
 1168PYPI   GL216682  13.729   5.368   6.312 -0.1956  0.3437  0.0289
 1168PYPI   C1A16683  14.146   5.832   6.651 -0.0631  0.0959  0.1584
 1168PYPI   C2A16684  14.294   5.823   7.083 -0.2122  0.0503  0.0031
 1168PYPI   D3A16685  14.275   5.792   7.470 -0.0956  0.1749  0.0069
 1168PYPI   C4A16686  14.162   6.073   7.873  0.4051  0.0835 -0.1379
 1168PYPI   C1B16687  13.774   5.425   6.768 -0.1393 -0.1862 -0.1359
 1168PYPI   C2B16688  13.899   5.470   7.228  0.0020  0.0727  0.0812
 1168PYPI   C3B16689  13.954   5.414   7.709 -0.1560 -0.1353 -0.0809
 1168PYPI   C4B16690  14.258   5.580   7.972 -0.1889  0.0777 -0.3660
 1169PYPI    C116691   9.511   6.179   5.642 -0.3059 -0.0144 -0.0708
 1169PYPI    C216692   9.339   6.213   5.282 -0.0595  0.0011 -0.1890
 1169PYPI    C316693   9.736   6.168   5.311 -0.0631  0.1254  0.0862
 1169PYPI   PO416694   9.360   6.224   5.862  0.1785 -0.1530  0.1126
 1169PYPI   GL116695   9.187   5.952   6.153  0.0215 -0.0337 -0.2090
 1169PYPI   GL216696   9.389   5.745   6.353 -0.0243  0.1837 -0.2075
 1169PYPI   C1A16697   8.982   6.068   6.555  0.1092 -0.4887  0.0134
 1169PYPI   C2A16698   8.953   6.098   7.048 -0.1462  0.1916  0.1431
 1169PYPI   D3A16699   8.937   6.075   7.500  0.2566  0.0363 -0.0051
 1169PYPI   C4A16700   9.040   6.195   7.908  0.0658 -0.0346  0.1238
 1169PYPI   C1B16701   9.379   5.847   6.815  0.1956  0.1051 -0.2995
 1169PYPI   C2B16702   9.352   5.758   7.311 -0.1696 -0.0524 -0.2366
 1169PYPI   C3B16703   9.276   5.762   7.718  0.3088 -0.0634  0.1335
 1169PYPI   C4B16704   9.336   5.903   8.153  0.2036 -0.2097  0.1476
 1170PYPI    C116705  13.788   7.010   5.480 -0.1726 -0.1855 -0.1925
 1170PYPI    C216706  14.036   7.261   5.292 -0.1282 -0.0993 -0.0207
 1170PYPI    C316707  13.989   6.888   5.157  0.0953 -0.1168 -0.0545
 1170PYPI   PO416708  13.911   7.012   5.728 -0.1590  0.1824 -0.4031
 1170PYPI   GL116709  13.813   7.064   6.151  0.0845 -0.1336 -0.1253
 1170PYPI   GL216710  13.767   7.412   6.215  0.2389 -0.3188  0.0235
 1170PYPI   C1A16711  14.137   6.972   6.458 -0.0645  0.1864 -0.0600
 1170PYPI   C2A16712  14.082   6.923   6.937  0.0346  0.0165 -0.1247
 1170PYPI   D3A16713  14.107   6.877   7.414  0.0666  0.0310  0.5690
 1170PYPI   C4A16714  14.187   7.143   7.766  0.0645  0.1681 -0.0424
 1170PYPI   C1B16715  14.069   7.460   6.529 -0.1211  0.0998 -0.1668
 1170PYPI   C2B16716  14.031   7.458   6.955 -0.3368 -0.1189  0.3211
 1170PYPI   C3B16717  14.155   7.464   7.284 -0.0345  0.0325 -0.5327
 1170PYPI   C4B16718  14.264   7.598   7.637 -0.0450 -0.1558  0.0233
 1171PYPI    C116719   5.870   1.788   5.508 -0.0942 -0.1039  0.1587
 1171PYPI    C216720   6.071   1.515   5.721  0.1604 -0.0808 -0.0485
 1171PYPI    C316721   5.897   1.411   5.376 -0.0265 -0.0572  0.0379
 1171PYPI   PO416722   5.756   1.915   5.702 -0.3074 -0.2372 -0.1113
 1171PYPI   GL116723   5.743   1.726   6.082  0.1330 -0.0025 -0.0771
 1171PYPI   GL216724   5.930   1.437   6.235 -0.0548  0.1024 -0.2892
 1171PYPI   C1A16725   5.697   1.893   6.544  0.1715 -0.0334  0.0658
 1171PYPI   C2A16726   5.667   1.628   6.886  0.1064  0.0724  0.0975
 1171PYPI   D3A16727   5.571   1.470   7.321 -0.1721 -0.3775 -0.1378
 1171PYPI   C4A16728   5.640   1.249   7.635 -0.0665 -0.0939  0.1569
 1171PYPI   C1B16729   6.052   1.430   6.703  0.1067  0.1061 -0.1526
 1171PYPI   C2B16730   6.024   1.444   7.190 -0.0359 -0.0349  0.1086
 1171PYPI   C3B16731   6.182   1.360   7.671 -0.0112 -0.2853 -0.0142
 1171PYPI   C4B16732   6.017   1.396   8.136 -0.1013 -0.1463  0.0990
 1172PYPI    C116733   1.033   3.090   5.882 -0.2868 -0.0269  0.1459
 1172PYPI    C216734   1.080   2.716   5.747  0.0116  0.0568  0.0097
 1172PYPI    C316735   0.928   2.997   5.507  0.3620  0.1613 -0.0972
 1172PYPI   PO416736   1.223   3.111   6.005  0.1381 -0.0429 -0.4183
 1172PYPI   GL116737   1.317   3.198   6.420  0.0219  0.0303  0.1032
 1172PYPI   GL216738   1.138   3.489   6.410  0.0238 -0.1551  0.1493
 1172PYPI   C1A16739   1.519   2.815   6.633 -0.4062  0.1572 -0.1462
 1172PYPI   C2A16740   1.540   2.686   7.053  0.1464 -0.2078  0.1630
 1172PYPI   D3A16741   1.475   2.700   7.539 -0.3952  0.1381  0.1411
 1172PYPI   C4A16742   1.553   3.197   7.567 -0.0652  0.1748 -0.2350
 1172PYPI   C1B16743   1.202   3.564   6.715 -0.2016  0.0073 -0.0949
 1172PYPI   C2B16744   1.198   3.974   6.959  0.1017  0.1767 -0.1612
 1172PYPI   C3B16745   1.154   4.086   7.357 -0.1514 -0.0702  0.0785
 1172PYPI   C4B16746   1.097   4.065   7.808 -0.0593  0.5640 -0.0246
 1173PYPI    C116747  15.369   1.525   5.533 -0.0472 -0.0336  0.1515
 1173PYPI    C216748  14.973   1.469   5.515 -0.0674  0.1474 -0.0097
 1173PYPI    C316749  15.222   1.190   5.372 -0.1304 -0.0326  0.2245
 1173PYPI   PO416750  15.450   1.620   5.716 -0.0312  0.2542  0.0365
 1173PYPI   GL116751  15.556   1.759   6.194 -0.0811 -0.1313  0.2537
 1173PYPI   GL216752  15.815   1.407   6.217  0.2243  0.0080 -0.0460
 1173PYPI   C1A16753  15.523   1.875   6.609  0.1001 -0.0511  0.0415
 1173PYPI   C2A16754  15.590   1.739   7.053  0.1458  0.3851  0.0346
 1173PYPI   D3A16755  15.746   1.751   7.376 -0.0036  0.1628 -0.1482
 1173PYPI   C4A16756  15.541   1.752   7.734 -0.2663  0.2287  0.4481
 1173PYPI   C1B16757  15.808   1.411   6.717  0.0267  0.1352  0.1193
 1173PYPI   C2B16758  15.918   1.249   7.223 -0.2327 -0.0305  0.0853
 1173PYPI   C3B16759  15.922   1.396   7.706 -0.1548  0.1151  0.0232
 1173PYPI   C4B16760  16.024   1.393   8.121 -0.0959  0.0917  0.3612
 1174PYPI    C116761   9.950   9.574   6.070  0.1501 -0.1389 -0.2022
 1174PYPI    C216762  10.129   9.903   5.932 -0.2191  0.2115  0.1272
 1174PYPI    C316763   9.854   9.717   5.709 -0.0711  0.1728 -0.0254
 1174PYPI   PO416764   9.835   9.663   6.343  0.3559 -0.2538 -0.1056
 1174PYPI   GL116765   9.631   9.918   6.490 -0.0792 -0.0240 -0.1081
 1174PYPI   GL216766   9.350  10.016   6.464 -0.0216  0.0443  0.4941
 1174PYPI   C1A16767   9.534   9.954   6.937 -0.1781  0.1427  0.2284
 1174PYPI   C2A16768   9.468   9.914   7.382  0.1565  0.2166  0.1514
 1174PYPI   D3A16769   9.627  10.083   7.758 -0.0995  0.1688 -0.2527
 1174PYPI   C4A16770   9.331  10.136   8.108  0.2422  0.0041 -0.2150
 1174PYPI   C1B16771   9.170   9.586   6.690  0.2383  0.2557  0.1194
 1174PYPI   C2B16772   9.037   9.380   6.906 -0.0411 -0.1671  0.0404
 1174PYPI   C3B16773   9.012   9.257   7.327 -0.1338 -0.1524 -0.0841
 1174PYPI   C4B16774   9.035   9.270   7.754 -0.0182  0.0103  0.1494
 1175PYPI    C116775   1.217   1.453   5.933  0.1329 -0.2793  0.0595
 1175PYPI    C216776   1.215   1.131   5.695 -0.1983 -0.0698 -0.2300
 1175PYPI    C316777   1.521   1.389   5.681 -0.1295 -0.1545 -0.2970
 1175PYPI   PO416778   1.192   1.391   6.244 -0.0102 -0.2088 -0.0597
 1175PYPI   GL116779   1.204   1.524   6.566  0.1379  0.0804 -0.0113
 1175PYPI   GL216780   1.500   1.741   6.652 -0.0429  0.0620 -0.0578
 1175PYPI   C1A16781   0.844   1.605   6.837 -0.2316  0.2574 -0.0293
 1175PYPI   C2A16782   0.686   1.606   7.324 -0.2651 -0.1259 -0.0371
 1175PYPI   D3A16783   0.455   1.579   7.691 -0.3721  0.1591  0.2645
 1175PYPI   C4A16784   0.545   1.397   7.986 -0.0966  0.2522 -0.1718
 1175PYPI   C1B16785   1.296   1.704   7.008 -0.1004 -0.0319  0.0006
 1175PYPI   C2B16786   1.161   1.802   7.456  0.0990  0.2276 -0.0336
 1175PYPI   C3B16787   0.863   1.828   7.804 -0.1166  0.0663 -0.1554
 1175PYPI   C4B16788   0.872   1.623   8.272  0.0656 -0.0754 -0.1212
 1176PYPI    C116789   3.451  17.854   6.102  0.1102  0.2472 -0.0761
 1176PYPI    C216790   3.196  17.826   5.795  0.2144  0.1916 -0.1582
 1176PYPI    C316791   3.564  17.973   5.738  0.2125  0.2406 -0.0469
 1176PYPI   PO416792   3.278  17.986   6.251  0.1796  0.0730  0.1247
 1176PYPI   GL116793   3.156  18.154   6.565  0.0749 -0.2643 -0.0376
 1176PYPI   GL216794   2.809  17.979   6.495 -0.3227  0.0326 -0.3265
 1176PYPI   C1A16795   3.065  18.249   6.936  0.0709 -0.1033 -0.0815
 1176PYPI   C2A16796   2.978  18.110   7.367 -0.0977  0.1707  0.2304
 1176PYPI   D3A16797   3.161  17.930   7.785  0.2846  0.0868 -0.0609
 1176PYPI   C4A16798   2.957  17.791   8.145  0.4085  0.0938 -0.0359
 1176PYPI   C1B16799   2.570  18.196   6.848  0.1017  0.1888  0.3252
 1176PYPI   C2B16800   2.484  18.386   7.369 -0.1655 -0.1373  0.0949
 1176PYPI   C3B16801   2.252  18.416   7.784  0.5090 -0.0278 -0.0084
 1176PYPI   C4B16802   2.014  18.442   8.136 -0.1117 -0.1301 -0.0683
 1177PYPI    C116803  10.660  15.615   5.757 -0.0358  0.0047 -0.0511
 1177PYPI    C216804  10.931  15.746   5.494 -0.2117  0.3495 -0.0662
 1177PYPI    C316805  10.625  15.520   5.370  0.0017  0.0551 -0.0670
 1177PYPI   PO416806  10.780  15.538   6.042 -0.2748  0.0904  0.2649
 1177PYPI   GL116807  10.729  15.403   6.468  0.0703  0.0989  0.2750
 1177PYPI   GL216808  10.457  15.505   6.450 -0.1909  0.0673 -0.0464
 1177PYPI   C1A16809  11.046  15.329   6.706  0.2101 -0.2368 -0.0189
 1177PYPI   C2A16810  11.249  15.344   7.113  0.0879  0.1502 -0.1342
 1177PYPI   D3A16811  11.163  15.367   7.582  0.1888  0.2740  0.0101
 1177PYPI   C4A16812  11.493  15.371   7.890  0.0397  0.2519 -0.0219
 1177PYPI   C1B16813  10.613  15.695   6.860 -0.1003 -0.1199  0.1244
 1177PYPI   C2B16814  10.695  16.124   6.881  0.1055  0.0557  0.2741
 1177PYPI   C3B16815  10.865  16.278   7.220 -0.3585  0.2249 -0.1423
 1177PYPI   C4B16816  11.120  16.163   7.609  0.0661 -0.2643 -0.0870
 1178PYPI    C116817   7.519  15.383   5.939  0.0642 -0.2807  0.0741
 1178PYPI    C216818   7.431  15.193   5.598 -0.1720 -0.1370  0.0524
 1178PYPI    C316819   7.435  15.593   5.609  0.0031 -0.1409  0.1775
 1178PYPI   PO416820   7.389  15.257   6.070  0.0692 -0.0734 -0.3850
 1178PYPI   GL116821   7.280  15.217   6.515  0.0089  0.1761 -0.2234
 1178PYPI   GL216822   7.278  14.911   6.682  0.1326 -0.0387 -0.0165
 1178PYPI   C1A16823   7.288  15.481   6.898 -0.0791 -0.3430 -0.1062
 1178PYPI   C2A16824   7.485  15.611   7.223 -0.0559  0.2415  0.0127
 1178PYPI   D3A16825   7.395  15.668   7.619 -0.0944 -0.2366  0.0648
 1178PYPI   C4A16826   7.246  15.303   7.787 -0.2917  0.3146 -0.1650
 1178PYPI   C1B16827   7.463  14.995   7.116  0.1086 -0.1587  0.3249
 1178PYPI   C2B16828   7.536  14.919   7.530  0.1370 -0.0464 -0.2086
 1178PYPI   C3B16829   7.517  14.969   8.009  0.3607 -0.2147 -0.0894
 1178PYPI   C4B16830   7.231  15.082   8.327 -0.0431 -0.1322  0.2482
 1179PYPI    C116831   7.339  13.183   6.071  0.1579 -0.0910  0.0517
 1179PYPI    C216832   7.519  13.202   5.714 -0.1724 -0.0277 -0.1156
 1179PYPI    C316833   7.210  12.954   5.769 -0.2222  0.0762  0.0811
 1179PYPI   PO416834   7.607  13.158   6.240  0.0007  0.1170 -0.3183
 1179PYPI   GL116835   7.911  13.126   6.558  0.0963  0.0594 -0.0692
 1179PYPI   GL216836   7.925  12.785   6.372 -0.1813 -0.1542 -0.3100
 1179PYPI   C1A16837   7.893  13.176   7.085 -0.0673  0.0213 -0.0957
 1179PYPI   C2A16838   7.915  13.101   7.525  0.0025  0.0464 -0.2323
 1179PYPI   D3A16839   7.827  13.130   7.943  0.0147  0.0175  0.0609
 1179PYPI   C4A16840   7.711  13.126   8.406 -0.1142  0.0184 -0.0180
 1179PYPI   C1B16841   7.885  12.705   6.815 -0.0085  0.0277  0.1056
 1179PYPI   C2B16842   7.901  12.636   7.274 -0.2665 -0.4293  0.0038
 1179PYPI   C3B16843   7.858  12.508   7.674  0.1818  0.0305  0.3124
 1179PYPI   C4B16844   7.810  12.410   8.133 -0.2617 -0.1812  0.0954
 1180ERGO   ROH16845  10.365   2.914   6.716 -0.0298 -0.2374  0.1990
 1180ERGO    R116846  10.234   2.948   6.965 -0.0404 -0.1568  0.1837
 1180ERGO    R216847  10.260   2.768   7.173 -0.0338 -0.0817  0.2534
 1180ERGO    R316848  10.333   2.989   7.313 -0.0522 -0.0244  0.1711
 1180ERGO    R416849  10.299   2.780   7.516  0.0984  0.0170  0.2344
 1180ERGO    R516850  10.204   2.976   7.515  0.0338 -0.0170  0.2241
 1180ERGO    C116851  10.391   2.995   7.847  0.1579  0.1283  0.1461
 1180ERGO    C216852  10.374   3.105   8.225  0.1309  0.0250  0.0457
 1181ERGO   ROH16853   8.568   9.525   6.773  0.1542  0.2938 -0.1273
 1181ERGO    R116854   8.614   9.618   7.037  0.2564  0.1219 -0.0838
 1181ERGO    R216855   8.418   9.618   7.231  0.2429  0.2904 -0.1005
 1181ERGO    R316856   8.602   9.477   7.372  0.0541 -0.0085 -0.1426
 1181ERGO    R416857   8.439   9.611   7.576  0.3711  0.3563 -0.1064
 1181ERGO    R516858   8.656   9.619   7.558  0.3897 -0.0421 -0.2040
 1181ERGO    C116859   8.625   9.474   7.909  0.2684  0.1140 -0.1493
 1181ERGO    C216860   8.589   9.354   8.198 -0.2630  0.1015  0.3505
 1182ERGO   ROH16861   5.490   8.805   6.790  0.0192  0.2694  0.0012
 1182ERGO    R116862   5.586   8.946   7.016  0.0131  0.1547  0.0761
 1182ERGO    R216863   5.442   8.966   7.251  0.0023  0.0440  0.0800
 1182ERGO    R316864   5.669   8.866   7.361 -0.0068 -0.0190  0.0418
 1182ERGO    R416865   5.509   8.957   7.590  0.0703  0.0569  0.0669
 1182ERGO    R516866   5.715   9.013   7.545  0.0796 -0.0148  0.0174
 1182ERGO    C116867   5.761   8.858   7.891  0.1014  0.0053  0.0233
 1182ERGO    C216868   5.826   8.881   8.317  0.0504 -0.1625 -0.0622
 1183ERGO   ROH16869   6.739  15.051   6.644 -0.3240 -0.0746  0.1669
 1183ERGO    R116870   6.749  15.049   6.927 -0.2576  0.0229  0.1661
 1183ERGO    R216871   6.967  15.142   7.069 -0.1452 -0.0984  0.0792
 1183ERGO    R316872   6.780  15.296   7.193  0.0061  0.0997  0.0659
 1183ERGO    R416873   7.020  15.321   7.360 -0.0170 -0.2511  0.1512
 1183ERGO    R516874   6.821  15.262   7.426 -0.1127 -0.0224  0.0680
 1183ERGO    C116875   6.875  15.569   7.646  0.1997 -0.1542  0.1807
 1183ERGO    C216876   6.885  15.642   7.902  0.0486 -0.1776  0.1252
 1184ERGO   ROH16877   3.225  17.630   6.628 -0.1649 -0.0106 -0.0548
 1184ERGO    R116878   3.119  17.681   6.885  0.0366 -0.0056  0.0287
 1184ERGO    R216879   2.908  17.536   6.990 -0.1272  0.2421  0.0403
 1184ERGO    R316880   3.081  17.496   7.197 -0.0820 -0.1386 -0.0620
 1184ERGO    R416881   2.814  17.485   7.319 -0.0590  0.5826  0.1175
 1184ERGO    R516882   2.980  17.612   7.381  0.3227  0.1871 -0.0265
 1184ERGO    C116883   2.921  17.418   7.704  0.0231  0.4235  0.0664
 1184ERGO    C216884   2.896  17.257   8.056  0.0481  0.0005  0.1926
 1185ERGO   ROH16885  10.381   0.310   6.463 -0.1646 -0.0244  0.0324
 1185ERGO    R116886  10.371   0.256   6.740 -0.1121 -0.0103  0.0377
 1185ERGO    R216887  10.549   0.368   6.920 -0.0255 -0.0627 -0.0091
 1185ERGO    R316888  10.321   0.449   7.045  0.0319  0.0205  0.0412
 1185ERGO    R416889  10.529   0.471   7.250  0.0712 -0.0847  0.0032
 1185ERGO    R516890  10.341   0.363   7.267  0.0328 -0.0057  0.0277
 1185ERGO    C116891  10.305   0.606   7.559  0.1814 -0.0193  0.0578
 1185ERGO    C216892  10.163   0.677   7.951 -0.1058  0.0424 -0.0934
 1186ERGO   ROH16893   0.795   1.143   6.455  0.0684  0.0933 -0.1457
 1186ERGO    R116894   0.642   1.127   6.693  0.0500  0.1564 -0.1531
 1186ERGO    R216895   0.700   0.947   6.895 -0.0669  0.0943 -0.1744
 1186ERGO    R316896   0.702   1.171   7.049  0.0653  0.0736 -0.1452
 1186ERGO    R416897   0.696   0.948   7.240 -0.2932  0.0525 -0.1753
 1186ERGO    R516898   0.558   1.117   7.233 -0.1137  0.1989 -0.2458
 1186ERGO    C116899   0.695   1.158   7.587 -0.3008  0.0088 -0.1485
 1186ERGO    C216900   0.781   0.922   7.885  0.2693  0.0625 -0.2260
 1187ERGO   ROH16901   9.307   5.252   6.322  0.0364  0.0130 -0.1767
 1187ERGO    R116902   9.365   5.179   6.590  0.0098 -0.0113 -0.1778
 1187ERGO    R216903   9.563   5.302   6.738  0.0177 -0.0504 -0.1599
 1187ERGO    R316904   9.361   5.343   6.915  0.0154 -0.0310 -0.1667
 1187ERGO    R416905   9.596   5.292   7.082 -0.0360 -0.2970 -0.1602
 1187ERGO    R516906   9.405   5.188   7.092 -0.1106 -0.1799 -0.2590
 1187ERGO    C116907   9.425   5.324   7.448 -0.0694 -0.4222 -0.1669
 1187ERGO    C216908   9.488   5.291   7.728  0.1499 -0.1072 -0.0097
 1188ERGO   ROH16909   3.746   3.793   6.717  0.0408  0.0966 -0.0458
 1188ERGO    R116910   3.738   3.882   6.986 -0.0028  0.0451 -0.0306
 1188ERGO    R216911   3.547   3.792   7.166  0.0951 -0.1473 -0.0241
 1188ERGO    R316912   3.766   3.729   7.315  0.1671  0.0148 -0.0575
 1188ERGO    R416913   3.572   3.833   7.508  0.1152 -0.1235 -0.0278
 1188ERGO    R516914   3.776   3.901   7.481  0.0643  0.0286 -0.0615
 1188ERGO    C116915   3.790   3.797   7.847  0.1945  0.0425 -0.0614
 1188ERGO    C216916   3.796   3.881   8.123  0.1623 -0.4154  0.0204
 1189ERGO   ROH16917   3.103  16.230   6.637  0.0713 -0.5261 -0.1160
 1189ERGO    R116918   2.902  16.243   6.837  0.1229 -0.2734 -0.0768
 1189ERGO    R216919   2.749  16.025   6.908 -0.1505 -0.0798 -0.0584
 1189ERGO    R316920   2.838  16.085   7.158 -0.0245 -0.2064 -0.0719
 1189ERGO    R416921   2.595  15.926   7.201 -0.1400 -0.0334 -0.0376
 1189ERGO    R516922   2.638  16.123   7.284  0.0393 -0.0823 -0.0026
 1189ERGO    C116923   2.588  15.924   7.606 -0.0155 -0.1254 -0.0382
 1189ERGO    C216924   2.457  15.843   7.754  0.0836 -0.3531  0.2296
 1190ERGO   ROH16925  17.700   2.989   6.470 -0.0171  0.1121  0.0638
 1190ERGO    R116926  17.679   3.137   6.710 -0.4208  0.0343  0.0815
 1190ERGO    R216927  17.476   3.096   6.893 -0.2142 -0.6860  0.1690
 1190ERGO    R316928  17.682   3.065   7.067 -0.0067  0.0115  0.0797
 1190ERGO    R416929  17.452   3.132   7.236 -0.2329 -0.8655  0.1887
 1190ERGO    R516930  17.645   3.234   7.234 -0.5697 -0.1431  0.1387
 1190ERGO    C116931  17.632   3.124   7.599 -0.0486 -0.3153  0.1163
 1190ERGO    C216932  17.512   3.032   7.870  0.1101 -0.1284 -0.0033
 1191ERGO   ROH16933  12.877  13.012   6.318 -0.0083  0.0172 -0.0363
 1191ERGO    R116934  12.766  13.046   6.576 -0.0808 -0.0290 -0.0612
 1191ERGO    R216935  12.908  12.994   6.807 -0.1408 -0.0540 -0.0311
 1191ERGO    R316936  12.837  13.248   6.870 -0.1750 -0.0687 -0.0102
 1191ERGO    R416937  12.894  13.120   7.129  0.0963 -0.0129 -0.0350
 1191ERGO    R516938  12.711  13.226   7.073  0.0078 -0.0843  0.1058
 1191ERGO    C116939  12.819  13.433   7.375  0.2024 -0.0027 -0.0177
 1191ERGO    C216940  12.941  13.403   7.635  0.0133  0.1077 -0.1442
 1192ERGO   ROH16941   6.807  11.503   6.622 -0.3115  0.1757 -0.0616
 1192ERGO    R116942   6.873  11.612   6.874 -0.0904  0.0264 -0.0514
 1192ERGO    R216943   6.682  11.704   7.052  0.0784  0.2174  0.0386
 1192ERGO    R316944   6.805  11.533   7.223 -0.0745  0.0135 -0.0516
 1192ERGO    R416945   6.686  11.738   7.396  0.3376  0.1836  0.0402
 1192ERGO    R516946   6.895  11.675   7.394  0.2451 -0.1336 -0.0910
 1192ERGO    C116947   6.804  11.597   7.757  0.3450 -0.0275 -0.0435
 1192ERGO    C216948   6.721  11.694   7.919 -0.1389  0.0293 -0.1512
 1193ERGO   ROH16949   0.084   6.236   6.356  0.0742 -0.1275 -0.0003
 1193ERGO    R116950  -0.082   6.192   6.581  0.0967 -0.1867  0.0048
 1193ERGO    R216951   0.003   6.054   6.804  0.2160  0.0016  0.0786
 1193ERGO    R316952  -0.076   6.279   6.935 -0.0195 -0.0134 -0.0342
 1193ERGO    R416953  -0.045   6.077   7.145  0.2793  0.1447  0.0788
 1193ERGO    R516954  -0.222   6.198   7.107  0.1208 -0.0885  0.0513
 1193ERGO    C116955  -0.148   6.301   7.467  0.0954  0.2140 -0.0269
 1193ERGO    C216956  -0.180   6.362   7.783  0.0755  0.0491  0.0134
 1194ERGO   ROH16957   9.935   6.615   6.534  0.0077  0.0236 -0.0887
 1194ERGO    R116958  10.069   6.669   6.777  0.0196  0.0210 -0.0938
 1194ERGO    R216959  10.139   6.926   6.855  0.0626  0.0190 -0.1130
 1194ERGO    R316960  10.001   6.860   7.080  0.0518  0.0559 -0.1096
 1194ERGO    R416961  10.165   7.090   7.158 -0.0716  0.1617 -0.1781
 1194ERGO    R516962  10.157   6.897   7.258 -0.0015  0.2046 -0.0959
 1194ERGO    C116963  10.050   7.123   7.545 -0.1598  0.2795 -0.2129
 1194ERGO    C216964   9.972   7.070   7.902  0.1163 -0.0687  0.2087
 1195ERGO   ROH16965   0.598   3.538   6.503 -0.0755 -0.0367  0.0822
 1195ERGO    R116966   0.730   3.517   6.753  0.0542  0.1236  0.0300
 1195ERGO    R216967   0.754   3.730   6.927 -0.1210  0.1627  0.0159
 1195ERGO    R316968   0.641   3.557   7.104  0.1478  0.0317  0.0631
 1195ERGO    R416969   0.780   3.754   7.271 -0.2426  0.3496  0.0125
 1195ERGO    R516970   0.803   3.537   7.279  0.1437  0.3926  0.1088
 1195ERGO    C116971   0.689   3.606   7.637 -0.0610  0.3354  0.0549
 1195ERGO    C216972   0.611   3.520   7.902 -0.0677 -0.0042 -0.3298
 1196ERGO   ROH16973  11.242  15.528   6.230  0.0724 -0.0278 -0.0041
 1196ERGO    R116974  11.472  15.466   6.383  0.0394 -0.0780  0.0257
 1196ERGO    R216975  11.611  15.657   6.527  0.0904 -0.0995  0.0049
 1196ERGO    R316976  11.570  15.485   6.733  0.0163 -0.0510  0.0307
 1196ERGO    R416977  11.752  15.688   6.840  0.2049 -0.1805 -0.0380
 1196ERGO    R516978  11.782  15.472   6.843  0.0393 -0.2050 -0.0290
 1196ERGO    C116979  11.796  15.544   7.217  0.2021 -0.1820 -0.0388
 1196ERGO    C216980  11.774  15.553   7.470  0.0582 -0.1467 -0.2674
 1197ERGO   ROH16981   8.972  11.174   6.514 -0.1497  0.0436  0.0692
 1197ERGO    R116982   9.043  11.352   6.722 -0.0391 -0.0066  0.0753
 1197ERGO    R216983   8.925  11.343   6.972 -0.0320  0.0460  0.0807
 1197ERGO    R316984   9.183  11.325   7.057 -0.0373 -0.1030  0.0669
 1197ERGO    R416985   9.027  11.368   7.302  0.0108  0.0962  0.0638
 1197ERGO    R516986   9.198  11.484   7.235  0.0882 -0.0477  0.0071
 1197ERGO    C116987   9.329  11.365   7.573  0.0309 -0.0144  0.0410
 1197ERGO    C216988   9.357  11.295   7.874 -0.0976 -0.0380  0.1313
 1198ERGO   ROH16989   4.325  11.606   6.300  0.0313 -0.0948 -0.0260
 1198ERGO    R116990   4.361  11.507   6.563  0.2119  0.1383  0.0426
 1198ERGO    R216991   4.387  11.672   6.781 -0.1338  0.3412 -0.0511
 1198ERGO    R316992   4.181  11.524   6.879  0.1443 -0.0150  0.0111
 1198ERGO    R416993   4.326  11.622   7.118 -0.1795  0.5617 -0.0259
 1198ERGO    R516994   4.276  11.413   7.071  0.3023  0.3949  0.1740
 1198ERGO    C116995   4.097  11.453   7.405  0.0550  0.3559  0.0473
 1198ERGO    C216996   4.050  11.527   7.682 -0.2462 -0.0868 -0.6125
 1199ERGO   ROH16997  12.119  16.459   7.675  0.0836  0.1260 -0.0013
 1199ERGO    R116998  12.119  16.276   7.891 -0.0793  0.0899 -0.0292
 1199ERGO    R216999  11.908  16.104   7.941 -0.1363  0.1039 -0.1926
 1199ERGO    R317000  12.103  15.914   7.932 -0.1505  0.0861 -0.1008
 1199ERGO    R417001  11.855  15.764   7.977 -0.1553  0.1218 -0.0557
 1199ERGO    R517002  12.037  15.754   8.097 -0.1680  0.1585 -0.0419
 1199ERGO    C117003  12.007  15.389   7.990 -0.1797  0.1153  0.1102
 1199ERGO    C217004  11.906  15.146   7.775  0.0231  0.2875 -0.1052
 1200ERGO   ROH17005   6.029   3.910   6.557  0.0158 -0.1553 -0.1817
 1200ERGO    R117006   6.007   3.982   6.830 -0.0443 -0.1057 -0.1996
 1200ERGO    R217007   5.854   3.838   7.010 -0.0061 -0.1290 -0.1869
 1200ERGO    R317008   6.087   3.830   7.151 -0.0187 -0.0045 -0.1574
 1200ERGO    R417009   5.876   3.813   7.354 -0.0372 -0.1777 -0.1884
 1200ERGO    R517010   6.040   3.956   7.350 -0.1278 -0.0695 -0.1404
 1200ERGO    C117011   6.106   3.790   7.687 -0.0672 -0.0892 -0.1617
 1200ERGO    C217012   5.892   3.641   7.875 -0.2383  0.1106  0.0721
 1201ERGO   ROH17013   5.550   5.088   6.490 -0.1175  0.1246  0.1188
 1201ERGO    R117014   5.632   5.008   6.748 -0.0704 -0.1497  0.0223
 1201ERGO    R217015   5.630   5.179   6.965  0.3660 -0.2508  0.1198
 1201ERGO    R317016   5.481   4.982   7.078  0.1083 -0.0642  0.1117
 1201ERGO    R417017   5.608   5.117   7.304  0.1331 -0.1300  0.1288
 1201ERGO    R517018   5.613   4.904   7.261 -0.0642 -0.1473  0.2002
 1201ERGO    C117019   5.455   4.896   7.608 -0.2444  0.1155  0.1265
 1201ERGO    C217020   5.264   4.843   7.886  0.0274 -0.0478  0.0675
 1202ERGO   ROH17021  17.486  17.278   6.064  0.0825 -0.0911 -0.1097
 1202ERGO    R117022  17.615  17.118   6.259  0.1408 -0.0592 -0.1221
 1202ERGO    R217023  17.770  17.226   6.461  0.0662 -0.0155 -0.0883
 1202ERGO    R317024  17.604  17.082   6.621  0.1202 -0.1241 -0.1289
 1202ERGO    R417025  17.809  17.188   6.802  0.0109  0.0093 -0.0793
 1202ERGO    R517026  17.750  16.979   6.780  0.1504 -0.0302 -0.0947
 1202ERGO    C117027  17.675  17.031   7.151  0.0295 -0.0780 -0.1122
 1202ERGO    C217028  17.784  17.104   7.500  0.1080 -0.2243 -0.3411
 1203ERGO   ROH17029  10.394  16.439   6.566  0.1215  0.3316 -0.0205
 1203ERGO    R117030  10.277  16.538   6.804  0.0663  0.3489 -0.0537
 1203ERGO    R217031  10.130  16.378   6.975 -0.0531  0.3792 -0.1193
 1203ERGO    R317032  10.306  16.470   7.160 -0.0852  0.3030 -0.0512
 1203ERGO    R417033  10.045  16.488   7.291 -0.0738  0.0928 -0.0234
 1203ERGO    R517034  10.190  16.649   7.270 -0.1456  0.1660  0.1011
 1203ERGO    C117035  10.161  16.637   7.650 -0.1162 -0.1455  0.0964
 1203ERGO    C217036  10.237  16.556   7.983 -0.0950 -0.2100  0.3351
 1204ERGO   ROH17037  14.620   3.277   6.595 -0.2118  0.0608 -0.0739
 1204ERGO    R117038  14.550   3.332   6.864 -0.1138  0.1168 -0.0591
 1204ERGO    R217039  14.478   3.133   7.042 -0.2042  0.1696 -0.0365
 1204ERGO    R317040  14.676   3.242   7.194 -0.0958  0.0444 -0.0853
 1204ERGO    R417041  14.492   3.121   7.387 -0.1630  0.2219 -0.0360
 1204ERGO    R517042  14.562   3.328   7.387 -0.0021  0.1684 -0.0836
 1204ERGO    C117043  14.685   3.217   7.731 -0.0372  0.1349 -0.0816
 1204ERGO    C217044  14.700   2.948   8.061  0.0684 -0.1235  0.1714
 1205ERGO   ROH17045  14.616   7.280   6.479  0.0529 -0.1968  0.0267
 1205ERGO    R117046  14.527   7.186   6.732 -0.0600 -0.1270  0.0141
 1205ERGO    R217047  14.698   7.067   6.914 -0.1525 -0.1278  0.1008
 1205ERGO    R317048  14.600   7.259   7.080 -0.1716 -0.0729  0.0267
 1205ERGO    R417049  14.735   7.070   7.258 -0.1324  0.0203  0.0982
 1205ERGO    R517050  14.530   7.139   7.275 -0.1421 -0.0032  0.0809
 1205ERGO    C117051  14.665   7.251   7.614 -0.1386  0.1580  0.0271
 1205ERGO    C217052  14.700   7.215   7.892 -0.2255  0.1300  0.1225
 1206ERGO   ROH17053  15.320   9.652   6.138 -0.1492 -0.0122 -0.1374
 1206ERGO    R117054  15.267   9.722   6.407 -0.1141  0.0997 -0.1601
 1206ERGO    R217055  15.123   9.560   6.578 -0.0774  0.1643 -0.0706
 1206ERGO    R317056  15.343   9.587   6.736 -0.0569  0.2468 -0.1112
 1206ERGO    R417057  15.131   9.496   6.917  0.0662 -0.0536 -0.1125
 1206ERGO    R517058  15.257   9.672   6.943 -0.0763  0.0391 -0.0307
 1206ERGO    C117059  15.342   9.483   7.263  0.1690 -0.1030 -0.1750
 1206ERGO    C217060  15.262   9.345   7.568  0.1275  0.0196  0.0282
 1207ERGO   ROH17061   2.425   3.726   6.215  0.1538  0.2448 -0.0922
 1207ERGO    R117062   2.587   3.630   6.427  0.0351  0.2389 -0.0029
 1207ERGO    R217063   2.676   3.793   6.631 -0.0572  0.2381  0.0361
 1207ERGO    R317064   2.561   3.604   6.789 -0.1548  0.2557 -0.0133
 1207ERGO    R417065   2.741   3.750   6.968  0.0152  0.0483 -0.0008
 1207ERGO    R517066   2.736   3.535   6.936 -0.1576  0.0604 -0.0946
 1207ERGO    C117067   2.671   3.548   7.312 -0.0342 -0.0456 -0.0688
 1207ERGO    C217068   2.496   3.726   7.550 -0.2879  0.2906  0.0642
 1208ERGO   ROH17069   2.314  17.071   6.609 -0.0528  0.0179  0.0187
 1208ERGO    R117070   2.394  16.994   6.870 -0.0534  0.0692  0.0340
 1208ERGO    R217071   2.614  17.104   6.996 -0.0846  0.1307  0.0325
 1208ERGO    R317072   2.434  17.156   7.193 -0.1065  0.1202  0.0156
 1208ERGO    R417073   2.674  17.064   7.334 -0.1186  0.1126  0.0367
 1208ERGO    R517074   2.473  16.984   7.356 -0.1224  0.1104  0.0108
 1208ERGO    C117075   2.541  17.091   7.716 -0.1590  0.0924  0.0233
 1208ERGO    C217076   2.396  17.036   8.101 -0.0327  0.3952 -0.0139
 1209ERGO   ROH17077   1.522   6.587   6.478 -0.0442  0.2060 -0.0062
 1209ERGO    R117078   1.359   6.485   6.686 -0.0804  0.1526 -0.0601
 1209ERGO    R217079   1.411   6.244   6.810 -0.1192  0.1062 -0.1330
 1209ERGO    R317080   1.404   6.395   7.036 -0.1329  0.0330 -0.0838
 1209ERGO    R417081   1.450   6.121   7.131 -0.0497  0.0164 -0.1751
 1209ERGO    R517082   1.292   6.257   7.197 -0.0775 -0.0463 -0.1137
 1209ERGO    C117083   1.467   6.192   7.530 -0.0220 -0.1046 -0.1536
 1209ERGO    C217084   1.507   5.925   7.791 -0.0887  0.2593 -0.1216
 1210ERGO   ROH17085   6.311   0.966   6.426  0.2517  0.0667 -0.1415
 1210ERGO    R117086   6.478   0.990   6.654  0.1300 -0.0460 -0.0399
 1210ERGO    R217087   6.427   1.169   6.857  0.1743  0.0510 -0.1184
 1210ERGO    R317088   6.442   0.947   7.013 -0.1431  0.0707 -0.0499
 1210ERGO    R417089   6.436   1.172   7.203  0.5651  0.1798 -0.1235
 1210ERGO    R517090   6.585   1.013   7.195  0.2140 -0.1624 -0.2324
 1210ERGO    C117091   6.455   0.965   7.550  0.4947  0.2733 -0.0620
 1210ERGO    C217092   6.465   1.023   7.924 -0.0592 -0.1461  0.0287
 1211ERGO   ROH17093  16.977   0.395   6.121  0.1182  0.1245  0.0618
 1211ERGO    R117094  17.125   0.244   6.309  0.2078  0.1866  0.0426
 1211ERGO    R217095  17.276   0.362   6.509 -0.0074  0.2516  0.1741
 1211ERGO    R317096  17.127   0.203   6.671  0.0963 -0.0052  0.0217
 1211ERGO    R417097  17.394   0.206   6.793  0.0356  0.2271  0.1424
 1211ERGO    R517098  17.279   0.029   6.738  0.2587  0.1267 -0.0049
 1211ERGO    C117099  17.324  -0.035   7.111  0.1582 -0.0282 -0.0191
 1211ERGO    C217100  17.383   0.043   7.353  0.3288 -0.4097  0.0015
 1212ERGO   ROH17101   0.821   3.058   6.380 -0.0753 -0.2528  0.0703
 1212ERGO    R117102   0.841   2.996   6.656 -0.0081 -0.1401  0.0911
 1212ERGO    R217103   1.081   2.995   6.791  0.0152 -0.0042  0.0520
 1212ERGO    R317104   0.952   3.167   6.957 -0.0170  0.0151  0.0074
 1212ERGO    R417105   1.115   3.000   7.135 -0.0248  0.0595  0.0553
 1212ERGO    R517106   0.900   3.036   7.151 -0.0290  0.0456  0.0248
 1212ERGO    C117107   1.013   3.165   7.491 -0.0782  0.1146  0.0153
 1212ERGO    C217108   1.116   3.189   7.775 -0.1231 -0.0844 -0.1016
 1213ERGO   ROH17109   1.901   0.228   6.701  0.0626  0.2111 -0.0819
 1213ERGO    R117110   2.001   0.267   6.964 -0.1037  0.2247 -0.0198
 1213ERGO    R217111   1.835   0.291   7.184 -0.2341 -0.2162 -0.0651
 1213ERGO    R317112   1.988   0.088   7.280  0.1012 -0.0064 -0.1377
 1213ERGO    R417113   1.914   0.243   7.517 -0.3449 -0.3144 -0.0523
 1213ERGO    R517114   2.115   0.188   7.457 -0.1899  0.1138  0.0161
 1213ERGO    C117115   2.103   0.025   7.801 -0.0947 -0.1745 -0.1129
 1213ERGO    C217116   1.970  -0.017   8.100  0.0718  0.0825  0.0440
 1214ERGO   ROH17117   3.751  10.742   6.582 -0.1702  0.0740 -0.0602
 1214ERGO    R117118   3.662  10.792   6.846 -0.0915 -0.0284 -0.0136
 1214ERGO    R217119   3.602  10.589   7.023  0.0679 -0.0982 -0.0374
 1214ERGO    R317120   3.780  10.720   7.183  0.0711 -0.0557 -0.0758
 1214ERGO    R417121   3.711  10.477   7.332  0.0963 -0.0274 -0.0215
 1214ERGO    R517122   3.699  10.682   7.405  0.0896 -0.0141 -0.0628
 1214ERGO    C117123   3.941  10.535   7.661  0.1159  0.0538 -0.0482
 1214ERGO    C217124   4.172  10.646   7.966  0.1527  0.0928  0.4778
 1215ERGO   ROH17125   1.210   6.840   6.417 -0.3018 -0.2011 -0.1141
 1215ERGO    R117126   1.016   6.951   6.591 -0.1717 -0.2015  0.0341
 1215ERGO    R217127   1.017   6.906   6.864  0.0962 -0.1162  0.0519
 1215ERGO    R317128   1.014   7.177   6.876  0.0343 -0.1128 -0.0344
 1215ERGO    R417129   0.948   7.090   7.148 -0.0268 -0.0320 -0.0313
 1215ERGO    R517130   0.833   7.228   7.024 -0.0174 -0.0984 -0.1068
 1215ERGO    C117131   0.904   7.452   7.325 -0.1564  0.0202 -0.1607
 1215ERGO    C217132   0.783   7.458   7.673 -0.2795 -0.0827  0.3400
 1216ERGO   ROH17133  17.359   5.148   6.421  0.2236  0.3721  0.0022
 1216ERGO    R117134  17.441   5.069   6.680  0.1460  0.2139 -0.0203
 1216ERGO    R217135  17.593   5.232   6.844  0.1221  0.1026  0.1132
 1216ERGO    R317136  17.391   5.186   7.021  0.0702  0.0250  0.0349
 1216ERGO    R417137  17.608   5.298   7.183  0.0036  0.0072  0.1379
 1216ERGO    R517138  17.501   5.111   7.220  0.0159 -0.0178  0.0495
 1216ERGO    C117139  17.428   5.293   7.546 -0.1142 -0.1213  0.0789
 1216ERGO    C217140  17.498   5.433   7.948 -0.1729  0.1293 -0.1574
 1217ERGO   ROH17141  13.862  16.729   5.846 -0.2763 -0.2219  0.0196
 1217ERGO    R117142  13.791  16.870   6.081 -0.3938 -0.2552  0.0065
 1217ERGO    R217143  13.654  16.752   6.290 -0.1569 -0.3970  0.0929
 1217ERGO    R317144  13.863  16.845   6.437 -0.2271 -0.0602 -0.0129
 1217ERGO    R417145  13.667  16.757   6.636  0.0030 -0.3469  0.0854
 1217ERGO    R517146  13.762  16.953   6.625 -0.3035 -0.2007  0.0236
 1217ERGO    C117147  13.872  16.846   6.974  0.0302 -0.0014 -0.0183
 1217ERGO    C217148  14.030  16.755   7.239 -0.4154  0.1568 -0.0864
 1218ERGO   ROH17149   2.360  10.157   6.450  0.1132  0.0143  0.0098
 1218ERGO    R117150   2.264  10.177   6.715  0.0511 -0.1843  0.0042
 1218ERGO    R217151   2.292   9.973   6.900  0.4629 -0.1382  0.0047
 1218ERGO    R317152   2.408  10.168   7.050  0.0575  0.1095  0.0123
 1218ERGO    R417153   2.308   9.973   7.245  0.3280 -0.0322  0.0118
 1218ERGO    R517154   2.266  10.187   7.242 -0.0568 -0.1015 -0.0486
 1218ERGO    C117155   2.426  10.156   7.587 -0.1311  0.2621  0.0230
 1218ERGO    C217156   2.416  10.114   7.862 -0.0867  0.1497  0.1204
 1219ERGO   ROH17157  10.336  11.013   6.444 -0.0450 -0.0805 -0.0209
 1219ERGO    R117158  10.275  11.173   6.670 -0.2239 -0.0564 -0.0851
 1219ERGO    R217159  10.104  11.089   6.869  0.0254 -0.2579  0.0470
 1219ERGO    R317160  10.315  11.146   7.030  0.0074  0.2245 -0.0854
 1219ERGO    R417161  10.081  11.164   7.206  0.0499 -0.1415  0.0235
 1219ERGO    R517162  10.233  11.317   7.177 -0.2496  0.1449 -0.1271
 1219ERGO    C117163  10.267  11.261   7.553  0.0472  0.3790 -0.1145
 1219ERGO    C217164  10.260  11.257   7.940 -0.0757  0.1103 -0.1731
 1220ERGO   ROH17165   6.276  12.615   6.575 -0.1258  0.0892 -0.1367
 1220ERGO    R117166   6.472  12.556   6.770 -0.1819  0.0339 -0.0965
 1220ERGO    R217167   6.704  12.704   6.798 -0.1088 -0.0775 -0.0998
 1220ERGO    R317168   6.621  12.727   7.056 -0.1337  0.0251 -0.1164
 1220ERGO    R417169   6.910  12.686   7.074 -0.1766 -0.2661 -0.0605
 1220ERGO    R517170   6.756  12.570   7.176 -0.3130 -0.1040 -0.0799
 1220ERGO    C117171   6.952  12.696   7.477 -0.2395 -0.2797 -0.0532
 1220ERGO    C217172   7.026  12.651   7.824  0.0870  0.0034 -0.0449
 1221ERGO   ROH17173  14.741  15.193   5.911 -0.0360 -0.1945  0.0678
 1221ERGO    R117174  14.609  15.264   6.150 -0.0780 -0.2557  0.0629
 1221ERGO    R217175  14.606  15.101   6.373  0.1004 -0.2014  0.1060
 1221ERGO    R317176  14.703  15.323   6.497 -0.0941 -0.0754  0.0378
 1221ERGO    R417177  14.716  15.113   6.701  0.2932 -0.0582  0.0388
 1221ERGO    R517178  14.620  15.307   6.721  0.0636 -0.1733  0.0913
 1221ERGO    C117179  14.870  15.327   7.008  0.2229  0.1433 -0.0644
 1221ERGO    C217180  15.051  15.101   7.241  0.1218  0.0429  0.5392
 1222ERGO   ROH17181   3.932   2.918   6.821 -0.3924  0.0451 -0.0352
 1222ERGO    R117182   3.819   2.799   7.051 -0.1260 -0.1087  0.0230
 1222ERGO    R217183   3.969   2.656   7.234  0.1527  0.0525 -0.0611
 1222ERGO    R317184   3.859   2.831   7.412  0.0404 -0.0804  0.0002
 1222ERGO    R417185   3.978   2.620   7.578  0.2431 -0.0034 -0.0700
 1222ERGO    R517186   3.772   2.692   7.586  0.1920 -0.1818 -0.0126
 1222ERGO    C117187   3.881   2.763   7.945  0.1904 -0.1606 -0.0177
 1222ERGO    C217188   3.728   3.039   8.216 -0.1866 -0.0017  0.0681
 1223ERGO   ROH17189   6.962   1.869   6.320  0.0237 -0.0415  0.0317
 1223ERGO    R117190   7.036   1.927   6.587 -0.0645  0.1541  0.0140
 1223ERGO    R217191   6.904   2.116   6.740 -0.3763 -0.0227 -0.0381
 1223ERGO    R317192   6.879   1.909   6.914 -0.0274 -0.0204  0.0255
 1223ERGO    R417193   6.869   2.149   7.082 -0.4620  0.0377 -0.0516
 1223ERGO    R517194   7.001   1.978   7.107 -0.1555  0.2681  0.0157
 1223ERGO    C117195   6.824   1.973   7.445 -0.1844  0.0751  0.0001
 1223ERGO    C217196   6.763   1.920   7.719 -0.3519  0.0702 -0.0041
 1224ERGO   ROH17197   8.235   6.263   6.264  0.0963  0.0116 -0.0670
 1224ERGO    R117198   8.189   6.174   6.528  0.0507 -0.0581 -0.0993
 1224ERGO    R217199   8.375   6.203   6.730 -0.0410  0.0142 -0.0300
 1224ERGO    R317200   8.169   6.324   6.859 -0.1562 -0.1256 -0.0784
 1224ERGO    R417201   8.349   6.235   7.073 -0.2049 -0.1234 -0.0278
 1224ERGO    R517202   8.136   6.191   7.055 -0.1821 -0.2159 -0.1396
 1224ERGO    C117203   8.140   6.367   7.394 -0.4085 -0.3347 -0.0720
 1224ERGO    C217204   8.078   6.350   7.772  0.3578 -0.0564  0.0100
 1225ERGO   ROH17205  13.842  11.283   6.452 -0.0551  0.1631 -0.1326
 1225ERGO    R117206  13.930  11.438   6.672 -0.0288  0.0922 -0.0934
 1225ERGO    R217207  13.856  11.383   6.932 -0.1048  0.0882 -0.1176
 1225ERGO    R317208  14.124  11.382   6.975 -0.1128 -0.0373 -0.0622
 1225ERGO    R417209  14.006  11.341   7.240 -0.2028  0.4921 -0.0083
 1225ERGO    R517210  14.151  11.494   7.185 -0.0779  0.2985 -0.2386
 1225ERGO    C117211  14.346  11.315   7.460 -0.2673  0.6096  0.1074
 1225ERGO    C217212  14.377  11.109   7.747 -0.0054 -0.2820 -0.0032
 1226ERGO   ROH17213   6.695  15.479   6.654  0.1255  0.0387  0.0032
 1226ERGO    R117214   6.853  15.624   6.839  0.1627 -0.0697  0.0590
 1226ERGO    R217215   6.795  15.885   6.911  0.3797  0.0130 -0.0443
 1226ERGO    R317216   6.802  15.783   7.163  0.1235  0.0667 -0.0140
 1226ERGO    R417217   6.907  16.055   7.190  0.4134 -0.0461 -0.0229
 1226ERGO    R517218   7.003  15.871   7.257  0.1695 -0.1370  0.0775
 1226ERGO    C117219   6.979  16.057   7.589  0.1927 -0.0300  0.0181
 1226ERGO    C217220   6.923  16.156   7.840 -0.4325  0.0082 -0.1050
 1227ERGO   ROH17221  17.191   4.065   6.523  0.1059  0.0868  0.0533
 1227ERGO    R117222  17.093   4.100   6.786  0.0122 -0.1304  0.0488
 1227ERGO    R217223  17.009   3.889   6.944  0.2650 -0.2952 -0.0398
 1227ERGO    R317224  17.188   3.992   7.121  0.0984 -0.1164  0.0305
 1227ERGO    R417225  16.975   3.879   7.287  0.1455 -0.3506 -0.0518
 1227ERGO    R517226  17.053   4.082   7.296 -0.0662 -0.2638 -0.0125
 1227ERGO    C117227  17.124   3.969   7.654 -0.0807 -0.2151  0.0071
 1227ERGO    C217228  17.041   4.024   7.931 -0.3607 -0.0126  0.1008
 1228ERGO   ROH17229  11.719   8.668   6.632 -0.0444 -0.2039  0.0055
 1228ERGO    R117230  11.614   8.736   6.886 -0.2270 -0.2308 -0.0584
 1228ERGO    R217231  11.502   8.549   7.056 -0.0904 -0.3079 -0.0287
 1228ERGO    R317232  11.683   8.649   7.232 -0.2615 -0.0365 -0.0064
 1228ERGO    R417233  11.456   8.565   7.398 -0.1577 -0.3024 -0.0397
 1228ERGO    R517234  11.549   8.761   7.397 -0.4270 -0.1889 -0.0506
 1228ERGO    C117235  11.599   8.668   7.763 -0.3575 -0.0444 -0.0253
 1228ERGO    C217236  11.582   8.559   8.034 -0.0695 -0.0778  0.0110
 1229ERGO   ROH17237   2.650   6.075   6.440  0.1017 -0.2983 -0.0576
 1229ERGO    R117238   2.541   6.087   6.701  0.0777 -0.2443 -0.0695
 1229ERGO    R217239   2.435   5.866   6.829  0.0340 -0.2134 -0.0446
 1229ERGO    R317240   2.611   5.935   7.024  0.0271 -0.2065 -0.0418
 1229ERGO    R417241   2.443   5.727   7.145 -0.1111 -0.0436  0.0350
 1229ERGO    R517242   2.482   5.926   7.226 -0.0196 -0.0245 -0.0650
 1229ERGO    C117243   2.613   5.711   7.513 -0.2020  0.0617  0.0840
 1229ERGO    C217244   2.635   5.592   7.844 -0.0298  0.0175 -0.1801
 1230ERGO   ROH17245  11.006   4.722   6.670 -0.1444  0.1470 -0.1193
 1230ERGO    R117246  11.119   4.779   6.923 -0.0475  0.0690 -0.1420
 1230ERGO    R217247  11.115   5.032   7.034  0.0354  0.0529 -0.0763
 1230ERGO    R317248  10.999   4.903   7.243  0.0776  0.0174 -0.0780
 1230ERGO    R417249  11.187   5.091   7.367  0.0758 -0.0074 -0.0760
 1230ERGO    R517250  11.176   4.876   7.402  0.0916 -0.0025 -0.1088
 1230ERGO    C117251  11.120   5.003   7.757  0.1387 -0.0759 -0.0774
 1230ERGO    C217252  11.095   5.098   8.122 -0.0379  0.2460  0.3796
 1231ERGO   ROH17253  10.029   9.549   6.820 -0.0177  0.0332  0.1386
 1231ERGO    R117254   9.989   9.713   7.048  0.1912  0.1510  0.0940
 1231ERGO    R217255   9.862   9.622   7.276 -0.0912  0.4267  0.0558
 1231ERGO    R317256  10.089   9.707   7.398  0.0276  0.0115  0.1394
 1231ERGO    R417257   9.900   9.665   7.617 -0.1350  0.3547  0.0694
 1231ERGO    R517258  10.013   9.846   7.577  0.2154  0.1534  0.1111
 1231ERGO    C117259  10.135   9.770   7.930 -0.0493 -0.0768  0.1559
 1231ERGO    C217260   9.961   9.875   8.200  0.2036  0.0660 -0.2991
 1232ERGO   ROH17261   9.565   9.374   6.673  0.1067  0.1045 -0.0418
 1232ERGO    R117262   9.639   9.401   6.946  0.0606  0.1622 -0.0339
 1232ERGO    R217263   9.460   9.483   7.140  0.0235  0.2052 -0.0768
 1232ERGO    R317264   9.538   9.253   7.262  0.0037  0.2277 -0.0236
 1232ERGO    R417265   9.433   9.419   7.479  0.0134  0.2673 -0.0664
 1232ERGO    R517266   9.628   9.324   7.472  0.0001  0.2563 -0.0385
 1232ERGO    C117267   9.490   9.166   7.790 -0.0111  0.3245 -0.0104
 1232ERGO    C217268   9.469   9.060   8.229 -0.2255 -0.0474  0.3496
 1233ERGO   ROH17269   3.441   6.536   6.706  0.0209  0.0136  0.1451
 1233ERGO    R117270   3.635   6.667   6.865  0.0494  0.0332  0.0947
 1233ERGO    R217271   3.572   6.793   7.103  0.0892  0.0755  0.0847
 1233ERGO    R317272   3.768   6.632   7.202  0.0974  0.0837  0.0808
 1233ERGO    R417273   3.718   6.828   7.414 -0.0392 -0.0371  0.1583
 1233ERGO    R517274   3.910   6.780   7.324  0.0081  0.0635  0.2091
 1233ERGO    C117275   3.986   6.697   7.689 -0.1063 -0.0951  0.1974
 1233ERGO    C217276   4.111   6.523   7.985 -0.1928 -0.0343  0.0429
 1234ERGO   ROH17277   9.372   8.513   6.814  0.1595 -0.1364 -0.0991
 1234ERGO    R117278   9.306   8.398   7.064  0.0876 -0.0235 -0.0663
 1234ERGO    R217279   9.469   8.215   7.191 -0.0239 -0.0805 -0.0126
 1234ERGO    R317280   9.450   8.391   7.398  0.0768 -0.0112 -0.0601
 1234ERGO    R417281   9.509   8.133   7.524  0.1949  0.0331 -0.0077
 1234ERGO    R517282   9.343   8.266   7.572  0.2001  0.0267  0.0492
 1234ERGO    C117283   9.514   8.249   7.912  0.4168  0.1644 -0.0494
 1234ERGO    C217284   9.513   8.057   8.207 -0.1692 -0.0447  0.0800
 1235ERGO   ROH17285   8.866  17.237   6.700 -0.2893 -0.1396  0.0606
 1235ERGO    R117286   8.931  17.237   6.976 -0.2348 -0.1377  0.0472
 1235ERGO    R217287   8.989  17.469   7.115 -0.1188 -0.1487  0.0113
 1235ERGO    R317288   8.791  17.381   7.279 -0.1189 -0.0559  0.0631
 1235ERGO    R417289   8.958  17.551   7.449 -0.0670 -0.0259 -0.0126
 1235ERGO    R517290   8.900  17.345   7.490 -0.1013 -0.0036  0.0649
 1235ERGO    C117291   8.755  17.516   7.798 -0.0369  0.1327  0.0220
 1235ERGO    C217292   8.453  17.558   8.102 -0.3315 -0.1137 -0.1582
 1236ERGO   ROH17293  13.327  12.022   6.140  0.2079  0.3248 -0.0909
 1236ERGO    R117294  13.311  12.170   6.380  0.1853  0.1902 -0.0094
 1236ERGO    R217295  13.152  12.093   6.592  0.1624  0.0751 -0.0724
 1236ERGO    R317296  13.384  12.111   6.732  0.1459 -0.0065 -0.0319
 1236ERGO    R417297  13.175  12.098   6.937  0.0962  0.0782 -0.0673
 1236ERGO    R517298  13.330  12.250   6.920  0.1593  0.0229 -0.0459
 1236ERGO    C117299  13.406  12.117   7.269  0.0420  0.0032 -0.0264
 1236ERGO    C217300  13.574  12.061   7.589 -0.0096  0.0373  0.0911
 1237ERGO   ROH17301  16.585   9.198   6.277 -0.0191  0.1146  0.0274
 1237ERGO    R117302  16.747   9.149   6.504  0.0920  0.2143 -0.0283
 1237ERGO    R217303  16.897   9.346   6.626 -0.1147  0.3477  0.0186
 1237ERGO    R317304  16.762   9.266   6.848  0.0262  0.0951  0.0158
 1237ERGO    R417305  16.962   9.456   6.947  0.0891 -0.0176  0.1070
 1237ERGO    R517306  16.930   9.253   7.018  0.1344 -0.1003 -0.1038
 1237ERGO    C117307  16.873   9.445   7.342  0.3400 -0.4677  0.1559
 1237ERGO    C217308  16.849   9.635   7.574 -0.2117  0.0822 -0.1890
 1238ERGO   ROH17309  10.924  15.742   7.182  0.1594 -0.5260  0.0135
 1238ERGO    R117310  10.792  15.816   7.421  0.3669 -0.1105  0.0080
 1238ERGO    R217311  10.637  15.639   7.567 -0.1784  0.3417  0.0167
 1238ERGO    R317312  10.801  15.716   7.770  0.0632 -0.1286  0.0131
 1238ERGO    R417313  10.554  15.632   7.902 -0.0883  0.3382  0.0394
 1238ERGO    R517314  10.656  15.822   7.927  0.3433  0.1089  0.1188
 1238ERGO    C117315  10.659  15.699   8.288  0.1911 -0.1053  0.0492
 1238ERGO    C217316  10.659  15.432   8.514 -0.1163 -0.1997  0.1860
 1239ERGO   ROH17317  10.624  16.886   6.311  0.0555 -0.0223  0.0411
 1239ERGO    R117318  10.583  16.992   6.571 -0.0350  0.0493 -0.0018
 1239ERGO    R217319  10.381  17.172   6.629 -0.1627 -0.0655 -0.0856
 1239ERGO    R317320  10.316  16.989   6.819 -0.0516 -0.0381 -0.0204
 1239ERGO    R417321  10.213  17.242   6.922 -0.1839 -0.0596 -0.0989
 1239ERGO    R517322  10.346  17.105   7.026 -0.1022  0.0472 -0.0604
 1239ERGO    C117323  10.055  17.111   7.272 -0.0919 -0.0306 -0.0454
 1239ERGO    C217324   9.929  17.151   7.528  0.0603  0.2206 -0.0978
 1240ERGO   ROH17325   2.557   2.580   6.203 -0.2715  0.0548 -0.1204
 1240ERGO    R117326   2.562   2.477   6.467 -0.2820 -0.0035 -0.1427
 1240ERGO    R217327   2.685   2.609   6.676  0.0163 -0.2139 -0.1767
 1240ERGO    R317328   2.442   2.582   6.794  0.0319  0.1093 -0.0606
 1240ERGO    R417329   2.631   2.600   7.017  0.1584 -0.1126 -0.1509
 1240ERGO    R517330   2.484   2.443   6.985 -0.0597  0.0729 -0.0687
 1240ERGO    C117331   2.371   2.570   7.326  0.2557  0.2498 -0.0269
 1240ERGO    C217332   2.391   2.470   7.710  0.3172  0.2139  0.3498
 1241ERGO   ROH17333   9.053   0.759   6.176  0.6118 -0.0983 -0.0410
 1241ERGO    R117334   8.881   0.745   6.400  0.4413 -0.0268 -0.1690
 1241ERGO    R217335   8.893   0.540   6.585  0.2712  0.0163 -0.1273
 1241ERGO    R317336   8.917   0.744   6.762  0.1597  0.0404 -0.1345
 1241ERGO    R417337   8.837   0.514   6.925  0.4113 -0.0559 -0.1069
 1241ERGO    R517338   8.740   0.709   6.919  0.2336 -0.1270 -0.0713
 1241ERGO    C117339   8.828   0.691   7.290  0.3883 -0.0753 -0.1018
 1241ERGO    C217340   8.895   0.716   7.622 -0.3227 -0.1116  0.1883
 1242ERGO   ROH17341  13.401  14.098   5.750 -0.0800  0.1313 -0.0644
 1242ERGO    R117342  13.364  13.969   5.999 -0.2580  0.2155 -0.0454
 1242ERGO    R217343  13.574  13.861   6.144 -0.4142 -0.1803 -0.1007
 1242ERGO    R317344  13.475  14.018   6.342 -0.0585  0.0293 -0.0803
 1242ERGO    R417345  13.599  13.792   6.481 -0.4671 -0.2222 -0.1052
 1242ERGO    R517346  13.395  13.863   6.506 -0.3287  0.1869 -0.0562
 1242ERGO    C117347  13.521  13.898   6.864 -0.1640 -0.0499 -0.0888
 1242ERGO    C217348  13.686  13.781   7.141 -0.1331 -0.1984 -0.0311
 1243ERGO   ROH17349  15.069  12.464   5.978  0.0257 -0.1225 -0.1117
 1243ERGO    R117350  15.032  12.579   6.234 -0.0495 -0.1312 -0.1183
 1243ERGO    R217351  14.993  12.427   6.462  0.0090 -0.1435 -0.1156
 1243ERGO    R317352  15.204  12.570   6.555 -0.0674 -0.0358 -0.1059
 1243ERGO    R417353  15.054  12.495   6.795 -0.0174 -0.1447 -0.1104
 1243ERGO    R517354  15.115  12.696   6.738 -0.1310 -0.1050 -0.0897
 1243ERGO    C117355  15.289  12.668   7.076 -0.1043 -0.0442 -0.0983
 1243ERGO    C217356  15.279  12.527   7.294  0.0125  0.4083  0.3002
 1244ERGO   ROH17357  11.951   4.615   6.545  0.0380 -0.0557  0.0722
 1244ERGO    R117358  11.899   4.610   6.823 -0.0101 -0.0380  0.0638
 1244ERGO    R217359  12.059   4.473   7.002 -0.0708 -0.0726  0.0946
 1244ERGO    R317360  12.071   4.715   7.126 -0.0357 -0.0716  0.0892
 1244ERGO    R417361  12.155   4.522   7.331 -0.1044 -0.0775  0.1051
 1244ERGO    R517362  11.997   4.671   7.350 -0.0732 -0.0452  0.0798
 1244ERGO    C117363  12.222   4.777   7.638 -0.0908 -0.0794  0.1062
 1244ERGO    C217364  12.390   5.017   7.859 -0.0449  0.0689  0.4531
 1245ERGO   ROH17365   3.454   5.641   6.572 -0.4751 -0.1444 -0.0880
 1245ERGO    R117366   3.519   5.559   6.835  0.0576  0.0449 -0.1471
 1245ERGO    R217367   3.650   5.723   7.014 -0.2381  0.4601 -0.2941
 1245ERGO    R317368   3.437   5.666   7.173  0.0788 -0.1914 -0.0655
 1245ERGO    R417369   3.627   5.802   7.350 -0.2265  0.6379 -0.3341
 1245ERGO    R517370   3.534   5.608   7.385  0.4847  0.3060 -0.0980
 1245ERGO    C117371   3.414   5.795   7.694  0.0777  0.1298 -0.1429
 1245ERGO    C217372   3.256   5.831   8.007 -0.2254 -0.0557 -0.1213
 1246ERGO   ROH17373   5.386   3.218   6.345  0.0811  0.0614  0.0004
 1246ERGO    R117374   5.198   3.205   6.557  0.0596 -0.1387 -0.0276
 1246ERGO    R217375   5.213   3.017   6.758  0.2419 -0.1161 -0.0100
 1246ERGO    R317376   5.205   3.235   6.919 -0.0258 -0.1084 -0.0300
 1246ERGO    R417377   5.207   3.007   7.103  0.1946 -0.0786 -0.0103
 1246ERGO    R517378   5.063   3.170   7.100  0.0181 -0.2409 -0.0487
 1246ERGO    C117379   5.196   3.206   7.456 -0.0843 -0.0495 -0.0293
 1246ERGO    C217380   5.083   3.456   7.776  0.2342 -0.0207  0.0122
 1247ERGO   ROH17381  15.167   2.191   6.081  0.1429 -0.0391 -0.0515
 1247ERGO    R117382  15.135   2.330   6.325  0.0561 -0.0181 -0.0747
 1247ERGO    R217383  14.927   2.279   6.500 -0.0345  0.0301 -0.1661
 1247ERGO    R317384  15.128   2.246   6.679 -0.1214  0.0042 -0.0722
 1247ERGO    R417385  14.888   2.277   6.843 -0.1788  0.1149 -0.1811
 1247ERGO    R517386  15.072   2.392   6.860 -0.1506  0.0593 -0.1272
 1247ERGO    C117387  15.055   2.246   7.212 -0.3443  0.1400 -0.1017
 1247ERGO    C217388  14.959   2.213   7.549  0.1266 -0.2894 -0.0417
 1248ERGO   ROH17389   9.425   4.302   6.704 -0.3811  0.1293  0.1907
 1248ERGO    R117390   9.545   4.199   6.939 -0.3253 -0.0526  0.0848
 1248ERGO    R217391   9.687   4.357   7.116  0.0450 -0.2531 -0.0149
 1248ERGO    R317392   9.514   4.252   7.298  0.0428 -0.0279  0.1162
 1248ERGO    R417393   9.730   4.366   7.459  0.1925 -0.1112 -0.0364
 1248ERGO    R517394   9.654   4.162   7.469  0.0425 -0.0460  0.1022
 1248ERGO    C117395   9.594   4.272   7.829  0.2765  0.1828  0.0742
 1248ERGO    C217396   9.400   4.317   8.148 -0.1976 -0.2079  0.0725
 1249ERGO   ROH17397   2.582   5.265   6.091  0.0489  0.0323 -0.0623
 1249ERGO    R117398   2.555   5.026   6.241 -0.1818  0.0563 -0.0627
 1249ERGO    R217399   2.739   4.949   6.432 -0.1093 -0.2501 -0.2508
 1249ERGO    R317400   2.518   4.936   6.591  0.0192  0.0812 -0.0336
 1249ERGO    R417401   2.737   4.838   6.760  0.0129 -0.4776 -0.3243
 1249ERGO    R517402   2.549   4.736   6.720 -0.2425 -0.0781 -0.2084
 1249ERGO    C117403   2.529   4.761   7.100  0.2046 -0.2989 -0.1633
 1249ERGO    C217404   2.423   4.629   7.438 -0.2403  0.3333  0.1303
 1250ERGO   ROH17405  16.424  13.064   5.623 -0.1012 -0.1459 -0.1472
 1250ERGO    R117406  16.407  13.175   5.882  0.0807 -0.1352 -0.1400
 1250ERGO    R217407  16.167  13.239   6.002  0.1796  0.1520 -0.0950
 1250ERGO    R317408  16.260  13.080   6.202  0.0230  0.0307 -0.1158
 1250ERGO    R417409  16.138  13.310   6.339  0.1304  0.0688 -0.0806
 1250ERGO    R517410  16.341  13.234   6.367  0.0765 -0.0694 -0.0459
 1250ERGO    C117411  16.208  13.202   6.723 -0.0451 -0.0936 -0.0917
 1250ERGO    C217412  16.108  13.258   7.090  0.2606  0.3643 -0.0765
 1251ERGO   ROH17413   0.318  14.672   5.583  0.0873 -0.0289  0.1146
 1251ERGO    R117414   0.068  14.590   5.687  0.0605 -0.1146 -0.0155
 1251ERGO    R217415  -0.016  14.327   5.685  0.1739 -0.1500 -0.0129
 1251ERGO    R317416  -0.049  14.369   5.951 -0.0006 -0.1121 -0.0399
 1251ERGO    R417417  -0.207  14.129   5.894  0.2694 -0.2917 -0.0579
 1251ERGO    R517418  -0.278  14.310   5.992  0.0356 -0.3339 -0.1391
 1251ERGO    C117419  -0.351  14.054   6.265  0.1612 -0.3388 -0.1093
 1251ERGO    C217420  -0.624  13.886   6.177 -0.2972 -0.0271  0.0968
 1252ERGO   ROH17421   8.138   3.551   6.271 -0.3068  0.1286 -0.1341
 1252ERGO    R117422   8.241   3.537   6.534 -0.2107  0.1949 -0.1680
 1252ERGO    R217423   8.198   3.735   6.722 -0.3467  0.1297 -0.1296
 1252ERGO    R317424   8.105   3.528   6.872 -0.0988  0.0175 -0.1263
 1252ERGO    R417425   8.188   3.729   7.068  0.0115 -0.0377 -0.1187
 1252ERGO    R517426   8.251   3.521   7.061  0.1005 -0.0063 -0.2790
 1252ERGO    C117427   8.096   3.530   7.409  0.4527 -0.2406 -0.1093
 1252ERGO    C217428   7.896   3.384   7.649  0.0226 -0.0462 -0.0010
 1253ERGO   ROH17429   3.153  11.885   6.467  0.0486 -0.2251 -0.0767
 1253ERGO    R117430   3.172  11.690   6.671 -0.0646 -0.1452  0.0118
 1253ERGO    R217431   3.367  11.697   6.866 -0.0512 -0.1789  0.0000
 1253ERGO    R317432   3.154  11.685   7.035 -0.0518  0.0310  0.0159
 1253ERGO    R417433   3.381  11.589   7.194 -0.1294 -0.1985 -0.0036
 1253ERGO    R517434   3.191  11.487   7.163 -0.2373 -0.0104  0.0091
 1253ERGO    C117435   3.188  11.515   7.543 -0.1755 -0.0127  0.0092
 1253ERGO    C217436   3.163  11.365   7.958  0.0343 -0.0597 -0.4025
 1254ERGO   ROH17437   0.091   5.080   6.246  0.2552 -0.1597 -0.1848
 1254ERGO    R117438   0.033   5.056   6.522  0.1667 -0.1292 -0.2008
 1254ERGO    R217439   0.174   4.888   6.689  0.2181  0.0075 -0.1055
 1254ERGO    R317440   0.209   5.115   6.835  0.0095  0.0692 -0.1481
 1254ERGO    R417441   0.257   4.896   7.025  0.3311  0.1502 -0.1351
 1254ERGO    R517442   0.117   5.062   7.050  0.1479 -0.0072 -0.1077
 1254ERGO    C117443   0.337   5.114   7.357  0.2011  0.2913 -0.1923
 1254ERGO    C217444   0.398   4.972   7.687 -0.0489 -0.4146 -0.0070
 1255ERGO   ROH17445  12.276  11.254   6.506 -0.3150  0.1783 -0.1210
 1255ERGO    R117446  12.472  11.280   6.709 -0.3144 -0.0185 -0.0939
 1255ERGO    R217447  12.481  11.498   6.880 -0.0511  0.0317 -0.1687
 1255ERGO    R317448  12.474  11.306   7.072 -0.3495  0.1034 -0.1012
 1255ERGO    R417449  12.623  11.526   7.194  0.2550 -0.1767 -0.2838
 1255ERGO    R517450  12.688  11.320   7.178 -0.2253 -0.3452 -0.2672
 1255ERGO    C117451  12.700  11.363   7.556  0.1531 -0.2309 -0.2873
 1255ERGO    C217452  12.544  11.352   7.966 -0.1381 -0.2583  0.2013
 1256ERGO   ROH17453  11.704  13.221   6.383 -0.1807  0.1706  0.0058
 1256ERGO    R117454  11.771  13.434   6.556  0.0359  0.0877  0.0261
 1256ERGO    R217455  11.607  13.513   6.764  0.0840  0.2773 -0.0139
 1256ERGO    R317456  11.831  13.475   6.913  0.0061  0.0091  0.0421
 1256ERGO    R417457  11.665  13.655   7.074  0.0938  0.0729  0.0803
 1256ERGO    R517458  11.872  13.688   7.015  0.1489 -0.0696  0.1643
 1256ERGO    C117459  11.910  13.702   7.394  0.0265 -0.2979  0.1877
 1256ERGO    C217460  11.851  13.782   7.768  0.0944  0.0070 -0.0632
 1257ERGO   ROH17461  11.016   5.770   6.424  0.0460  0.0532  0.0999
 1257ERGO    R117462  11.197   5.791   6.641  0.1507  0.5403 -0.0232
 1257ERGO    R217463  11.211   6.015   6.802 -0.5973  0.4688  0.1704
 1257ERGO    R317464  11.173   5.835   7.001  0.2447  0.1030  0.0430
 1257ERGO    R417465  11.271   6.075   7.137 -0.6113  0.4172  0.1827
 1257ERGO    R517466  11.354   5.874   7.153  0.2165  0.6948 -0.0493
 1257ERGO    C117467  11.270   5.940   7.519  0.1712  0.0436  0.0703
 1257ERGO    C217468  11.324   5.889   7.814  0.1427  0.0761 -0.1953
 1258ERGO   ROH17469   8.364   7.655   6.137  0.3017  0.1289  0.0978
 1258ERGO    R117470   8.493   7.694   6.386  0.1886 -0.0278  0.1818
 1258ERGO    R217471   8.449   7.917   6.543  0.1928 -0.0803  0.2546
 1258ERGO    R317472   8.391   7.733   6.733  0.0252 -0.1406  0.1480
 1258ERGO    R417473   8.459   7.976   6.883  0.2728 -0.2907  0.2902
 1258ERGO    R517474   8.547   7.778   6.909  0.0839 -0.3960  0.1671
 1258ERGO    C117475   8.410   7.836   7.261  0.1620 -0.4697  0.2109
 1258ERGO    C217476   8.477   8.109   7.544  0.0981  0.1156  0.0040
 1259ERGO   ROH17477  14.419   0.880   5.888 -0.0793  0.2416 -0.0377
 1259ERGO    R117478  14.460   1.002   6.140 -0.0830  0.1293  0.0169
 1259ERGO    R217479  14.258   1.035   6.325 -0.0851  0.0575  0.0199
 1259ERGO    R317480  14.430   0.905   6.490 -0.0992 -0.0195 -0.0237
 1259ERGO    R417481  14.252   1.052   6.670 -0.2193 -0.2185  0.0353
 1259ERGO    R517482  14.470   1.060   6.668 -0.2154 -0.1433  0.1172
 1259ERGO    C117483  14.412   0.940   7.026 -0.3107 -0.4514  0.0034
 1259ERGO    C217484  14.442   0.970   7.355 -0.0601  0.2275  0.0016
 1260ERGO   ROH17485  15.365  12.044   6.089  0.0536 -0.1312 -0.0731
 1260ERGO    R117486  15.342  12.162   6.345  0.0577 -0.0510 -0.1098
 1260ERGO    R217487  15.188  12.052   6.547 -0.0037  0.0564 -0.0995
 1260ERGO    R317488  15.420  12.067   6.687 -0.0180  0.0220 -0.0715
 1260ERGO    R417489  15.212  12.044   6.891 -0.0334 -0.1417 -0.1002
 1260ERGO    R517490  15.365  12.198   6.880 -0.0630 -0.1010  0.0024
 1260ERGO    C117491  15.445  12.054   7.224 -0.0641 -0.2893 -0.0743
 1260ERGO    C217492  15.567  12.091   7.546  0.3606  0.1021 -0.4357
 1261ERGO   ROH17493  17.138  16.407   5.735 -0.3184 -0.0495 -0.1254
 1261ERGO    R117494  17.025  16.467   5.987 -0.2028 -0.1075 -0.0581
 1261ERGO    R217495  16.963  16.272   6.172  0.0495 -0.1394  0.0030
 1261ERGO    R317496  17.118  16.423   6.336  0.0513 -0.0139 -0.1139
 1261ERGO    R417497  16.946  16.269   6.518  0.2078 -0.0266  0.0120
 1261ERGO    R517498  16.972  16.486   6.515  0.1071 -0.0205 -0.0713
 1261ERGO    C117499  17.082  16.410   6.872  0.3016  0.1567 -0.0926
 1261ERGO    C217500  17.121  16.336   7.228 -0.2342  0.0423  0.1769
 1262ERGO   ROH17501   2.361  12.555   6.539  0.1849  0.0558 -0.2243
 1262ERGO    R117502   2.375  12.389   6.768  0.1653  0.0869 -0.2018
 1262ERGO    R217503   2.543  12.442   6.981  0.0682  0.1736 -0.1505
 1262ERGO    R317504   2.313  12.426   7.125  0.0240  0.1018 -0.2263
 1262ERGO    R417505   2.527  12.421   7.325 -0.0389  0.2339 -0.1505
 1262ERGO    R517506   2.366  12.276   7.304  0.0297  0.1575 -0.1785
 1262ERGO    C117507   2.301  12.392   7.661 -0.1428  0.2014 -0.2217
 1262ERGO    C217508   2.177  12.580   7.898 -0.3413 -0.1537  0.4908
 1263ERGO   ROH17509   6.269  14.903   6.899 -0.1346  0.1593  0.0715
 1263ERGO    R117510   6.420  14.818   7.122 -0.1057  0.0391  0.0063
 1263ERGO    R217511   6.473  14.984   7.337  0.1152 -0.0040 -0.0182
 1263ERGO    R317512   6.365  14.779   7.480  0.0172  0.0806  0.0316
 1263ERGO    R417513   6.538  14.921   7.670  0.0791  0.0600  0.0017
 1263ERGO    R517514   6.542  14.707   7.624 -0.0145  0.0408  0.0566
 1263ERGO    C117515   6.474  14.692   7.999 -0.0337  0.1765  0.0600
 1263ERGO    C217516   6.315  14.916   8.248 -0.1575  0.2033 -0.1815
 1264ERGO   ROH17517   6.017  12.994   6.370  0.1527 -0.0098 -0.0628
 1264ERGO    R117518   6.060  13.068   6.640  0.0295 -0.0027 -0.0434
 1264ERGO    R217519   5.974  12.914   6.852 -0.0115 -0.0337 -0.0721
 1264ERGO    R317520   6.235  12.931   6.928 -0.0432  0.0357  0.0165
 1264ERGO    R417521   6.095  12.826   7.164 -0.0348 -0.2850 -0.1325
 1264ERGO    R517522   6.225  13.002   7.157 -0.1363 -0.2085  0.0839
 1264ERGO    C117523   6.410  12.792   7.417 -0.0783 -0.3661 -0.0845
 1264ERGO    C217524   6.525  12.632   7.798 -0.0668 -0.1649  0.1405
 1265ERGO   ROH17525  10.384  10.466   6.679  0.1524 -0.1399 -0.0575
 1265ERGO    R117526  10.348  10.637   6.902 -0.0585 -0.1514 -0.0797
 1265ERGO    R217527  10.143  10.602   7.084  0.0449 -0.4519 -0.0075
 1265ERGO    R317528  10.347  10.602   7.264  0.1094 -0.0888 -0.0734
 1265ERGO    R417529  10.108  10.666   7.422  0.0873 -0.2911 -0.0335
 1265ERGO    R517530  10.293  10.781   7.415 -0.0581 -0.0646 -0.1645
 1265ERGO    C117531  10.279  10.703   7.788  0.1725  0.1434 -0.1107
 1265ERGO    C217532  10.332  10.779   8.156  0.0536  0.2279 -0.0939
 1266ERGO   ROH17533   6.409  17.147   6.409 -0.0194 -0.3088 -0.3393
 1266ERGO    R117534   6.215  17.041   6.586 -0.0368 -0.2225 -0.3039
 1266ERGO    R217535   6.181  16.769   6.623  0.0088 -0.2105 -0.1172
 1266ERGO    R317536   6.217  16.833   6.885 -0.0540 -0.0108 -0.1571
 1266ERGO    R417537   6.127  16.554   6.889  0.2456 -0.0968  0.0257
 1266ERGO    R517538   6.039  16.720   6.999  0.0738 -0.1257 -0.0801
 1266ERGO    C117539   6.129  16.489   7.289  0.3245  0.1570  0.0714
 1266ERGO    C217540   5.983  16.171   7.399 -0.2691  0.0188 -0.0655
 1267ERGO   ROH17541   0.603  11.072   6.447 -0.0289 -0.0059 -0.1261
 1267ERGO    R117542   0.627  10.981   6.714  0.1546  0.0715 -0.1165
 1267ERGO    R217543   0.783  11.110   6.902 -0.1486  0.4438 -0.1196
 1267ERGO    R317544   0.552  11.110   7.046 -0.1683 -0.0617 -0.1322
 1267ERGO    R417545   0.762  11.160   7.243 -0.2724  0.5000 -0.1334
 1267ERGO    R517546   0.611  11.004   7.252  0.0850  0.1286 -0.0958
 1267ERGO    C117547   0.534  11.188   7.577 -0.3629  0.0579 -0.1532
 1267ERGO    C217548   0.582  11.241   7.866 -0.4671  0.2885  0.4256
 1268ERGO   ROH17549   0.542   2.075   6.467  0.0806 -0.0070 -0.0327
 1268ERGO    R117550   0.557   2.100   6.749  0.0803 -0.0736 -0.0267
 1268ERGO    R217551   0.354   2.212   6.899  0.1102 -0.0441 -0.0077
 1268ERGO    R317552   0.369   1.977   7.035  0.0342 -0.0791 -0.0593
 1268ERGO    R417553   0.176   2.139   7.186  0.1460 -0.0203  0.0208
 1268ERGO    R517554   0.354   2.041   7.266  0.1202 -0.1194 -0.0424
 1268ERGO    C117555   0.086   1.875   7.481  0.0955 -0.0393 -0.0111
 1268ERGO    C217556  -0.059   1.719   7.808  0.0701 -0.0370  0.0354
 1269ERGO   ROH17557   4.216   5.235   6.629  0.0162 -0.2935  0.0039
 1269ERGO    R117558   4.190   5.305   6.902  0.1266 -0.2818  0.0109
 1269ERGO    R217559   3.946   5.362   7.019  0.1988 -0.0718  0.0552
 1269ERGO    R317560   4.021   5.168   7.195  0.0588 -0.1455  0.0373
 1269ERGO    R417561   3.867   5.358   7.356  0.4250  0.1046  0.1137
 1269ERGO    R517562   4.068   5.287   7.397  0.3640 -0.1648 -0.0147
 1269ERGO    C117563   3.892   5.174   7.716  0.4254  0.1381  0.1310
 1269ERGO    C217564   3.641   5.350   7.929 -0.0108 -0.1277 -0.0889
 1270ERGO   ROH17565   0.842   9.541   6.575 -0.0186 -0.0123 -0.0694
 1270ERGO    R117566   0.657   9.338   6.645  0.2113 -0.2830 -0.2235
 1270ERGO    R217567   0.733   9.074   6.682  0.6215 -0.1360  0.1121
 1270ERGO    R317568   0.611   9.107   6.923  0.1548 -0.1367 -0.1131
 1270ERGO    R417569   0.564   8.827   6.855  0.5706 -0.2144 -0.0482
 1270ERGO    R517570   0.413   8.974   6.909  0.3165 -0.3485 -0.3894
 1270ERGO    C117571   0.351   8.714   7.181  0.1028 -0.2606 -0.3529
 1270ERGO    C217572   0.113   8.678   7.428 -0.0346 -0.2486 -0.0217
 1271ERGO   ROH17573   7.169   8.418   6.331  0.0975  0.1211  0.1562
 1271ERGO    R117574   7.103   8.501   6.593  0.1572  0.0347  0.1987
 1271ERGO    R217575   6.948   8.347   6.763 -0.0083  0.0861  0.0962
 1271ERGO    R317576   7.160   8.378   6.931  0.0106 -0.2181  0.1344
 1271ERGO    R417577   6.927   8.357   7.108 -0.0531  0.1028  0.0934
 1271ERGO    R517578   7.076   8.516   7.108  0.1740 -0.1041  0.1248
 1271ERGO    C117579   7.114   8.391   7.467 -0.0614 -0.1730  0.1275
 1271ERGO    C217580   7.006   8.245   7.753  0.1248  0.2279  0.5352
 1272ERGO   ROH17581   0.741  14.993   5.758 -0.2078  0.0818 -0.0101
 1272ERGO    R117582   0.634  14.993   6.020 -0.1040  0.1496  0.0321
 1272ERGO    R217583   0.784  14.925   6.242 -0.0913 -0.0655 -0.0448
 1272ERGO    R317584   0.699  15.168   6.333  0.2169  0.0130  0.0464
 1272ERGO    R417585   0.755  15.012   6.575 -0.0801 -0.1997 -0.0077
 1272ERGO    R517586   0.569  15.116   6.527  0.0747  0.0901 -0.0227
 1272ERGO    C117587   0.658  15.290   6.854  0.2158 -0.2043  0.0995
 1272ERGO    C217588   0.629  15.168   7.188 -0.0566  0.0679 -0.1689
 1273ERGO   ROH17589  16.217   7.068   6.363 -0.0877  0.2284  0.1541
 1273ERGO    R117590  16.185   6.937   6.612  0.0644  0.0629  0.0896
 1273ERGO    R217591  16.399   6.860   6.769  0.1581  0.1697  0.0179
 1273ERGO    R317592  16.270   7.005   6.959  0.0525 -0.0466  0.1140
 1273ERGO    R417593  16.459   6.839   7.108  0.2498  0.0674 -0.0046
 1273ERGO    R517594  16.244   6.854   7.142  0.2403 -0.1605  0.0487
 1273ERGO    C117595  16.372   6.962   7.485  0.2041 -0.1954  0.0726
 1273ERGO    C217596  16.540   6.958   7.788 -0.0553  0.2020 -0.1108
 1274ERGO   ROH17597  11.403   2.555   6.407  0.0327 -0.0427 -0.0007
 1274ERGO    R117598  11.527   2.347   6.554 -0.0464 -0.1557 -0.0921
 1274ERGO    R217599  11.427   2.254   6.793  0.0681 -0.0307  0.0055
 1274ERGO    R317600  11.438   2.013   6.668 -0.2863 -0.0571  0.0153
 1274ERGO    R417601  11.466   1.950   6.953  0.4659 -0.0030 -0.0271
 1274ERGO    R517602  11.600   1.889   6.793  0.0441 -0.0462 -0.3820
 1274ERGO    C117603  11.498   1.547   6.929  0.3649 -0.0117 -0.0367
 1274ERGO    C217604  11.526   1.214   6.955  0.1326 -0.3929 -0.0673
 1275ERGO   ROH17605  10.902  14.807   6.535  0.1604 -0.0151  0.0572
 1275ERGO    R117606  10.960  14.708   6.794  0.3292  0.2008  0.1052
 1275ERGO    R217607  11.024  14.874   7.006 -0.1644  0.4383  0.0849
 1275ERGO    R317608  10.819  14.743   7.127  0.1143 -0.0608  0.0456
 1275ERGO    R417609  11.006  14.804   7.344 -0.0751  0.4119  0.0845
 1275ERGO    R517610  10.924  14.609   7.295  0.4083  0.1995  0.0777
 1275ERGO    C117611  10.802  14.641   7.654  0.2385 -0.0721  0.0473
 1275ERGO    C217612  10.755  14.623   7.911  0.0458  0.0097 -0.2018
 1276ERGO   ROH17613  10.366  13.493   6.541 -0.1191 -0.0023  0.0344
 1276ERGO    R117614  10.361  13.536   6.820 -0.4308 -0.0183  0.0344
 1276ERGO    R217615  10.170  13.423   6.985 -0.1843 -0.6562 -0.0925
 1276ERGO    R317616  10.387  13.330   7.119  0.0583  0.0390  0.0419
 1276ERGO    R417617  10.207  13.426   7.329 -0.3369 -0.3884 -0.0748
 1276ERGO    R517618  10.415  13.482   7.301 -0.4699  0.2230 -0.0087
 1276ERGO    C117619  10.432  13.340   7.655 -0.1980  0.4200  0.0616
 1276ERGO    C217620  10.495  13.109   7.944 -0.0793  0.1329 -0.0530
 1277ERGO   ROH17621   4.486  10.125   6.859  0.0772 -0.0181 -0.1400
 1277ERGO    R117622   4.441   9.943   7.072  0.1979 -0.1525 -0.2304
 1277ERGO    R217623   4.620   9.742   7.136  0.5916  0.2640 -0.0072
 1277ERGO    R317624   4.608   9.855   7.383 -0.0337  0.2057  0.0076
 1277ERGO    R417625   4.751   9.603   7.424  0.4849  0.4855  0.1532
 1277ERGO    R517626   4.574   9.671   7.531  0.1489  0.0807 -0.0869
 1277ERGO    C117627   4.816   9.628   7.823 -0.1642  0.5598  0.2605
 1277ERGO    C217628   4.931   9.507   8.256 -0.2374  0.0209  0.1746
 1278ERGO   ROH17629   6.208  13.913   6.692 -0.1541 -0.1515 -0.0443
 1278ERGO    R117630   6.082  14.006   6.928  0.0771  0.0532  0.0018
 1278ERGO    R217631   5.898  13.855   7.068 -0.1745  0.3729  0.0273
 1278ERGO    R317632   6.066  13.903   7.277 -0.0243  0.0328 -0.0088
 1278ERGO    R417633   5.828  13.784   7.399 -0.1222  0.2447  0.0113
 1278ERGO    R517634   5.921  13.972   7.454  0.1342  0.0969  0.0969
 1278ERGO    C117635   5.944  13.787   7.787  0.0493 -0.1492 -0.0320
 1278ERGO    C217636   5.895  13.848   8.164  0.6322 -0.2715  0.2600
 1279ERGO   ROH17637  17.232   1.322   6.238 -0.0622  0.4004 -0.1500
 1279ERGO    R117638  17.333   1.232   6.486 -0.1192  0.2223 -0.1904
 1279ERGO    R217639  17.562   1.336   6.601 -0.1204  0.1085 -0.0853
 1279ERGO    R317640  17.398   1.377   6.814 -0.1470 -0.0000 -0.0841
 1279ERGO    R417641  17.630   1.235   6.924 -0.0197  0.2063 -0.0746
 1279ERGO    R517642  17.420   1.177   6.945  0.0260  0.0329 -0.0589
 1279ERGO    C117643  17.515   1.214   7.312  0.0136  0.1614 -0.0673
 1279ERGO    C217644  17.623   1.175   7.579  0.2360  0.1682  0.0297
 1280ERGO   ROH17645  12.977   1.150   6.132 -0.0242  0.1194 -0.0696
 1280ERGO    R117646  12.793   1.194   6.343 -0.0926  0.0888 -0.1233
 1280ERGO    R217647  12.847   1.360   6.557 -0.1476  0.0299 -0.0631
 1280ERGO    R317648  12.614   1.478   6.483 -0.1084  0.0751 -0.1163
 1280ERGO    R417649  12.604   1.473   6.776 -0.2201 -0.0072 -0.1234
 1280ERGO    R517650  12.453   1.395   6.640 -0.1767  0.0477 -0.2014
 1280ERGO    C117651  12.244   1.649   6.833 -0.2257  0.0136 -0.2084
 1280ERGO    C217652  11.988   1.706   7.150 -0.0961  0.0998 -0.1541
 1281ERGO   ROH17653   7.433  14.069   7.035 -0.1988  0.0610  0.1744
 1281ERGO    R117654   7.425  13.925   7.279 -0.1318  0.0759  0.1864
 1281ERGO    R217655   7.542  14.019   7.510 -0.0688  0.0915  0.1513
 1281ERGO    R317656   7.294  13.980   7.614 -0.0407  0.0974  0.2184
 1281ERGO    R417657   7.471  13.998   7.848  0.0389 -0.0059  0.1677
 1281ERGO    R517658   7.331  13.837   7.803 -0.0010  0.0310  0.1604
 1281ERGO    C117659   7.196  13.949   8.142  0.1280 -0.0569  0.2402
 1281ERGO    C217660   7.129  14.146   8.420  0.1279 -0.1230 -0.0539
 1282ERGO   ROH17661   8.573   4.679   6.321  0.1245  0.0054 -0.1719
 1282ERGO    R117662   8.493   4.635   6.589  0.1219 -0.1041 -0.1897
 1282ERGO    R217663   8.674   4.592   6.793  0.1300 -0.0070 -0.1739
 1282ERGO    R317664   8.543   4.800   6.909 -0.0412 -0.1241 -0.1537
 1282ERGO    R417665   8.641   4.638   7.134  0.0165 -0.1061 -0.1708
 1282ERGO    R517666   8.436   4.703   7.100 -0.0191 -0.2408 -0.2019
 1282ERGO    C117667   8.499   4.860   7.442 -0.2102 -0.2738 -0.1500
 1282ERGO    C217668   8.690   4.747   7.670 -0.5133 -0.0499  0.0488
 1283ERGO   ROH17669   5.539   7.804   6.644  0.0922 -0.0232 -0.0283
 1283ERGO    R117670   5.622   7.894   6.899  0.1294 -0.2182  0.0293
 1283ERGO    R217671   5.445   7.943   7.105  0.1161  0.0171 -0.0367
 1283ERGO    R317672   5.605   7.771   7.242 -0.2146 -0.2781 -0.0061
 1283ERGO    R417673   5.503   7.957   7.445  0.3908  0.1731 -0.0865
 1283ERGO    R517674   5.712   7.908   7.406  0.2559 -0.3938 -0.1999
 1283ERGO    C117675   5.687   7.803   7.772  0.2403 -0.0132 -0.0870
 1283ERGO    C217676   5.899   7.878   8.131  0.2709 -0.0295 -0.0063
 1284ERGO   ROH17677  15.212   6.552   6.236 -0.0191  0.3427  0.0417
 1284ERGO    R117678  15.395   6.489   6.442 -0.0078  0.1210 -0.0347
 1284ERGO    R217679  15.395   6.617   6.687  0.2806  0.1602 -0.0527
 1284ERGO    R317680  15.377   6.364   6.784 -0.0217  0.1944 -0.0082
 1284ERGO    R417681  15.472   6.523   7.011  0.1988  0.1184 -0.0446
 1284ERGO    R517682  15.564   6.343   6.931 -0.0294 -0.0119 -0.0244
 1284ERGO    C117683  15.499   6.230   7.289 -0.1325  0.1262  0.0019
 1284ERGO    C217684  15.628   6.234   7.632  0.0479  0.2845  0.1289
 1285ERGO   ROH17685  13.161   6.519   8.118  0.0912 -0.1671 -0.0753
 1285ERGO    R117686  13.409   6.635   8.189  0.0925 -0.1223 -0.1550
 1285ERGO    R217687  13.544   6.811   8.024 -0.1068  0.0821 -0.0990
 1285ERGO    R317688  13.539   6.970   8.244 -0.0137 -0.1126  0.0485
 1285ERGO    R417689  13.767   7.067   8.088 -0.0563  0.0028  0.0513
 1285ERGO    R517690  13.769   7.007   8.297  0.0112 -0.1858  0.0001
 1285ERGO    C117691  13.891   7.366   8.332  0.0606 -0.2261  0.2774
 1285ERGO    C217692  14.026   7.550   8.603  0.0388  0.1920  0.2331
 1286ERGO   ROH17693   1.637  13.476   6.421  0.0464 -0.0154 -0.0289
 1286ERGO    R117694   1.581  13.344   6.665 -0.1301  0.0674 -0.0232
 1286ERGO    R217695   1.745  13.149   6.771 -0.3471 -0.0952  0.0252
 1286ERGO    R317696   1.742  13.310   6.990 -0.2163 -0.0644  0.0056
 1286ERGO    R417697   1.745  13.037   7.098 -0.1918 -0.0464  0.0427
 1286ERGO    R517698   1.602  13.194   7.146 -0.1484 -0.0250  0.0947
 1286ERGO    C117699   1.742  13.122   7.494  0.0214  0.0109  0.0345
 1286ERGO    C217700   1.895  12.947   7.736  0.1096 -0.2350  0.1041
 1287ERGO   ROH17701  12.592   3.234   6.305  0.1901  0.0622 -0.0942
 1287ERGO    R117702  12.694   3.240   6.569  0.1513  0.0259 -0.0784
 1287ERGO    R217703  12.738   3.476   6.706  0.1348  0.0067 -0.0416
 1287ERGO    R317704  12.580   3.359   6.893  0.1057 -0.0151 -0.0792
 1287ERGO    R417705  12.669   3.608   7.018 -0.0394  0.0461 -0.0951
 1287ERGO    R517706  12.688   3.408   7.101  0.0052  0.0700 -0.0461
 1287ERGO    C117707  12.481   3.575   7.375 -0.1681  0.0487 -0.1615
 1287ERGO    C217708  12.444   3.731   7.632  0.1087  0.0659  0.3248
 1288ERGO   ROH17709   7.991  15.680   6.593  0.0238 -0.0378 -0.0360
 1288ERGO    R117710   8.090  15.760   6.846  0.0284 -0.0415 -0.0365
 1288ERGO    R217711   7.981  15.969   6.990  0.0082 -0.0657 -0.0149
 1288ERGO    R317712   7.962  15.781   7.186  0.0456 -0.0826 -0.0275
 1288ERGO    R417713   7.901  16.034   7.320 -0.1316 -0.1211 -0.0373
 1288ERGO    R517714   8.051  15.889   7.380 -0.0736 -0.0428  0.0050
 1288ERGO    C117715   7.837  15.896   7.696 -0.1779 -0.1691 -0.0621
 1288ERGO    C217716   7.752  16.045   7.958  0.3620  0.3659  0.0546
 1289ERGO   ROH17717   1.236   1.029   6.545 -0.1208  0.1737 -0.1214
 1289ERGO    R117718   1.103   1.093   6.787 -0.0454 -0.0103 -0.0296
 1289ERGO    R217719   1.166   0.972   7.027  0.1707 -0.0483 -0.1023
 1289ERGO    R317720   1.195   1.229   7.112  0.0206 -0.0532 -0.0306
 1289ERGO    R417721   1.190   1.069   7.358  0.0771 -0.1184 -0.0742
 1289ERGO    R517722   1.064   1.241   7.312 -0.0105 -0.1755 -0.0439
 1289ERGO    C117723   1.233   1.366   7.630 -0.1184 -0.1638  0.0095
 1289ERGO    C217724   1.236   1.500   7.921  0.2148 -0.0620 -0.1778
 1290ERGO   ROH17725   8.435  12.618   6.539  0.1114  0.0712  0.0894
 1290ERGO    R117726   8.326  12.462   6.749  0.0458  0.0855  0.0669
 1290ERGO    R217727   8.479  12.292   6.904 -0.0388 -0.0775 -0.0181
 1290ERGO    R317728   8.371  12.434   7.109  0.1119 -0.0562  0.0477
 1290ERGO    R417729   8.468  12.188   7.234 -0.0218 -0.1486 -0.0404
 1290ERGO    R517730   8.267  12.269   7.248  0.0388 -0.0178  0.0345
 1290ERGO    C117731   8.360  12.261   7.618  0.1296 -0.1700  0.0082
 1290ERGO    C217732   8.265  12.259   7.948 -0.3238  0.2289 -0.3697
 1291ERGO   ROH17733  12.575  15.621   5.917  0.0032  0.3004 -0.1698
 1291ERGO    R117734  12.715  15.673   6.158 -0.0010  0.2817 -0.1641
 1291ERGO    R217735  12.670  15.899   6.310 -0.1942  0.1395 -0.0111
 1291ERGO    R317736  12.629  15.719   6.509  0.0230 -0.0285 -0.1135
 1291ERGO    R417737  12.739  15.955   6.644 -0.3088  0.0630  0.0263
 1291ERGO    R517738  12.814  15.751   6.657 -0.0306  0.1485 -0.0757
 1291ERGO    C117739  12.740  15.818   7.025 -0.1716 -0.1395 -0.0480
 1291ERGO    C217740  12.832  15.834   7.401 -0.1589 -0.1288  0.0774
 1292ERGO   ROH17741   7.777  16.651   6.247 -0.2742 -0.3516 -0.1758
 1292ERGO    R117742   7.772  16.798   6.489 -0.0982 -0.2519 -0.2312
 1292ERGO    R217743   7.585  16.995   6.541 -0.0064 -0.1651 -0.2114
 1292ERGO    R317744   7.539  16.848   6.764  0.0596 -0.0628 -0.1299
 1292ERGO    R417745   7.369  17.083   6.796  0.1065 -0.0308 -0.1618
 1292ERGO    R517746   7.516  17.009   6.939  0.1497  0.0114 -0.1886
 1292ERGO    C117747   7.201  16.996   7.155  0.2342  0.1438 -0.0564
 1292ERGO    C217748   7.060  17.053   7.525 -0.1718  0.5303  0.2749
 1293ERGO   ROH17749   7.735   0.098   6.235  0.3821 -0.1140  0.0155
 1293ERGO    R117750   7.668   0.161   6.503  0.2591 -0.0862 -0.0214
 1293ERGO    R217751   7.466   0.031   6.640  0.0720  0.0494 -0.1575
 1293ERGO    R317752   7.663  -0.013   6.822 -0.0711 -0.1124 -0.0387
 1293ERGO    R417753   7.421   0.027   6.982 -0.1093  0.1794 -0.1782
 1293ERGO    R517754   7.609   0.134   7.004 -0.0113 -0.0144 -0.1039
 1293ERGO    C117755   7.579  -0.016   7.353 -0.3491  0.1032 -0.0788
 1293ERGO    C217756   7.468  -0.136   7.651 -0.0950  0.3443 -0.1032
 1294ERGO   ROH17757  10.313  13.963   6.549  0.1320  0.0273  0.0176
 1294ERGO    R117758  10.355  14.013   6.825  0.0293  0.0446  0.0300
 1294ERGO    R217759  10.146  14.051   7.002 -0.0384 -0.0055 -0.0396
 1294ERGO    R317760  10.269  13.850   7.138 -0.0303  0.0297  0.0062
 1294ERGO    R417761  10.125  14.002   7.344 -0.0535  0.0566 -0.0310
 1294ERGO    R517762  10.336  13.951   7.345 -0.0496  0.0736 -0.0088
 1294ERGO    C117763  10.227  13.785   7.670 -0.0547  0.1256  0.0170
 1294ERGO    C217764  10.272  13.728   7.936 -0.0905  0.1744  0.1544
 1295ERGO   ROH17765   7.538   1.297   6.259  0.0559  0.2062 -0.1355
 1295ERGO    R117766   7.558   1.393   6.524 -0.1538  0.2460 -0.1334
 1295ERGO    R217767   7.336   1.449   6.679 -0.2861 -0.2819 -0.1205
 1295ERGO    R317768   7.456   1.279   6.855  0.1289 -0.0138 -0.1299
 1295ERGO    R417769   7.325   1.480   7.023 -0.3610 -0.3183 -0.1184
 1295ERGO    R517770   7.535   1.422   7.030 -0.2051  0.1792 -0.1239
 1295ERGO    C117771   7.431   1.339   7.388 -0.0150 -0.0879 -0.1262
 1295ERGO    C217772   7.307   1.325   7.643  0.0993 -0.2471  0.0784
 1296ERGO   ROH17773   5.385  10.955   6.442  0.0169  0.1172 -0.0372
 1296ERGO    R117774   5.557  10.960   6.667  0.0929 -0.2540 -0.0814
 1296ERGO    R217775   5.510  11.121   6.887  0.5106 -0.1237 -0.0806
 1296ERGO    R317776   5.530  10.886   7.022  0.0149 -0.1678 -0.0688
 1296ERGO    R417777   5.526  11.092   7.231  0.4180 -0.1403 -0.0778
 1296ERGO    R517778   5.675  10.935   7.206  0.1047 -0.4559 -0.0572
 1296ERGO    C117779   5.552  10.854   7.558 -0.1013 -0.1913 -0.0651
 1296ERGO    C217780   5.541  10.754   8.023 -0.2280  0.2674 -0.1733
 1297ERGO   ROH17781  13.711   2.880   6.084  0.1275  0.2937  0.1158
 1297ERGO    R117782  13.707   2.737   6.329  0.0921  0.2348  0.0815
 1297ERGO    R217783  13.801   2.478   6.352 -0.1513  0.1323 -0.0246
 1297ERGO    R317784  13.953   2.585   6.550  0.0406 -0.0638 -0.0628
 1297ERGO    R417785  13.858   2.330   6.658 -0.2876  0.0717 -0.0277
 1297ERGO    R517786  13.838   2.526   6.752  0.0020  0.1067 -0.0350
 1297ERGO    C117787  14.035   2.344   7.023 -0.1869 -0.1477 -0.0654
 1297ERGO    C217788  14.182   2.169   7.383 -0.1110 -0.3149  0.1516
 1298ERGO   ROH17789  10.335  12.460   6.502  0.0492  0.1482  0.1563
 1298ERGO    R117790  10.227  12.510   6.759 -0.1879 -0.2591  0.1437
 1298ERGO    R217791  10.192  12.310   6.946  0.3180 -0.4514  0.0517
 1298ERGO    R317792  10.338  12.476   7.104 -0.1979 -0.0786  0.1647
 1298ERGO    R417793  10.260  12.255   7.280  0.6841 -0.6000 -0.0427
 1298ERGO    R517794  10.228  12.468   7.317 -0.0824 -0.7295  0.2173
 1298ERGO    C117795  10.437  12.378   7.623  0.4130 -0.3363  0.0084
 1298ERGO    C217796  10.293  12.155   7.892 -0.1176 -0.2658 -0.0291
 1299ERGO   ROH17797  14.565  10.493   6.469  0.0900 -0.0760  0.2233
 1299ERGO    R117798  14.668  10.662   6.671 -0.0592  0.0076  0.2295
 1299ERGO    R217799  14.527  10.721   6.902 -0.0524 -0.2445  0.2976
 1299ERGO    R317800  14.753  10.632   7.024  0.1173  0.0247  0.1900
 1299ERGO    R417801  14.601  10.767   7.236 -0.0764 -0.3725  0.3217
 1299ERGO    R517802  14.808  10.806   7.179 -0.1399  0.0064  0.3109
 1299ERGO    C117803  14.856  10.711   7.546  0.0688 -0.1942  0.2348
 1299ERGO    C217804  14.901  10.752   7.832 -0.0819 -0.1105  0.2092
 1300ERGO   ROH17805   7.084  11.083   6.614  0.0783  0.0195 -0.0121
 1300ERGO    R117806   7.075  11.077   6.897  0.1205  0.0200 -0.0094
 1300ERGO    R217807   6.956  10.871   7.037 -0.0241  0.1054  0.0087
 1300ERGO    R317808   7.198  10.859   7.161 -0.0083 -0.0886 -0.0406
 1300ERGO    R417809   7.003  10.801   7.373 -0.0218  0.3423  0.0587
 1300ERGO    R517810   7.159  10.954   7.378  0.1688  0.1500 -0.1144
 1300ERGO    C117811   7.257  10.749   7.684 -0.0057  0.2980  0.0415
 1300ERGO    C217812   7.451  10.636   7.926  0.2715 -0.1430 -0.0589
 1301ERGO   ROH17813   0.483   5.154   6.481 -0.0934  0.2491  0.0777
 1301ERGO    R117814   0.631   5.227   6.711  0.0136  0.0660  0.0687
 1301ERGO    R217815   0.590   5.466   6.844  0.2013  0.0392  0.1696
 1301ERGO    R317816   0.557   5.303   7.059  0.1545 -0.0195  0.1194
 1301ERGO    R417817   0.573   5.573   7.172  0.0144 -0.0294  0.1841
 1301ERGO    R517818   0.694   5.401   7.230  0.0474 -0.0059  0.2037
 1301ERGO    C117819   0.532   5.483   7.565 -0.1384 -0.1245  0.1455
 1301ERGO    C217820   0.606   5.597   7.890 -0.1631  0.1418  0.1607
 1302ERGO   ROH17821   3.102   1.692   6.646 -0.1138 -0.0588  0.1290
 1302ERGO    R117822   3.197   1.674   6.912 -0.0657  0.0005  0.1149
 1302ERGO    R217823   3.121   1.852   7.110 -0.1316 -0.0421  0.1122
 1302ERGO    R317824   3.051   1.625   7.242  0.0152 -0.0710  0.1455
 1302ERGO    R417825   3.170   1.797   7.447 -0.2082  0.1310  0.1528
 1302ERGO    R517826   3.227   1.592   7.400  0.0008  0.1494  0.2302
 1302ERGO    C117827   3.132   1.552   7.768 -0.1150  0.2047  0.2076
 1302ERGO    C217828   2.852   1.734   8.051 -0.0115  0.1164 -0.1286
 1303ERGO   ROH17829   4.571  13.812   6.570 -0.2732  0.0744 -0.2176
 1303ERGO    R117830   4.607  13.877   6.844  0.0110 -0.0925 -0.2111
 1303ERGO    R217831   4.403  13.978   7.001  0.2903  0.2679 -0.0635
 1303ERGO    R317832   4.469  13.769   7.162 -0.0388  0.0697 -0.1759
 1303ERGO    R417833   4.353  13.970   7.343  0.3566  0.1978 -0.0565
 1303ERGO    R517834   4.548  13.872   7.364  0.1946 -0.1600 -0.1447
 1303ERGO    C117835   4.385  13.770   7.693  0.0862 -0.0290 -0.1580
 1303ERGO    C217836   4.346  13.740   8.037 -0.0020 -0.0565 -0.3068
 1304ERGO   ROH17837   6.285   2.498   6.528 -0.1556 -0.1085  0.0305
 1304ERGO    R117838   6.270   2.366   6.778  0.0706 -0.1749  0.0109
 1304ERGO    R217839   6.494   2.311   6.930  0.1722  0.1984  0.0071
 1304ERGO    R317840   6.356   2.444   7.123 -0.0737 -0.0698  0.0245
 1304ERGO    R417841   6.454   2.202   7.256  0.2432  0.0151 -0.0440
 1304ERGO    R517842   6.248   2.272   7.249  0.1395 -0.2784 -0.0689
 1304ERGO    C117843   6.302   2.264   7.626  0.0537 -0.3435 -0.0575
 1304ERGO    C217844   6.175   2.216   7.898  0.2224  0.2091  0.1619
 1305ERGO   ROH17845   9.278  10.336   6.868  0.0377  0.4558 -0.0722
 1305ERGO    R117846   9.230  10.410   7.137 -0.0935  0.3533 -0.0663
 1305ERGO    R217847   8.977  10.465   7.234 -0.1640  0.1436 -0.1227
 1305ERGO    R317848   9.041  10.277   7.419 -0.0768  0.1421 -0.1539
 1305ERGO    R417849   8.912  10.492   7.572 -0.1084  0.0853 -0.1070
 1305ERGO    R517850   9.108  10.404   7.611 -0.0779  0.1376 -0.1523
 1305ERGO    C117851   8.933  10.330   7.943  0.0058  0.0499 -0.1272
 1305ERGO    C217852   8.891  10.312   8.260 -0.1182  0.1130 -0.0378
 1306ERGO   ROH17853  11.095  15.918   6.010 -0.1819 -0.1293  0.1934
 1306ERGO    R117854  11.073  16.007   6.278 -0.1335 -0.1144  0.1930
 1306ERGO    R217855  11.021  15.836   6.489 -0.0288 -0.1140  0.2229
 1306ERGO    R317856  11.247  15.946   6.592 -0.0299 -0.0433  0.1493
 1306ERGO    R417857  11.120  15.810   6.819  0.2570 -0.3627  0.1224
 1306ERGO    R517858  11.183  16.019   6.811  0.0895 -0.3064  0.2746
 1306ERGO    C117859  11.390  15.899   7.108  0.4225 -0.4411 -0.0053
 1306ERGO    C217860  11.351  15.781   7.373  0.1449 -0.2365 -0.3611
 1307ERGO   ROH17861   5.727  15.590   6.855 -0.1968 -0.1952  0.0896
 1307ERGO    R117862   5.841  15.662   7.104 -0.0844 -0.1489  0.0252
 1307ERGO    R217863   5.688  15.716   7.327  0.0169 -0.1008  0.0815
 1307ERGO    R317864   5.847  15.527   7.441  0.0625 -0.0812  0.0513
 1307ERGO    R417865   5.742  15.683   7.667 -0.1214 -0.2480  0.0908
 1307ERGO    R517866   5.952  15.641   7.624 -0.0771 -0.1191  0.1598
 1307ERGO    C117867   5.923  15.487   7.972 -0.1591 -0.3152  0.0679
 1307ERGO    C217868   6.002  15.334   8.261 -0.1891  0.0440  0.2595
 1308ERGO   ROH17869  15.128   8.601   6.707 -0.0407 -0.0389  0.1401
 1308ERGO    R117870  15.229   8.576   6.970 -0.0548 -0.0980  0.1391
 1308ERGO    R217871  15.104   8.692   7.188 -0.0801 -0.1710  0.1589
 1308ERGO    R317872  15.112   8.438   7.286 -0.0575 -0.1955  0.0970
 1308ERGO    R417873  14.975   8.593   7.493 -0.0364 -0.2442  0.1550
 1308ERGO    R517874  15.149   8.466   7.521 -0.0250 -0.2469  0.1009
 1308ERGO    C117875  14.906   8.298   7.762  0.0103 -0.3099  0.0946
 1308ERGO    C217876  15.013   8.132   8.111  0.0220 -0.3114  0.0920
 1309ERGO   ROH17877  12.419  14.268   5.974 -0.1024 -0.3166 -0.0392
 1309ERGO    R117878  12.338  14.246   6.244 -0.0188 -0.1634 -0.0010
 1309ERGO    R217879  12.493  14.123   6.437 -0.0339 -0.2031 -0.0135
 1309ERGO    R317880  12.463  14.359   6.567  0.1790 -0.1335 -0.0866
 1309ERGO    R417881  12.574  14.177   6.768 -0.1808 -0.2336  0.0279
 1309ERGO    R517882  12.393  14.297   6.788 -0.0449  0.0015 -0.1168
 1309ERGO    C117883  12.593  14.431   7.084 -0.0663 -0.1858 -0.0167
 1309ERGO    C217884  12.777  14.359   7.422 -0.1025  0.1066  0.0316
 1310ERGO   ROH17885   4.587  10.485   6.597  0.4276 -0.3769  0.0399
 1310ERGO    R117886   4.792  10.534   6.787  0.4205 -0.0277 -0.0344
 1310ERGO    R217887   4.951  10.760   6.779  0.0473  0.2443 -0.1016
 1310ERGO    R317888   4.866  10.788   7.035  0.0878  0.1129 -0.0733
 1310ERGO    R417889   5.118  10.936   7.025  0.0812  0.1274 -0.0405
 1310ERGO    R517890   5.066  10.780   7.166  0.1097  0.0544 -0.1100
 1310ERGO    C117891   5.135  11.066   7.409  0.1390 -0.0642  0.0217
 1310ERGO    C217892   5.099  11.480   7.440  0.1036 -0.1224 -0.1729
 1311ERGO   ROH17893  10.423  17.778   6.415 -0.1453  0.0438  0.0147
 1311ERGO    R117894  10.407  17.655   6.670 -0.0974 -0.0229 -0.0153
 1311ERGO    R217895  10.584  17.712   6.874 -0.2258  0.1288  0.0488
 1311ERGO    R317896  10.357  17.765   7.013 -0.3286 -0.1433 -0.0071
 1311ERGO    R417897  10.534  17.637   7.208 -0.1154  0.2808  0.1023
 1311ERGO    R517898  10.330  17.577   7.158 -0.0242 -0.0933  0.1269
 1311ERGO    C117899  10.291  17.642   7.532 -0.1476  0.1136  0.0810
 1311ERGO    C217900  10.326  17.570   7.906 -0.3010 -0.3194 -0.0357
 1312ERGO   ROH17901   9.992  15.444   6.564 -0.1249 -0.1471 -0.1282
 1312ERGO    R117902   9.951  15.407   6.842 -0.0402 -0.1693 -0.1190
 1312ERGO    R217903  10.160  15.373   7.019  0.0260  0.0648 -0.1513
 1312ERGO    R317904  10.042  15.581   7.148 -0.1739 -0.0487 -0.1463
 1312ERGO    R417905  10.233  15.471   7.343 -0.1939  0.0175 -0.0856
 1312ERGO    R517906  10.020  15.505   7.375 -0.2347 -0.1311 -0.1781
 1312ERGO    C117907  10.164  15.724   7.652 -0.5096 -0.1163 -0.0426
 1312ERGO    C217908  10.154  15.895   7.975  0.0094 -0.0528  0.1251
 1313ERGO   ROH17909  16.602   5.937   6.212  0.0060 -0.0368  0.1512
 1313ERGO    R117910  16.636   5.842   6.476 -0.0899  0.0284  0.1872
 1313ERGO    R217911  16.746   5.997   6.677 -0.2151  0.0966  0.2023
 1313ERGO    R317912  16.516   5.933   6.808 -0.2584  0.0724  0.1156
 1313ERGO    R417913  16.709   5.994   7.021 -0.2815 -0.1156  0.1948
 1313ERGO    R517914  16.590   5.812   7.001 -0.3270 -0.0733  0.0531
 1313ERGO    C117915  16.471   5.932   7.343 -0.3607 -0.2618  0.1089
 1313ERGO    C217916  16.574   5.898   7.620 -0.1884 -0.1983 -0.0755
 1314ERGO   ROH17917   1.649   1.280   6.532  0.0753 -0.0288  0.0461
 1314ERGO    R117918   1.585   1.211   6.799  0.0108 -0.0742  0.0196
 1314ERGO    R217919   1.776   1.187   6.996 -0.0310 -0.1497  0.0537
 1314ERGO    R317920   1.618   1.366   7.127 -0.0255 -0.1486  0.0581
 1314ERGO    R417921   1.803   1.266   7.332 -0.0267 -0.1525  0.0538
 1314ERGO    R517922   1.585   1.268   7.343 -0.0248 -0.1486  0.0568
 1314ERGO    C117923   1.669   1.479   7.650 -0.0191 -0.1531  0.0579
 1314ERGO    C217924   1.708   1.712   7.910  0.2323 -0.2501  0.2753
 1315ERGO   ROH17925   6.384  15.724   6.474  0.0916  0.0677 -0.0142
 1315ERGO    R117926   6.286  15.683   6.736  0.0345  0.0169 -0.0452
 1315ERGO    R217927   6.302  15.440   6.866  0.0598  0.0167 -0.0621
 1315ERGO    R317928   6.424  15.587   7.058 -0.0343  0.0212 -0.0161
 1315ERGO    R417929   6.288  15.372   7.204  0.0943 -0.1021 -0.0832
 1315ERGO    R517930   6.269  15.586   7.241 -0.0325 -0.1309 -0.0171
 1315ERGO    C117931   6.395  15.470   7.582  0.0261 -0.1668 -0.0522
 1315ERGO    C217932   6.371  15.394   7.862  0.2223 -0.1398  0.2593
 1316ERGO   ROH17933   0.590   7.578   6.173 -0.2383 -0.1345 -0.2010
 1316ERGO    R117934   0.500   7.372   6.344  0.0785 -0.3006 -0.2285
 1316ERGO    R217935   0.664   7.167   6.430  0.4861  0.1045 -0.0149
 1316ERGO    R317936   0.583   7.248   6.676  0.0573 -0.0075 -0.1086
 1316ERGO    R417937   0.595   6.956   6.694  0.5565 -0.0037 -0.0808
 1316ERGO    R517938   0.425   7.082   6.745  0.2633 -0.2917 -0.2824
 1316ERGO    C117939   0.479   6.909   7.080  0.1951 -0.1719 -0.2072
 1316ERGO    C217940   0.644   6.910   7.463  0.1095  0.1500 -0.0498
 1317ERGO   ROH17941   6.689   9.207   6.251  0.2468  0.1771 -0.0943
 1317ERGO    R117942   6.633   9.308   6.509  0.2271  0.1737 -0.0968
 1317ERGO    R217943   6.474   9.173   6.691  0.1325  0.2166 -0.1443
 1317ERGO    R317944   6.691   9.201   6.853  0.1085  0.1169 -0.0945
 1317ERGO    R417945   6.462   9.198   7.035  0.0782  0.0956 -0.1372
 1317ERGO    R517946   6.617   9.350   7.025  0.1083  0.0684 -0.0543
 1317ERGO    C117947   6.657   9.240   7.388  0.0240 -0.0683 -0.0864
 1317ERGO    C217948   6.694   9.145   7.717  0.0174 -0.2532 -0.2064
 1318ERGO   ROH17949  11.201  12.927   6.626 -0.1004  0.0587  0.1404
 1318ERGO    R117950  11.121  12.909   6.897 -0.1780  0.2431  0.1302
 1318ERGO    R217951  11.244  12.741   7.078 -0.4228  0.1484  0.2046
 1318ERGO    R317952  11.272  12.969   7.223 -0.1702  0.1586  0.1449
 1318ERGO    R417953  11.322  12.753   7.415 -0.5804  0.1243  0.2430
 1318ERGO    R517954  11.179  12.916   7.437 -0.3667  0.3475  0.1163
 1318ERGO    C117955  11.394  12.975   7.746 -0.4350  0.1198  0.2092
 1318ERGO    C217956  11.536  13.013   8.088 -0.0346  0.1971 -0.0307
 1319ERGO   ROH17957   6.128   5.029   6.284  0.5469 -0.0940 -0.0381
 1319ERGO    R117958   6.046   4.972   6.549  0.3563  0.0819 -0.0567
 1319ERGO    R217959   6.176   4.786   6.708  0.1401  0.0676  0.1011
 1319ERGO    R317960   6.193   4.994   6.882  0.1806  0.1340  0.0194
 1319ERGO    R417961   6.158   4.758   7.052  0.0785  0.2055  0.1105
 1319ERGO    R517962   6.038   4.939   7.056  0.1333  0.2497  0.0189
 1319ERGO    C117963   6.164   4.937   7.416  0.0806  0.3482  0.0393
 1319ERGO    C217964   6.234   4.824   7.649  0.0915  0.2317 -0.1594
 1320ERGO   ROH17965  14.020  12.757   6.266  0.0477 -0.0575  0.1121
 1320ERGO    R117966  14.138  12.860   6.502 -0.0302  0.0559  0.1033
 1320ERGO    R217967  13.990  12.926   6.726 -0.0840 -0.0193  0.0926
 1320ERGO    R317968  14.164  12.758   6.851  0.0312  0.1168  0.1163
 1320ERGO    R417969  14.090  12.953   7.056 -0.1262  0.0755  0.0973
 1320ERGO    R517970  14.292  12.900   6.994 -0.0834  0.2200  0.1157
 1320ERGO    C117971  14.312  12.811   7.365 -0.0425  0.2586  0.1222
 1320ERGO    C217972  14.293  12.801   7.683  0.1674  0.0997 -0.0021
 1321ERGO   ROH17973  13.324  12.969   8.014  0.0397 -0.0253  0.0205
 1321ERGO    R117974  13.276  13.245   7.971  0.0665 -0.0339 -0.0632
 1321ERGO    R217975  13.207  13.418   8.175 -0.1756 -0.0187 -0.1567
 1321ERGO    R317976  13.420  13.560   8.083 -0.0816 -0.0102  0.0656
 1321ERGO    R417977  13.272  13.749   8.250 -0.2783 -0.0101 -0.1021
 1321ERGO    R517978  13.333  13.779   8.043 -0.0547 -0.0172 -0.0409
 1321ERGO    C117979  13.509  14.075   8.206 -0.2500  0.0030  0.1384
 1321ERGO    C217980  13.571  14.333   8.412 -0.1963  0.2693 -0.0624
 1322ERGO   ROH17981   6.764   4.212   6.469  0.2820  0.2423 -0.0487
 1322ERGO    R117982   6.847   4.135   6.729  0.0035 -0.0155 -0.0312
 1322ERGO    R217983   7.005   4.296   6.890  0.2227 -0.3646  0.1187
 1322ERGO    R317984   6.803   4.260   7.068  0.0517 -0.0642 -0.0078
 1322ERGO    R417985   7.012   4.395   7.221  0.1168 -0.2939  0.1002
 1322ERGO    R517986   6.913   4.209   7.274 -0.1561 -0.1544  0.0809
 1322ERGO    C117987   6.827   4.418   7.581 -0.1053  0.0294 -0.0292
 1322ERGO    C217988   6.635   4.588   7.842 -0.1781 -0.1022  0.1332
 1323ERGO   ROH17989  15.984   7.467   6.396 -0.1291 -0.2889 -0.0293
 1323ERGO    R117990  16.123   7.451   6.642 -0.1110 -0.0913 -0.0231
 1323ERGO    R217991  16.046   7.592   6.867 -0.2417 -0.0927 -0.0569
 1323ERGO    R317992  16.048   7.346   6.982 -0.0196 -0.0639  0.0031
 1323ERGO    R417993  15.993   7.531   7.203 -0.4603 -0.0946 -0.0910
 1323ERGO    R517994  16.151   7.381   7.195 -0.2582  0.1152  0.0861
 1323ERGO    C117995  15.964   7.264   7.507 -0.3793 -0.0688 -0.0543
 1323ERGO    C217996  15.981   7.074   7.908 -0.0697  0.0742  0.0077
 1324ERGO   ROH17997  13.897   7.987   6.380 -0.0535  0.1379 -0.0298
 1324ERGO    R117998  13.684   7.960   6.565 -0.0602  0.0680 -0.0472
 1324ERGO    R217999  13.721   7.869   6.823 -0.0712 -0.0439 -0.0824
 1324ERGO    R318000  13.595   8.101   6.889 -0.0623 -0.0652  0.0099
 1324ERGO    R418001  13.627   7.959   7.143 -0.0032 -0.1291 -0.0385
 1324ERGO    R518002  13.441   8.037   7.061 -0.0214 -0.1123  0.0263
 1324ERGO    C118003  13.454   8.228   7.392  0.0448 -0.1986  0.0737
 1324ERGO    C218004  13.443   8.265   7.701 -0.2215  0.2662  0.1212
 1325ERGO   ROH18005  14.935   0.015   5.935 -0.0832  0.0031  0.0116
 1325ERGO    R118006  14.868   0.070   6.205 -0.1163 -0.1038  0.0253
 1325ERGO    R218007  14.820  -0.130   6.390  0.2335 -0.1852  0.0333
 1325ERGO    R318008  15.011   0.001   6.532  0.0613  0.1167 -0.0035
 1325ERGO    R418009  14.814  -0.083   6.732  0.2877 -0.3163  0.0532
 1325ERGO    R518010  14.889   0.120   6.701 -0.0903 -0.1605  0.0889
 1325ERGO    C118011  14.989   0.067   7.065  0.1574 -0.1096  0.0303
 1325ERGO    C218012  14.951   0.078   7.398  0.1373 -0.2574  0.0519
 1326ERGO   ROH18013  12.704   8.275   6.348  0.0455  0.0819  0.1655
 1326ERGO    R118014  12.727   8.462   6.559  0.0366  0.1394  0.1167
 1326ERGO    R218015  12.508   8.564   6.691  0.0261  0.2199  0.0446
 1326ERGO    R318016  12.639   8.474   6.912 -0.0342  0.2564  0.0946
 1326ERGO    R418017  12.419   8.638   7.017  0.0510  0.4259  0.0053
 1326ERGO    R518018  12.631   8.659   7.065  0.0583  0.3338  0.0046
 1326ERGO    C118019  12.492   8.597   7.414  0.0088  0.5801  0.0295
 1326ERGO    C218020  12.493   8.656   7.797 -0.0885 -0.2765 -0.1557
 1327ERGO   ROH18021  15.227   4.148   6.210  0.0291 -0.1910  0.0743
 1327ERGO    R118022  15.240   4.085   6.485 -0.0494 -0.2761  0.0593
 1327ERGO    R218023  15.257   4.279   6.682  0.2015 -0.3443  0.1068
 1327ERGO    R318024  15.039   4.152   6.781  0.0358 -0.0893  0.0770
 1327ERGO    R418025  15.147   4.303   7.008  0.2625 -0.3068  0.1244
 1327ERGO    R518026  15.102   4.090   7.003 -0.0245 -0.2525  0.0519
 1327ERGO    C118027  14.877   4.198   7.292  0.1426 -0.0456  0.1068
 1327ERGO    C218028  14.727   4.129   7.609  0.1648 -0.0397  0.2477
 1328ERGO   ROH18029   5.590   9.932   6.783 -0.1965 -0.0828 -0.1407
 1328ERGO    R118030   5.705  10.031   7.022  0.0582 -0.1413 -0.2361
 1328ERGO    R218031   5.578  10.012   7.267  0.0559  0.3071 -0.1942
 1328ERGO    R318032   5.810   9.891   7.341 -0.1737 -0.1315 -0.1535
 1328ERGO    R418033   5.735  10.057   7.571  0.1821  0.1513 -0.2343
 1328ERGO    R518034   5.927  10.059   7.466  0.1847 -0.2951 -0.2549
 1328ERGO    C118035   6.045   9.971   7.818  0.0400 -0.3514 -0.2194
 1328ERGO    C218036   6.102   9.901   8.182 -0.0227  0.0373 -0.0193
 1329ERGO   ROH18037   6.320   2.953   6.489 -0.1817  0.1020 -0.1479
 1329ERGO    R118038   6.315   3.000   6.768 -0.0458  0.0905 -0.1438
 1329ERGO    R218039   6.223   2.813   6.949 -0.0256  0.1130 -0.1158
 1329ERGO    R318040   6.466   2.852   7.064  0.0361  0.0306 -0.2139
 1329ERGO    R418041   6.280   2.833   7.289  0.1077  0.1389 -0.1380
 1329ERGO    R518042   6.421   2.994   7.252  0.1621  0.0784 -0.2156
 1329ERGO    C118043   6.541   2.881   7.596  0.2432  0.0766 -0.2431
 1329ERGO    C218044   6.600   2.899   7.970 -0.2211 -0.3108  0.3387
 1330ERGO   ROH18045   8.793  11.607   6.496  0.0064 -0.0862  0.0673
 1330ERGO    R118046   8.773  11.788   6.713  0.0837 -0.0356  0.0338
 1330ERGO    R218047   8.624  11.733   6.940 -0.0039  0.1030  0.0155
 1330ERGO    R318048   8.859  11.786   7.067  0.0085 -0.0380  0.0511
 1330ERGO    R418049   8.670  11.721   7.282 -0.0077 -0.1073  0.0094
 1330ERGO    R518050   8.793  11.901   7.267  0.0421 -0.1359  0.1161
 1330ERGO    C118051   8.916  11.764   7.601  0.0018 -0.3621  0.0392
 1330ERGO    C218052   8.904  11.553   7.917 -0.1610 -0.0490  0.0270
 1331ERGO   ROH18053   8.982  16.275   6.749  0.0654  0.0060  0.0536
 1331ERGO    R118054   8.986  16.388   7.009 -0.0604  0.0789  0.0249
 1331ERGO    R218055   8.758  16.417   7.162 -0.1021 -0.0852 -0.0045
 1331ERGO    R318056   8.904  16.279   7.346  0.0051  0.0926  0.0459
 1331ERGO    R418057   8.718  16.443   7.504 -0.1834 -0.0511 -0.0169
 1331ERGO    R518058   8.935  16.436   7.525 -0.1754  0.1643  0.0188
 1331ERGO    C118059   8.830  16.329   7.876 -0.1300  0.1357  0.0232
 1331ERGO    C218060   8.780  16.284   8.228 -0.2016  0.1544 -0.2630
 1332ERGO   ROH18061   3.248   9.809   6.757 -0.0328 -0.0061 -0.0283
 1332ERGO    R118062   3.133   9.750   7.009 -0.0525 -0.0244 -0.0422
 1332ERGO    R218063   3.206   9.529   7.159 -0.0206 -0.0001 -0.0264
 1332ERGO    R318064   3.251   9.715   7.351 -0.0915  0.0154 -0.0238
 1332ERGO    R418065   3.179   9.473   7.498  0.0117 -0.0219 -0.0268
 1332ERGO    R518066   3.087   9.669   7.519 -0.0699 -0.0581 -0.0200
 1332ERGO    C118067   3.205   9.615   7.877 -0.0359 -0.0202 -0.0247
 1332ERGO    C218068   3.140   9.700   8.178 -0.1992 -0.0470  0.2923
 1333ERGO   ROH18069  16.250   8.532   6.641 -0.2384 -0.0688 -0.0747
 1333ERGO    R118070  16.255   8.543   6.923 -0.2239 -0.0148 -0.0768
 1333ERGO    R218071  16.084   8.394   7.081 -0.0524 -0.1741 -0.0353
 1333ERGO    R318072  16.315   8.309   7.196  0.0531  0.0931 -0.0420
 1333ERGO    R418073  16.111   8.280   7.406  0.0978 -0.1244 -0.0296
 1333ERGO    R518074  16.300   8.387   7.422 -0.0217  0.0912 -0.0470
 1333ERGO    C118075  16.344   8.133   7.703  0.2844  0.1555 -0.0327
 1333ERGO    C218076  16.315   7.958   7.835 -0.0229 -0.0516 -0.2003
 1334ERGO   ROH18077   4.503   1.320   6.405 -0.2753 -0.1316  0.0770
 1334ERGO    R118078   4.619   1.347   6.662 -0.1877 -0.0433  0.0287
 1334ERGO    R218079   4.469   1.339   6.894 -0.0938 -0.0773  0.0877
 1334ERGO    R318080   4.647   1.144   6.963  0.0202  0.0119  0.0486
 1334ERGO    R418081   4.571   1.270   7.217 -0.0193 -0.0492  0.0704
 1334ERGO    R518082   4.773   1.241   7.142 -0.0105  0.0670  0.0424
 1334ERGO    C118083   4.796   1.047   7.470  0.1312  0.0508  0.0236
 1334ERGO    C218084   4.691   0.988   7.838 -0.0162 -0.0833 -0.2820
 1335ERGO   ROH18085   5.848  15.214   7.081 -0.5427  0.0971  0.0694
 1335ERGO    R118086   5.982  15.045   7.265 -0.1904  0.2683 -0.0199
 1335ERGO    R218087   6.046  15.126   7.521 -0.4000  0.2564  0.0394
 1335ERGO    R318088   5.910  14.901   7.591  0.0775 -0.0971 -0.1165
 1335ERGO    R418089   5.996  15.019   7.846 -0.4852  0.1251 -0.0162
 1335ERGO    R518090   6.032  14.815   7.779  0.1011  0.2022  0.0111
 1335ERGO    C118091   5.839  14.746   8.101 -0.0865 -0.2831 -0.1950
 1335ERGO    C218092   5.849  14.686   8.478  0.1407  0.0982 -0.0010
 1336ERGO   ROH18093  11.189  11.848   6.648 -0.1429  0.1779 -0.0515
 1336ERGO    R118094  11.114  11.868   6.920 -0.0646  0.1765 -0.0298
 1336ERGO    R218095  11.124  11.653   7.093 -0.2003  0.1288 -0.0815
 1336ERGO    R318096  11.277  11.821   7.243 -0.0289 -0.0292 -0.0764
 1336ERGO    R418097  11.185  11.617   7.432 -0.2572  0.0655 -0.0780
 1336ERGO    R518098  11.164  11.832   7.454 -0.0306  0.0914 -0.0822
 1336ERGO    C118099  11.364  11.753   7.769 -0.1294 -0.1196 -0.0712
 1336ERGO    C218100  11.366  11.659   8.116 -0.2625  0.0762  0.0871
 1337ERGO   ROH18101   7.136   6.374   6.267  0.1624 -0.0618 -0.1035
 1337ERGO    R118102   7.236   6.485   6.507  0.1067 -0.0739 -0.0750
 1337ERGO    R218103   7.071   6.582   6.706  0.0624 -0.0035 -0.1477
 1337ERGO    R318104   7.212   6.411   6.863 -0.0527 -0.0353 -0.0764
 1337ERGO    R418105   7.034   6.551   7.049 -0.0993  0.0244 -0.1615
 1337ERGO    R518106   7.250   6.533   7.065 -0.1093 -0.0341 -0.0648
 1337ERGO    C118107   7.145   6.372   7.395 -0.3016  0.0107 -0.1025
 1337ERGO    C218108   7.312   6.388   7.747  0.2382  0.2013  0.1400
 1338ERGO   ROH18109  15.676  17.484   6.097 -0.2302 -0.0272  0.1760
 1338ERGO    R118110  15.743  17.370   6.348  0.0549  0.1078  0.1649
 1338ERGO    R218111  15.887  17.507   6.539 -0.1580  0.4004  0.1230
 1338ERGO    R318112  15.676  17.444   6.698 -0.0035 -0.0071  0.1781
 1338ERGO    R418113  15.887  17.528   6.884 -0.2357  0.8298  0.1026
 1338ERGO    R518114  15.776  17.340   6.890  0.2867  0.5033  0.3208
 1338ERGO    C118115  15.689  17.481   7.234 -0.1362  0.6973  0.1424
 1338ERGO    C218116  15.843  17.477   7.605  0.0186 -0.3033 -0.0701
 1339ERGO   ROH18117  11.360   9.667   6.614  0.0443 -0.2706  0.0737
 1339ERGO    R118118  11.376   9.586   6.884 -0.0533 -0.1838  0.1054
 1339ERGO    R218119  11.594   9.640   7.043 -0.0553 -0.2495  0.1258
 1339ERGO    R318120  11.407   9.749   7.208 -0.0259 -0.0879  0.0558
 1339ERGO    R418121  11.644   9.712   7.378 -0.1022 -0.2589  0.1353
 1339ERGO    R518122  11.442   9.638   7.418 -0.1764 -0.0998  0.0783
 1339ERGO    C118123  11.497   9.855   7.728 -0.1020 -0.1128  0.0752
 1339ERGO    C218124  11.681   9.963   8.072  0.2863  0.0984 -0.0463
 1340ERGO   ROH18125  13.566  17.137   5.719 -0.1270 -0.1137  0.0800
 1340ERGO    R118126  13.444  17.205   5.965 -0.1813 -0.0851  0.0443
 1340ERGO    R218127  13.353  17.016   6.144 -0.0107 -0.0653  0.1481
 1340ERGO    R318128  13.512  17.152   6.318 -0.1269  0.1695  0.0754
 1340ERGO    R418129  13.316  17.014   6.488  0.2243 -0.2405  0.1763
 1340ERGO    R518130  13.361  17.227   6.489 -0.1544 -0.1490  0.2033
 1340ERGO    C118131  13.442  17.141   6.851  0.2521 -0.1224  0.1245
 1340ERGO    C218132  13.418  17.101   7.053  0.2240 -0.0095 -0.1386
 1341ERGO   ROH18133   7.609  15.595   6.394  0.0508 -0.0795  0.0920
 1341ERGO    R118134   7.599  15.842   6.533  0.0565 -0.0370  0.0180
 1341ERGO    R218135   7.376  15.924   6.674  0.0865 -0.0260  0.0616
 1341ERGO    R318136   7.554  15.950   6.877  0.1464  0.0632 -0.0018
 1341ERGO    R418137   7.298  16.032   6.993  0.1278 -0.1680  0.1201
 1341ERGO    R518138   7.483  16.146   6.995  0.0381 -0.0223  0.0757
 1341ERGO    C118139   7.420  16.118   7.370  0.2081 -0.1670  0.0947
 1341ERGO    C218140   7.404  16.267   7.674  0.0408 -0.3055  0.1086
 1342ERGO   ROH18141  10.734   1.652   6.306  0.0368 -0.0149 -0.1718
 1342ERGO    R118142  10.994   1.544   6.332  0.0309 -0.0366 -0.1986
 1342ERGO    R218143  11.189   1.579   6.141  0.0807  0.1319 -0.1204
 1342ERGO    R318144  11.333   1.674   6.351  0.0253 -0.0482  0.0012
 1342ERGO    R418145  11.533   1.614   6.145  0.0918  0.0144  0.0504
 1342ERGO    R518146  11.533   1.542   6.350 -0.0196 -0.1146  0.0051
 1342ERGO    C118147  11.869   1.724   6.344  0.0463 -0.2232  0.2640
 1342ERGO    C218148  12.218   1.754   6.292 -0.0637  0.2228 -0.0046
 1343ERGO   ROH18149   6.298   5.897   6.329 -0.1832  0.0668 -0.0338
 1343ERGO    R118150   6.377   5.854   6.598  0.0531  0.2553 -0.0681
 1343ERGO    R218151   6.388   6.058   6.784 -0.2486  0.3129 -0.1000
 1343ERGO    R318152   6.226   5.893   6.926  0.1478  0.0008  0.0058
 1343ERGO    R418153   6.388   6.028   7.129 -0.0455  0.3753 -0.0939
 1343ERGO    R518154   6.363   5.813   7.105  0.3870  0.3159 -0.0347
 1343ERGO    C118155   6.236   5.854   7.462  0.4449  0.1187  0.0089
 1343ERGO    C218156   6.358   5.964   7.656  0.0120 -0.2725  0.2249
 1344ERGO   ROH18157  15.461  11.078   6.434  0.1383  0.0757 -0.1836
 1344ERGO    R118158  15.551  10.960   6.676 -0.1194 -0.0111 -0.1258
 1344ERGO    R218159  15.779  11.046   6.807  0.0011 -0.3569 -0.0938
 1344ERGO    R318160  15.609  11.071   7.018 -0.0182 -0.0056 -0.1452
 1344ERGO    R418161  15.875  11.048   7.139 -0.0944 -0.5322 -0.0643
 1344ERGO    R518162  15.700  10.926   7.185 -0.3571 -0.1839 -0.1089
 1344ERGO    C118163  15.771  11.073   7.530 -0.1681 -0.3047 -0.0954
 1344ERGO    C218164  15.884  11.181   7.776  0.1152 -0.0221 -0.1427
 1345ERGO   ROH18165   3.271   7.995   6.505 -0.1134 -0.2053  0.1223
 1345ERGO    R118166   3.270   8.088   6.773 -0.0293 -0.1302  0.0970
 1345ERGO    R218167   3.046   8.075   6.934 -0.0167  0.0374  0.1292
 1345ERGO    R318168   3.216   7.944   7.102 -0.0676 -0.0085  0.1448
 1345ERGO    R418169   2.975   7.992   7.262 -0.0404  0.1384  0.1494
 1345ERGO    R518170   3.179   8.047   7.315 -0.0092  0.0539  0.1266
 1345ERGO    C118171   3.093   7.822   7.611 -0.1019  0.1541  0.1759
 1345ERGO    C218172   2.911   7.774   7.965 -0.1961  0.0896 -0.0218
 1346ERGO   ROH18173   3.503  14.982   6.441 -0.1696 -0.0060 -0.0507
 1346ERGO    R118174   3.586  15.129   6.668 -0.0899 -0.0257 -0.0668
 1346ERGO    R218175   3.486  15.379   6.729 -0.0856 -0.0402  0.0027
 1346ERGO    R318176   3.430  15.263   6.969  0.0195 -0.0727  0.0116
 1346ERGO    R418177   3.529  15.532   7.036 -0.1345 -0.0109 -0.0051
 1346ERGO    R518178   3.604  15.342   7.114 -0.0072  0.0350 -0.0142
 1346ERGO    C118179   3.501  15.512   7.440 -0.0644 -0.0243 -0.0012
 1346ERGO    C218180   3.672  15.614   7.736 -0.5418  0.1339 -0.1589
 1347ERGO   ROH18181   6.973  14.139   6.990 -0.0024 -0.0674 -0.0031
 1347ERGO    R118182   7.010  14.181   7.267  0.0469 -0.1050 -0.0039
 1347ERGO    R218183   6.840  14.339   7.417  0.1575 -0.0071  0.0179
 1347ERGO    R318184   6.823  14.116   7.572  0.0310 -0.0043  0.0084
 1347ERGO    R418185   6.779  14.340   7.758  0.1077  0.0121  0.0090
 1347ERGO    R518186   6.926  14.180   7.779  0.0308 -0.0577  0.0257
 1347ERGO    C118187   6.727  14.131   8.101 -0.0400  0.0260 -0.0051
 1347ERGO    C218188   6.605  14.290   8.327 -0.0297 -0.1200  0.3483
 1348ERGO   ROH18189  13.469  10.997   6.396 -0.0452  0.0420  0.0142
 1348ERGO    R118190  13.469  11.074   6.668  0.0319  0.0945 -0.0003
 1348ERGO    R218191  13.398  10.900   6.871 -0.0291  0.1695  0.0424
 1348ERGO    R318192  13.641  10.970   6.972  0.0211  0.0645 -0.0043
 1348ERGO    R418193  13.476  10.915   7.208 -0.0446  0.4165  0.0370
 1348ERGO    R518194  13.590  11.097   7.168  0.1080  0.2897 -0.1233
 1348ERGO    C118195  13.749  10.989   7.498 -0.0065  0.4617 -0.0101
 1348ERGO    C218196  13.859  11.037   7.747  0.1476 -0.0400  0.1962
 1349W        W18197   4.859  12.763  15.622  0.2738  0.0873 -0.2849
 1350W        W18198   7.619  14.513   1.987  0.0146  0.1772  0.1281
 1351W        W18199   9.761   0.047   1.366  0.0354  0.4328  0.0468
 1352W        W18200   9.786  17.465   3.505  0.1670  0.0654  0.3526
 1353W        W18201  10.993   1.785   1.880  0.0753 -0.2985 -0.1561
 1354W        W18202  16.358   3.176  16.025  0.0851 -0.2222 -0.1175
 1355W        W18203  11.975   9.483  13.227 -0.0174  0.2044  0.2886
 1356W        W18204   5.260  11.177   5.004  0.0906 -0.0428 -0.2171
 1357W        W18205   6.442   7.597  15.738  0.3508  0.3632  0.0562
 1358W        W18206  11.834  16.801   4.974 -0.1349 -0.0765 -0.0122
 1359W        W18207   3.386  17.679   4.462  0.0826 -0.0042 -0.1131
 1360W        W18208  15.892  11.873   2.396 -0.0034  0.0107 -0.3544
 1361W        W18209   0.849  12.553   2.629  0.0886  0.4034 -0.0374
 1362W        W18210   5.517   5.457   1.596 -0.1393 -0.0054  0.1458
 1363W        W18211  15.248   3.547   4.983  0.2017  0.1351 -0.2088
 1364W        W18212   8.256  11.309  15.789 -0.0409  0.1941  0.1463
 1365W        W18213  11.805   9.672   2.847 -0.0634  0.0510  0.2386
 1366W        W18214  11.691   2.035  13.780 -0.4248  0.2028 -0.0992
 1367W        W18215   5.248  15.109  16.396 -0.0689 -0.0170  0.1763
 1368W        W18216  10.207   0.539  15.096 -0.0636 -0.0444 -0.1585
 1369W        W18217   8.041  12.128   4.396  0.1613 -0.0619  0.3402
 1370W        W18218   8.856   9.503  15.417  0.1119  0.0646  0.4461
 1371W        W18219   8.916  10.828  16.056 -0.1314 -0.1707 -0.1615
 1372W        W18220   4.008   9.973   0.136 -0.0463  0.1468  0.1224
 1373W        W18221   3.746  17.729  12.993  0.2178  0.0290 -0.2403
 1374W        W18222   7.074   6.972  15.137  0.1189  0.0652  0.0403
 1375W        W18223   4.512  12.917  12.871  0.5412 -0.1242 -0.2617
 1376W        W18224  13.871   3.763   0.536 -0.1168  0.1164 -0.0462
 1377W        W18225  10.835   1.679  12.460  0.3730  0.2309  0.0478
 1378W        W18226   3.125  17.843   3.531 -0.1698 -0.2466 -0.1628
 1379W        W18227   3.850  16.996   0.561 -0.1284 -0.2254  0.2486
 1380W        W18228  12.859   5.845  11.836  0.1107  0.1840 -0.0885
 1381W        W18229   7.811   4.385   4.578 -0.0061  0.3967  0.0024
 1382W        W18230  15.318   1.618   3.227  0.0585 -0.1243 -0.0995
 1383W        W18231   3.680   4.790  13.807 -0.2459 -0.1057 -0.0578
 1384W        W18232   3.645   2.495  14.472  0.0862  0.2161  0.0850
 1385W        W18233   3.335  14.311   0.001  0.2091  0.0977 -0.2351
 1386W        W18234  10.255  15.392   1.754 -0.1439  0.0796  0.1860
 1387W        W18235   0.529   5.454  12.334  0.2145 -0.1625  0.0285
 1388W        W18236  17.231   6.049  11.695  0.1805  0.4500  0.0627
 1389W        W18237   5.580  16.588   0.885 -0.2843  0.2626 -0.2945
 1390W        W18238  10.923   4.937  12.605 -0.4153  0.0671 -0.1047
 1391W        W18239  12.269  14.125   2.512  0.1038  0.3557  0.0423
 1392W        W18240   8.135   2.645   3.001 -0.1378  0.0793  0.2088
 1393W        W18241   4.592  17.255  13.849 -0.0022 -0.1319 -0.0076
 1394W        W18242  11.013   4.466  12.382  0.0748  0.0135  0.2499
 1395W        W18243   4.129  16.035   0.355 -0.0939 -0.1119  0.1176
 1396W        W18244   0.721   1.267   1.335 -0.2397 -0.1717  0.1881
 1397W        W18245  10.004   7.225   5.883  0.1832  0.0684  0.2078
 1398W        W18246  14.334  10.434   1.576 -0.0005 -0.0023  0.0867
 1399W        W18247   3.846  10.429   1.600 -0.0469 -0.0570 -0.2476
 1400W        W18248  13.398  12.717   5.352  0.2924  0.0130  0.3925
 1401W        W18249   9.983  12.382   1.733 -0.4162  0.3454  0.2666
 1402W        W18250   0.635  16.369  16.359 -0.3850  0.0520  0.1133
 1403W        W18251   8.277  17.318   0.822 -0.0978 -0.0368  0.0523
 1404W        W18252   2.151  14.094   0.387  0.2839 -0.3541  0.1403
 1405W        W18253   1.585  15.264   1.291  0.1310  0.0914 -0.1603
 1406W        W18254   7.580   7.270  15.307 -0.1304 -0.1042 -0.0510
 1407W        W18255  17.650   8.578   3.893  0.0578  0.1115 -0.4196
 1408W        W18256  13.525   0.877  15.763  0.0186  0.2544 -0.1859
 1409W        W18257   7.929  10.838   4.199 -0.0930  0.0423 -0.1034
 1410W        W18258  12.188  16.075  13.666 -0.2623 -0.0386  0.1844
 1411W        W18259   5.515   7.572   2.056 -0.2164  0.0994 -0.1514
 1412W        W18260  17.029   2.342   3.942 -0.0547 -0.1945 -0.0841
 1413W        W18261   2.774  12.172   3.287  0.1969  0.2424 -0.2460
 1414W        W18262   8.854  15.805   0.059  0.0163 -0.0998  0.2516
 1415W        W18263   1.259   3.168   0.245  0.2972 -0.3139 -0.2655
 1416W        W18264   8.898   5.660  15.196  0.0315  0.0588 -0.0460
 1417W        W18265  17.300   9.612  14.596  0.0134 -0.2835  0.1626
 1418W        W18266   1.424  14.643  11.017  0.1689 -0.0982 -0.0148
 1419W        W18267   3.364   4.619  14.218  0.0391  0.2184  0.0138
 1420W        W18268  17.271   3.053   0.480  0.1524  0.0245 -0.1964
 1421W        W18269   4.847  14.817  14.868  0.0841 -0.1890  0.5063
 1422W        W18270  12.870  10.466  14.896 -0.0293 -0.1222 -0.0273
 1423W        W18271  13.146  16.114  14.061  0.1229  0.0473  0.1097
 1424W        W18272  17.240   6.804  13.472  0.0982  0.0222  0.0417
 1425W        W18273  16.619   2.999   2.728  0.0246  0.0746 -0.0373
 1426W        W18274   5.307   1.055  15.084 -0.2241 -0.1223 -0.2771
 1427W        W18275   0.868   7.679  15.953 -0.3794  0.1801  0.0797
 1428W        W18276   4.223   0.171  14.564 -0.0308 -0.1168 -0.0569
 1429W        W18277   2.445   1.931   6.466  0.4701  0.0325 -0.1889
 1430W        W18278   4.546   3.466  11.728  0.0207  0.1136 -0.2029
 1431W        W18279  10.928  13.923   4.834 -0.0541  0.1285 -0.0363
 1432W        W18280   3.701   0.089   4.949  0.1532 -0.4650 -0.3059
 1433W        W18281   5.706   9.969  11.637 -0.1050 -0.2297  0.2830
 1434W        W18282  13.500  12.373   5.725  0.1709 -0.1047  0.2781
 1435W        W18283  15.096  16.578  15.396 -0.1252  0.4342  0.1474
 1436W        W18284   0.343   4.151   0.654  0.0451 -0.2087 -0.0743
 1437W        W18285  12.757   8.675  15.420 -0.1631 -0.3339 -0.0828
 1438W        W18286   6.320   3.997   0.331  0.1758  0.1671 -0.0540
 1439W        W18287   1.521  11.361  11.907 -0.2313 -0.0527  0.0825
 1440W        W18288   4.033   5.584  14.478  0.2827 -0.2741  0.0061
 1441W        W18289  16.948   4.512  15.411 -0.1225  0.1960 -0.0016
 1442W        W18290  16.087   3.842   3.703  0.0844 -0.1617 -0.0278
 1443W        W18291  10.143  14.352  15.079  0.2477  0.0166  0.1498
 1444W        W18292  11.844  13.093  15.053  0.1135  0.0011  0.3324
 1445W        W18293  11.408   1.789   4.249  0.0462 -0.0595 -0.2035
 1446W        W18294   7.130  14.997  13.772 -0.2984 -0.2049  0.1531
 1447W        W18295   0.564  12.914  12.110  0.0750 -0.0147  0.0526
 1448W        W18296   7.897   6.018   3.637 -0.1640 -0.2395 -0.1030
 1449W        W18297  11.288   9.248   3.666 -0.0721  0.0729 -0.0041
 1450W        W18298  10.104  13.633   1.761  0.1710 -0.0880 -0.0381
 1451W        W18299  14.664   3.093  12.822  0.0214  0.3127  0.0994
 1452W        W18300  11.490   5.442  11.369 -0.0165 -0.0815 -0.4098
 1453W        W18301  15.907   9.405  16.107  0.1454  0.0397  0.1076
 1454W        W18302   3.445  10.748   2.408 -0.0972 -0.0601 -0.0641
 1455W        W18303  16.565  16.886   3.299  0.0899 -0.0182 -0.1258
 1456W        W18304   0.236  15.309  14.932  0.2637 -0.1555 -0.1138
 1457W        W18305   1.555   8.912   4.181  0.2310  0.0783  0.2853
 1458W        W18306  14.742   8.544  14.082  0.2442 -0.0032 -0.0979
 1459W        W18307   9.590   7.337   4.060  0.3602  0.1726  0.0251
 1460W        W18308   2.562   7.314  13.928  0.1195 -0.1686 -0.1983
 1461W        W18309   8.509   8.689  12.943 -0.2304 -0.0241  0.0835
 1462W        W18310   3.685   7.941  14.251  0.5159 -0.1798 -0.2250
 1463W        W18311   8.720  11.694  15.746 -0.1851 -0.1020  0.0783
 1464W        W18312   2.276  15.066   4.204 -0.1076 -0.2179 -0.0435
 1465W        W18313  11.073  14.263  16.084  0.2401 -0.4015  0.1139
 1466W        W18314   1.291  16.474   4.714  0.3162 -0.1018 -0.4837
 1467W        W18315  13.914   6.168   6.261  0.0693  0.2099  0.0491
 1468W        W18316   8.592  15.911   3.351  0.0506  0.1072  0.0422
 1469W        W18317  17.527  13.370   0.468 -0.2726 -0.0367 -0.0812
 1470W        W18318  14.974   1.013   1.869  0.2108 -0.1135  0.1020
 1471W        W18319  12.312  14.694  14.527  0.0937  0.0062 -0.1531
 1472W        W18320   7.309   8.578  14.582 -0.2282  0.0210  0.2346
 1473W        W18321   0.489  13.163   4.157 -0.2953 -0.1479  0.1496
 1474W        W18322  13.838   3.341  11.473 -0.0494  0.2017 -0.1135
 1475W        W18323  11.858   7.541  13.130  0.2577  0.2596 -0.0560
 1476W        W18324  14.935  14.992  15.687 -0.2992 -0.0569  0.0608
 1477W        W18325  16.720  12.755  13.406  0.3110 -0.1019 -0.0274
 1478W        W18326  15.682  17.442   0.727 -0.2746 -0.2249 -0.0363
 1479W        W18327   4.603   5.098   0.409 -0.1924  0.0393  0.0295
 1480W        W18328   7.678   4.764   2.031  0.0440  0.0788 -0.0513
 1481W        W18329   1.474  14.625  16.405 -0.0441  0.1977  0.0911
 1482W        W18330  16.310   6.100  11.645  0.1184  0.0154 -0.1155
 1483W        W18331  13.192   8.486   2.771  0.0081 -0.3666  0.0464
 1484W        W18332   1.861  14.045   2.536 -0.0790 -0.4377 -0.1249
 1485W        W18333  14.282  13.811   3.192  0.2067 -0.2178 -0.0992
 1486W        W18334  15.987  17.188  13.309  0.4852  0.0178  0.2879
 1487W        W18335   0.986   2.174  12.903  0.0152 -0.0148 -0.0003
 1488W        W18336  10.755  16.130   2.304 -0.1354  0.0646  0.0184
 1489W        W18337  10.527  10.344   1.010  0.1082 -0.1367 -0.0906
 1490W        W18338   9.383   1.632  14.563  0.1856  0.1830 -0.1219
 1491W        W18339   7.431  11.458  14.737  0.0467  0.0196  0.1664
 1492W        W18340  14.894   2.005  12.590 -0.0241  0.2604  0.0469
 1493W        W18341   5.803   0.066  12.283  0.0024  0.0495 -0.0708
 1494W        W18342   2.223  10.982  10.908  0.2415 -0.0310  0.0409
 1495W        W18343   5.436   7.197   1.240  0.0559  0.1597  0.2102
 1496W        W18344  11.965   3.232   2.234  0.2008  0.0490 -0.1685
 1497W        W18345   8.924  16.822  15.517 -0.0185  0.1126 -0.0499
 1498W        W18346  16.325  13.829   1.647  0.1560  0.1884 -0.0754
 1499W        W18347   8.999  10.498   3.158  0.3704  0.0481 -0.2105
 1500W        W18348  17.602  13.748  14.608 -0.1657 -0.0911 -0.1898
 1501W        W18349   2.242   4.742  13.342  0.0096 -0.1163 -0.0071
 1502W        W18350  13.589  15.698  13.826  0.1187  0.1491 -0.1369
 1503W        W18351   2.258   2.812  11.855 -0.4545 -0.0645  0.1643
 1504W        W18352   0.794  17.431  11.649  0.1595  0.0476  0.0992
 1505W        W18353   8.691  14.295   1.886  0.0537  0.1292  0.2159
 1506W        W18354  11.339  12.722   0.309  0.1434 -0.1176  0.2412
 1507W        W18355   4.790   0.359  15.043  0.0130 -0.0866 -0.2818
 1508W        W18356   9.228  14.436  11.915 -0.0925 -0.0240  0.0743
 1509W        W18357   4.976   0.416   3.041 -0.0753  0.0108  0.1199
 1510W        W18358   8.814   2.539   1.391  0.2231  0.1190  0.1354
 1511W        W18359  10.998   6.197   4.506  0.0252 -0.2238 -0.1994
 1512W        W18360  12.867   6.345  11.691 -0.0542  0.0055  0.0443
 1513W        W18361   2.075  10.546  15.456 -0.3157 -0.1594  0.1813
 1514W        W18362  10.158   2.257   3.995 -0.4365 -0.2484 -0.0905
 1515W        W18363   7.175   2.140   2.108  0.0145 -0.0002  0.1874
 1516W        W18364   7.536   1.256  11.566  0.3930  0.0100 -0.0684
 1517W        W18365   4.913  12.169  11.991  0.0283  0.2647  0.0158
 1518W        W18366  16.137   4.879  15.574 -0.0697 -0.3453 -0.3468
 1519W        W18367   9.667  12.406  15.410  0.3243  0.1397  0.0667
 1520W        W18368   9.533   5.318   2.281  0.0525 -0.1334  0.2340
 1521W        W18369  14.197  12.907  14.985  0.2418  0.2473  0.1382
 1522W        W18370  15.498   0.951   0.317 -0.1319  0.1512  0.1312
 1523W        W18371   3.076   4.739  14.854  0.2326  0.4716  0.3158
 1524W        W18372  12.082  10.376   2.828  0.2025 -0.1723 -0.0370
 1525W        W18373   7.953  14.568   2.429  0.0553 -0.2402 -0.1715
 1526W        W18374   3.231  16.739   2.704  0.0167  0.0329 -0.0639
 1527W        W18375   5.773  15.083   0.141  0.1173  0.0401 -0.1335
 1528W        W18376   5.789  15.829   3.751 -0.0988 -0.0377  0.1451
 1529W        W18377   9.736  17.784  12.009 -0.1704 -0.2401  0.0393
 1530W        W18378   0.025  10.834  16.451  0.0674 -0.1351 -0.0842
 1531W        W18379  15.407  11.180   0.851 -0.3419  0.0850 -0.1546
 1532W        W18380   4.435   1.377   4.537  0.0843 -0.2095  0.1347
 1533W        W18381   2.281   0.965   0.432  0.1603 -0.1485  0.0779
 1534W        W18382  14.066   2.202   2.369 -0.2963 -0.1096 -0.1657
 1535W        W18383   1.497   9.804  11.599  0.3815 -0.1351  0.0702
 1536W        W18384   4.681  10.892  15.909 -0.3934 -0.2637 -0.1192
 1537W        W18385  12.358  14.543  16.294 -0.2041  0.1799  0.0762
 1538W        W18386   7.661  16.142  14.982 -0.0299 -0.0081  0.1592
 1539W        W18387   8.791  12.662  12.425  0.1970  0.1136  0.2552
 1540W        W18388  13.872  10.604  14.576 -0.1462 -0.0035 -0.0512
 1541W        W18389   2.254  13.212  15.216 -0.1599  0.1576 -0.0381
 1542W        W18390  15.942  17.089  16.120  0.1357  0.1965 -0.0084
 1543W        W18391   4.132   4.425  12.002 -0.0992 -0.3729 -0.1254
 1544W        W18392   1.022  13.262   3.975  0.2593 -0.1922  0.2854
 1545W        W18393  12.308  16.768   3.605  0.2069 -0.1768  0.0696
 1546W        W18394  15.028  14.112  15.977 -0.1331  0.3213 -0.2066
 1547W        W18395   8.671   3.630  14.024 -0.0473 -0.3353 -0.2875
 1548W        W18396  10.466  11.336  14.385  0.1700 -0.1262 -0.1496
 1549W        W18397   8.405   9.477  13.637  0.0526  0.1446  0.1098
 1550W        W18398  12.935  16.290  12.025 -0.1005  0.0486  0.0068
 1551W        W18399   2.494   1.043   4.080  0.1428 -0.0509 -0.0883
 1552W        W18400   5.229   0.145   2.696 -0.0148  0.0455  0.3361
 1553W        W18401  12.227   6.435   1.480  0.1577  0.2121 -0.1722
 1554W        W18402  14.621  10.948  11.806  0.2593 -0.0876 -0.0534
 1555W        W18403   6.627  11.046  14.833 -0.0894 -0.1526 -0.0865
 1556W        W18404  15.177   5.651   0.367 -0.0790  0.1052 -0.0480
 1557W        W18405   8.252   1.371  11.324 -0.1351 -0.0575  0.1161
 1558W        W18406  15.107   4.278   3.848 -0.0704  0.0685  0.0180
 1559W        W18407   5.227  11.773  12.719  0.0378  0.3718 -0.1372
 1560W        W18408  10.434   1.615  12.144  0.0777  0.0513  0.0595
 1561W        W18409   5.914   7.565   5.420  0.2545  0.1782  0.2640
 1562W        W18410   2.220   7.746  12.770  0.0196  0.3514 -0.0515
 1563W        W18411  16.063   6.342   0.242  0.1064  0.1020  0.1890
 1564W        W18412  10.909   5.970  15.775  0.0882  0.0541 -0.0848
 1565W        W18413   5.911  17.866   0.306  0.0643  0.0761 -0.0146
 1566W        W18414   5.078  14.753   4.309 -0.0009  0.0743  0.1511
 1567W        W18415  14.788   0.700   1.014  0.0938  0.0441 -0.2893
 1568W        W18416  15.002  14.342   3.275 -0.0128  0.1858  0.0175
 1569W        W18417   5.847   5.904  13.867  0.1888 -0.0724  0.0050
 1570W        W18418  10.197   4.628   4.577  0.0598  0.1628 -0.1607
 1571W        W18419  15.313   3.937   4.148 -0.0170 -0.0547 -0.0454
 1572W        W18420   4.232  13.024  13.350  0.0547 -0.4359 -0.1544
 1573W        W18421  16.145  16.616   3.259 -0.1132  0.0219  0.1703
 1574W        W18422   3.829   1.837   3.524  0.2090  0.0884  0.0483
 1575W        W18423   4.295   7.395   4.335 -0.2496 -0.0471 -0.1104
 1576W        W18424   7.458   5.116   2.505  0.0026 -0.2344 -0.1634
 1577W        W18425  16.707   6.448   0.196  0.3228 -0.4154  0.2822
 1578W        W18426   6.525  15.288   2.095 -0.2651 -0.1301  0.1311
 1579W        W18427   2.284   3.399   3.294  0.0972  0.2916 -0.2124
 1580W        W18428   2.537  10.110  11.564 -0.1857  0.0804  0.1049
 1581W        W18429  10.112   7.463   1.830 -0.1305  0.1141 -0.2210
 1582W        W18430   0.194   2.095  15.182 -0.0219  0.2610 -0.1837
 1583W        W18431   3.293  10.280   3.730  0.0611 -0.1331  0.0458
 1584W        W18432   8.067  17.115  11.315 -0.1121 -0.0172 -0.1971
 1585W        W18433   9.302   6.711   2.199  0.0911  0.2925 -0.0253
 1586W        W18434   0.262   5.649  15.082 -0.0578  0.0972 -0.0648
 1587W        W18435   5.118  11.922  15.849 -0.1934 -0.1082  0.0653
 1588W        W18436   5.125   4.037   2.916  0.2158 -0.1720  0.1419
 1589W        W18437   6.737   6.380   2.586 -0.2411 -0.0608 -0.1330
 1590W        W18438   5.463   7.966   2.375  0.0289 -0.1955 -0.0118
 1591W        W18439  12.116   3.730  14.383  0.1933 -0.1964 -0.0613
 1592W        W18440  14.544  14.008  16.140  0.2610 -0.2575 -0.1399
 1593W        W18441  11.524  15.642  16.430 -0.0252 -0.0177 -0.0166
 1594W        W18442  16.984  11.241  15.947 -0.1571  0.1396  0.0141
 1595W        W18443  10.417  13.200   2.348 -0.2773  0.3029 -0.0301
 1596W        W18444   2.460   0.843   5.115 -0.0775  0.1872 -0.0215
 1597W        W18445   5.038   0.469   4.647 -0.2870  0.2330 -0.2220
 1598W        W18446   5.828   8.875   4.778  0.2728 -0.0354 -0.2126
 1599W        W18447  16.902   6.518   3.462  0.1739 -0.0380  0.0610
 1600W        W18448  17.343   0.924  15.618 -0.1764  0.2824  0.1454
 1601W        W18449   8.146   6.142   5.167 -0.1034 -0.2061 -0.0425
 1602W        W18450   2.459   1.086   4.654 -0.1560 -0.1075 -0.1069
 1603W        W18451  13.706  14.899   4.516 -0.1162  0.1178  0.3779
 1604W        W18452   5.610  13.358  11.697 -0.0117 -0.1916 -0.0024
 1605W        W18453  17.444  10.493  12.168 -0.6931 -0.0495  0.2425
 1606W        W18454   3.545  14.519  15.486 -0.0449 -0.0119  0.2366
 1607W        W18455  10.727  10.588  11.852 -0.2804 -0.0753 -0.0453
 1608W        W18456  11.520   6.484  13.273  0.0469  0.1323 -0.1482
 1609W        W18457  14.382  10.839  16.087  0.0653  0.1113 -0.0843
 1610W        W18458   6.809   3.840  11.820  0.1763  0.0799  0.1577
 1611W        W18459  11.037   2.548  15.032  0.2867 -0.0233  0.0229
 1612W        W18460   7.170   7.798   4.363  0.1581 -0.2326  0.0673
 1613W        W18461   8.820   6.737   3.904 -0.1374 -0.0269 -0.0250
 1614W        W18462  14.236   1.306   2.853  0.0466  0.3941  0.2159
 1615W        W18463   6.378  11.825  13.341  0.1686 -0.1554 -0.0039
 1616W        W18464  11.993  12.142  14.880  0.2372 -0.2023 -0.4396
 1617W        W18465  11.031   7.766   4.122  0.1139 -0.3003  0.1345
 1618W        W18466   2.778  12.873  12.682 -0.2364 -0.2519  0.2271
 1619W        W18467  10.224  15.718   2.472 -0.0603 -0.0620  0.0523
 1620W        W18468   9.165   0.814  16.242  0.3565 -0.0924  0.0909
 1621W        W18469   1.049  16.164  14.106  0.5930 -0.0553 -0.1719
 1622W        W18470  10.605   7.997  11.671 -0.0014  0.0377  0.3178
 1623W        W18471   1.909  16.218  16.192  0.4535 -0.0542 -0.1374
 1624W        W18472  15.524   1.305  12.265 -0.2224 -0.1979 -0.0289
 1625W        W18473   6.675   1.966  13.310 -0.2913  0.1312  0.1412
 1626W        W18474  11.223   9.006   0.933 -0.0485  0.0309  0.3274
 1627W        W18475   8.828  14.388   4.146  0.0723 -0.0522 -0.1030
 1628W        W18476  14.429  17.233  11.811 -0.0882 -0.2588  0.0600
 1629W        W18477  11.392   7.223  11.453 -0.1402  0.0326 -0.1770
 1630W        W18478   9.846  14.604  11.960 -0.0373 -0.0856  0.2174
 1631W        W18479   8.356  11.139   6.206  0.1350  0.1906  0.0172
 1632W        W18480   6.597   6.917  14.899  0.4184  0.5087 -0.1624
 1633W        W18481  12.574   2.123   2.063  0.2323  0.3133  0.1505
 1634W        W18482   4.860  10.731   2.409  0.1468 -0.3314 -0.0421
 1635W        W18483   9.927  11.631   0.265 -0.1417  0.3055 -0.2773
 1636W        W18484   5.017   9.632   3.917  0.0316 -0.2819 -0.4327
 1637W        W18485  15.308   2.128  12.311  0.0832  0.1012  0.1899
 1638W        W18486   3.803  11.605   2.458  0.0100  0.2511  0.0272
 1639W        W18487  12.221   4.664   2.685 -0.1026 -0.2842  0.1449
 1640W        W18488   1.845  16.954   5.070  0.2144 -0.1181 -0.0784
 1641W        W18489   9.193   4.325   2.016  0.0819 -0.3173 -0.0766
 1642W        W18490   9.121  12.045   2.144 -0.4539  0.2533  0.2636
 1643W        W18491   0.202   6.444  15.356 -0.3950  0.1573  0.1625
 1644W        W18492   7.777  12.588   2.697  0.2780 -0.2485  0.0329
 1645W        W18493  15.140  11.329  14.037 -0.0248  0.0075  0.1824
 1646W        W18494  10.261   2.014  14.216 -0.1317  0.2069  0.0560
 1647W        W18495  17.584   6.347  12.082 -0.2666 -0.0007 -0.2298
 1648W        W18496  14.470  17.129   2.368  0.2170  0.1906  0.1043
 1649W        W18497   4.607   0.511   0.831  0.0790 -0.0336  0.2307
 1650W        W18498   4.453   7.546   3.321  0.0530  0.0083  0.0280
 1651W        W18499  10.768  13.834  14.789  0.0030  0.0984  0.1006
 1652W        W18500  15.387  15.591   3.334  0.1905  0.2630  0.0180
 1653W        W18501  14.237  16.989   1.146  0.2706 -0.2511  0.0506
 1654W        W18502  11.439   1.519   1.624  0.1686  0.2737  0.1394
 1655W        W18503   0.420   7.650   4.839 -0.2337 -0.1708  0.1212
 1656W        W18504  11.855   7.001  11.357  0.0399  0.0549  0.1976
 1657W        W18505   6.214  12.255   1.915  0.0762  0.1538  0.0102
 1658W        W18506   8.820   5.604   4.737 -0.2090  0.0507 -0.1930
 1659W        W18507   7.465  15.030  16.196  0.1723  0.1945 -0.1559
 1660W        W18508   3.173  15.711   0.494  0.1238 -0.2480 -0.1786
 1661W        W18509   1.092   9.008   2.877 -0.0645 -0.0920 -0.1157
 1662W        W18510  12.407  16.197   1.129 -0.3532 -0.2129 -0.0582
 1663W        W18511   6.093   0.541  13.521  0.2606 -0.2828 -0.2410
 1664W        W18512   9.515   3.117   3.297 -0.0269 -0.2294  0.4054
 1665W        W18513   2.127  17.838   3.996 -0.1482  0.0067 -0.1551
 1666W        W18514   8.419   1.059  11.981  0.0268  0.0989 -0.1972
 1667W        W18515   7.718  17.159  13.365 -0.0207  0.1018 -0.4651
 1668W        W18516   9.172   5.012  16.022 -0.0749 -0.1215  0.0850
 1669W        W18517  13.830  13.367   1.925 -0.1089  0.0831 -0.1131
 1670W        W18518   7.347   6.375  15.596 -0.0830  0.0462  0.2765
 1671W        W18519  14.728   9.539  14.822 -0.1088 -0.0981 -0.0626
 1672W        W18520  11.640   5.536  12.905 -0.1472 -0.0505 -0.0610
 1673W        W18521  14.514   1.761  15.617 -0.0341 -0.0635  0.1177
 1674W        W18522  15.644   5.601   4.654  0.2569 -0.0202 -0.0953
 1675W        W18523   0.858  17.652   0.454 -0.0806  0.1987  0.0215
 1676W        W18524  10.399   5.187   0.429 -0.2455 -0.1790  0.0463
 1677W        W18525   8.809  16.147   5.399 -0.2179  0.0310  0.1378
 1678W        W18526   4.648   4.369   5.117  0.1075 -0.2220  0.2357
 1679W        W18527  11.658  13.035  14.499 -0.0868 -0.1764  0.0945
 1680W        W18528  14.508  14.034   0.269 -0.1445 -0.0830  0.0981
 1681W        W18529   6.318  12.152   2.668  0.1487 -0.0108  0.0220
 1682W        W18530   4.633  12.862   1.027 -0.2445 -0.0158  0.0812
 1683W        W18531  11.798   5.714  15.357  0.2715  0.0239 -0.1722
 1684W        W18532   1.230   0.635   4.634 -0.1422  0.2058 -0.0800
 1685W        W18533  14.243   5.328   3.879 -0.1497  0.0095  0.2126
 1686W        W18534  11.571  14.489   2.989 -0.1726 -0.1725 -0.1966
 1687W        W18535   9.388  10.462   4.878  0.1334  0.2748 -0.1434
 1688W        W18536   3.749   6.562   4.495 -0.3669 -0.1227 -0.0674
 1689W        W18537  14.363   1.399   4.921  0.2001 -0.3537 -0.1442
 1690W        W18538   3.405   1.471   6.329 -0.0458 -0.1168 -0.0971
 1691W        W18539  11.804   4.315  11.637 -0.2714  0.1383 -0.1157
 1692W        W18540  15.385   7.352  10.770 -0.0583 -0.2987  0.3602
 1693W        W18541  14.799   5.660   0.078 -0.0528 -0.0572 -0.1344
 1694W        W18542   0.080  12.124  15.743 -0.2525 -0.2667 -0.0384
 1695W        W18543  12.266   9.733   4.559 -0.1768 -0.1571  0.1986
 1696W        W18544   7.768   8.311  10.354 -0.0415 -0.3298 -0.0167
 1697W        W18545   1.743   9.532  13.167  0.0320  0.2114 -0.2184
 1698W        W18546  16.811   7.920   3.670  0.0282  0.0645 -0.0365
 1699W        W18547   7.791  15.416   2.886  0.0447  0.0196 -0.0647
 1700W        W18548  13.767  16.449   1.209 -0.1028 -0.4823 -0.1273
 1701W        W18549   0.983  15.864  12.917  0.1840  0.2520  0.2566
 1702W        W18550  15.741   8.850  13.019  0.0388 -0.0243 -0.1665
 1703W        W18551   0.491  17.246  15.835  0.0305 -0.3118 -0.0046
 1704W        W18552  16.475  14.573   1.412  0.3195  0.2438  0.0444
 1705W        W18553   9.360  13.105  14.790  0.0921  0.0125  0.1992
 1706W        W18554  11.206   5.913   0.650 -0.1349  0.1314  0.3322
 1707W        W18555   4.428   8.221   4.160  0.2448  0.0282 -0.1238
 1708W        W18556   7.877   9.914  15.863  0.1174  0.0277 -0.5251
 1709W        W18557   9.115   5.684   4.098  0.1821  0.1062 -0.0192
 1710W        W18558   2.063   9.878   0.004 -0.2033 -0.2521  0.0696
 1711W        W18559  15.887  11.952   4.683  0.0940 -0.1946 -0.1419
 1712W        W18560   0.159  17.551  15.986  0.2235 -0.1324 -0.0208
 1713W        W18561   1.296  11.783  14.123 -0.0109 -0.4576 -0.0789
 1714W        W18562   0.688   5.820   2.954 -0.1149 -0.0712 -0.1624
 1715W        W18563  10.476   6.212   2.695 -0.0333  0.2295 -0.0591
 1716W        W18564  10.093   3.323  13.200  0.0422 -0.0043 -0.3471
 1717W        W18565  15.477  16.864   4.376  0.1444 -0.3648  0.0276
 1718W        W18566  11.672   3.858  12.848  0.0980 -0.0531 -0.0174
 1719W        W18567  11.128   9.299   3.116  0.2931  0.0375 -0.0902
 1720W        W18568  13.936  16.940   3.337 -0.1460 -0.0594  0.0049
 1721W        W18569   9.931   4.517   0.367 -0.2768 -0.1162 -0.2271
 1722W        W18570   4.768   5.487   2.259 -0.1046  0.2437  0.1787
 1723W        W18571   1.533   7.353  12.126 -0.2791 -0.0207  0.0750
 1724W        W18572   4.438   5.009   3.665 -0.0644 -0.1201 -0.0276
 1725W        W18573  16.365  14.212   3.760  0.1831 -0.1003 -0.4005
 1726W        W18574   7.462  14.769  15.422 -0.0269 -0.0004  0.0031
 1727W        W18575  10.638   0.314  10.374 -0.1873 -0.1245  0.1374
 1728W        W18576  13.890  14.499  16.243  0.2243 -0.1522 -0.0949
 1729W        W18577   2.467  17.874   3.171 -0.0909  0.0282  0.2161
 1730W        W18578   9.093   8.083   0.745 -0.1031 -0.0115 -0.1967
 1731W        W18579   4.460  10.710   4.662  0.1939 -0.1259 -0.1287
 1732W        W18580   5.360   2.553  14.204  0.0797  0.0762  0.1729
 1733W        W18581   0.607  13.266  13.938  0.2227 -0.1694 -0.1586
 1734W        W18582  14.268  10.881  14.892 -0.0489  0.0142  0.2836
 1735W        W18583   7.958  13.735   2.350  0.1607  0.1205  0.1757
 1736W        W18584   9.180   9.395  14.945  0.0610  0.0357  0.2959
 1737W        W18585   8.221   5.271  13.374  0.2621  0.0427  0.1515
 1738W        W18586   6.468   5.650   0.176  0.1069 -0.1424 -0.0312
 1739W        W18587   9.618  12.868   0.961  0.1424 -0.0490  0.2147
 1740W        W18588  14.725   5.894   2.725  0.1494 -0.1819  0.0360
 1741W        W18589   5.746   4.431  16.143  0.0470 -0.0825  0.1014
 1742W        W18590   7.464  10.090  12.018  0.2443  0.0788 -0.0522
 1743W        W18591  13.143   8.556   3.812  0.1940  0.1035 -0.1401
 1744W        W18592  15.204  13.506  12.368 -0.1196  0.2240  0.2168
 1745W        W18593  10.192   2.814  12.914  0.4156  0.1533  0.2282
 1746W        W18594   7.380  17.725   4.900  0.4086 -0.1485  0.0827
 1747W        W18595  14.383  13.710   4.516 -0.1943 -0.2177 -0.2274
 1748W        W18596   2.230   6.466  12.646  0.1524 -0.0843  0.0739
 1749W        W18597   2.846   7.272   1.043 -0.0603 -0.3506 -0.0347
 1750W        W18598  16.321   3.622  15.104 -0.4191 -0.3463  0.0828
 1751W        W18599   8.684  11.382   1.807 -0.2646  0.4799  0.3104
 1752W        W18600   6.882   8.067   5.682  0.2826  0.6360  0.0846
 1753W        W18601  14.561   8.764   1.431 -0.2336 -0.2171 -0.4668
 1754W        W18602   1.519  16.419   4.229 -0.3020  0.1398  0.2136
 1755W        W18603  14.999  14.818  14.057  0.2206  0.1969 -0.1017
 1756W        W18604  12.742   0.542   5.435 -0.2960  0.1435 -0.0456
 1757W        W18605  12.909   3.653   2.237 -0.1441 -0.0325  0.0627
 1758W        W18606  15.108   4.062   5.187 -0.2586 -0.0277  0.1490
 1759W        W18607   0.761   2.016  11.158  0.0866 -0.2218  0.2015
 1760W        W18608   4.475   6.373  13.643 -0.0366 -0.0213 -0.1134
 1761W        W18609   5.284   5.326   2.409 -0.2896 -0.0870  0.0103
 1762W        W18610   3.710   7.104  11.976 -0.0454 -0.1656 -0.2604
 1763W        W18611  17.609   6.252   1.497 -0.1419  0.0329  0.6746
 1764W        W18612  13.013  10.874   2.504  0.0619 -0.0005 -0.1467
 1765W        W18613  10.455   2.907  11.943  0.1276 -0.2047  0.2618
 1766W        W18614   4.529   6.942  13.472 -0.4423  0.0377  0.0601
 1767W        W18615  11.281   3.556  11.813 -0.1476  0.1100  0.1005
 1768W        W18616  14.948   2.657  15.582  0.1374  0.1784 -0.2778
 1769W        W18617   3.742  13.643   2.929 -0.0262 -0.2636 -0.0495
 1770W        W18618   3.566  11.110  11.741 -0.0149 -0.0773 -0.1377
 1771W        W18619   8.982   0.560   0.853 -0.1236  0.4741  0.2350
 1772W        W18620   6.862   0.601   5.010  0.1157 -0.1832 -0.0836
 1773W        W18621   8.601  16.165  13.949 -0.3784  0.2952 -0.1485
 1774W        W18622  11.465  13.194  11.346 -0.1191 -0.0930  0.0540
 1775W        W18623   5.289  15.100   5.832  0.1066  0.2889 -0.1599
 1776W        W18624   7.441   0.711   3.857 -0.0655  0.1208  0.0796
 1777W        W18625   6.813   8.617   1.365  0.1431 -0.0632  0.3402
 1778W        W18626  10.944   2.746   2.003 -0.0700 -0.2426  0.2160
 1779W        W18627  14.003   8.071  13.631 -0.1746  0.1818 -0.0905
 1780W        W18628  14.840   1.686   0.783 -0.0506 -0.0777 -0.1425
 1781W        W18629   7.211   0.888  13.491 -0.3713  0.1035  0.3054
 1782W        W18630  17.625   8.116  13.922  0.0247  0.2169  0.0579
 1783W        W18631  10.702   4.167   1.035 -0.4802 -0.1972 -0.0456
 1784W        W18632  16.983  11.079   3.770  0.1088  0.1672 -0.1493
 1785W        W18633   6.676   2.641  15.107  0.0540 -0.1067 -0.0675
 1786W        W18634   7.149   5.731   1.674  0.1140  0.1646 -0.2540
 1787W        W18635   3.270  11.993   5.127 -0.0278 -0.0444 -0.0043
 1788W        W18636  11.721  17.041  12.951 -0.1627  0.0086 -0.0897
 1789W        W18637  16.116  14.551   4.067 -0.0195 -0.0331 -0.2724
 1790W        W18638   0.907  10.409   4.451  0.1258  0.0001  0.1154
 1791W        W18639  11.092   0.547  11.881 -0.3643  0.2575  0.3036
 1792W        W18640  10.738   9.330   0.390 -0.2514  0.0701  0.3499
 1793W        W18641  14.365   8.951  13.345 -0.0170  0.0668 -0.1323
 1794W        W18642  11.020   5.040   3.150  0.0834 -0.0562 -0.2197
 1795W        W18643  13.723   7.762  13.271  0.0291 -0.2149 -0.0834
 1796W        W18644   0.433   2.853   4.355 -0.6050 -0.0665  0.1791
 1797W        W18645   3.723   8.830  12.432  0.0789  0.1182  0.0636
 1798W        W18646   6.928   4.374   2.044  0.0572  0.1365  0.0846
 1799W        W18647  11.483   3.010   1.098  0.0362 -0.1547 -0.0700
 1800W        W18648   2.635   1.107  11.907  0.2157 -0.2007 -0.0061
 1801W        W18649   7.649   7.023   0.444 -0.0217  0.0533 -0.0222
 1802W        W18650   1.077   2.665   2.278  0.0574  0.1821  0.0052
 1803W        W18651   4.668  13.242   1.871  0.1042 -0.1526  0.0918
 1804W        W18652   5.878  13.501   2.746  0.0564 -0.2697  0.0189
 1805W        W18653  12.722  11.894   1.324  0.1739  0.0075  0.1539
 1806W        W18654   9.322   2.446  14.748  0.1268 -0.0110  0.1056
 1807W        W18655  15.016  12.615  12.114 -0.1027  0.0340  0.1494
 1808W        W18656   7.642  16.098  14.474 -0.0520 -0.1613 -0.0385
 1809W        W18657   8.194  14.290  11.203  0.1938 -0.4262  0.1594
 1810W        W18658  15.463   0.120  13.634 -0.0091  0.0352  0.0973
 1811W        W18659   0.299  11.964  11.119  0.0974 -0.1023  0.0708
 1812W        W18660   8.227  14.576  14.007 -0.2493  0.0304 -0.2297
 1813W        W18661  12.495  10.768   2.611 -0.0874  0.3044  0.1447
 1814W        W18662  12.278   4.462   4.442  0.1804  0.2062 -0.0317
 1815W        W18663   0.075  16.787  15.629  0.1544 -0.1364  0.0738
 1816W        W18664  13.456  16.334  11.266  0.0811 -0.0732  0.0058
 1817W        W18665  12.976  14.325   1.078 -0.0264  0.3705  0.0481
 1818W        W18666   5.546   4.508   2.065 -0.1618  0.1049 -0.0605
 1819W        W18667   8.095  10.057  14.892 -0.1424  0.3002  0.0657
 1820W        W18668  17.334   0.777  15.090  0.2449 -0.0766  0.2777
 1821W        W18669  15.580   6.401  15.860  0.1198 -0.3018 -0.5176
 1822W        W18670   7.294  16.962  13.611  0.2114 -0.1382  0.1857
 1823W        W18671   4.227  11.932  13.944  0.0776  0.2358 -0.1302
 1824W        W18672  11.076   4.458   0.400 -0.1496  0.0085 -0.1879
 1825W        W18673  15.642   5.149   3.406  0.2443 -0.0052  0.0949
 1826W        W18674   4.614   6.800   3.954  0.2844 -0.2585 -0.1321
 1827W        W18675  13.667   6.862   1.577  0.1194 -0.0909  0.2916
 1828W        W18676  15.346  12.355  16.228 -0.0031  0.1342  0.1512
 1829W        W18677  10.012   7.274   5.307  0.1313  0.2612 -0.0762
 1830W        W18678   3.371  12.470   4.856  0.0772 -0.4360 -0.0422
 1831W        W18679   9.062   7.321   3.388  0.1345 -0.3657  0.0598
 1832W        W18680   4.895   5.649   5.204  0.2039 -0.1393 -0.4391
 1833W        W18681  12.762   2.739   5.001  0.1575 -0.1099 -0.0528
 1834W        W18682   0.532  16.009  11.955 -0.2453  0.0259 -0.0742
 1835W        W18683   2.020   0.512  12.124  0.0475  0.0178 -0.3790
 1836W        W18684   0.054  12.366   4.639 -0.0570 -0.0082  0.3232
 1837W        W18685  11.366  10.270   1.944  0.1644  0.1158 -0.1882
 1838W        W18686  16.805   6.853  13.921 -0.0666  0.0327  0.0241
 1839W        W18687   8.537   4.435  15.785 -0.3601 -0.1695 -0.0346
 1840W        W18688   3.270   1.657  14.137 -0.1015 -0.0478 -0.0731
 1841W        W18689   6.674   5.833  13.468 -0.3409 -0.2195 -0.1389
 1842W        W18690   0.967   1.227  11.786  0.1561 -0.1305 -0.0335
 1843W        W18691   5.829   3.658   1.344 -0.1761 -0.0314 -0.0851
 1844W        W18692  15.193  11.115  14.599  0.1209 -0.0477 -0.1546
 1845W        W18693   0.483   4.934  13.089 -0.3824 -0.1039 -0.2135
 1846W        W18694  16.746  12.880   3.674  0.1082  0.0905  0.1209
 1847W        W18695   7.262  12.274  14.155  0.3353 -0.1182  0.0658
 1848W        W18696   0.051   4.848  12.303  0.0840  0.0151 -0.2635
 1849W        W18697   9.645  15.368  10.506  0.2687 -0.1123 -0.0730
 1850W        W18698  17.838   0.929   4.722 -0.2092 -0.2100 -0.0933
 1851W        W18699   4.055   6.048   5.173  0.0941  0.0898 -0.2957
 1852W        W18700   0.202  15.270  11.319 -0.0568  0.3414  0.0383
 1853W        W18701   3.401   7.563   3.964 -0.1370 -0.1467 -0.0728
 1854W        W18702   5.469   9.647  16.120 -0.0633 -0.1243 -0.2939
 1855W        W18703   7.479   9.096  11.355  0.0838 -0.1889  0.2543
 1856W        W18704  10.804   2.593  14.102 -0.2590 -0.1191 -0.0561
 1857W        W18705  11.327   1.508   5.238  0.0028  0.0801 -0.1314
 1858W        W18706   0.239   8.468   2.595 -0.1765 -0.0697  0.1457
 1859W        W18707   8.456   7.123   2.082 -0.1206  0.1452  0.1873
 1860W        W18708   4.083  10.230   2.591 -0.1182 -0.0437 -0.0515
 1861W        W18709  11.380   4.695   5.090  0.0306 -0.0214 -0.2246
 1862W        W18710  11.884   8.148   4.563 -0.3917  0.3284  0.0698
 1863W        W18711   5.927   4.109   3.432 -0.2053  0.1017 -0.1278
 1864W        W18712  16.148  10.809  15.972  0.1584  0.1960  0.1778
 1865W        W18713   1.419   4.498  12.094  0.2834 -0.3985  0.1348
 1866W        W18714   7.795  12.154  15.690  0.1105  0.1086 -0.1478
 1867W        W18715  17.360   3.943   2.549 -0.1504 -0.0190  0.0820
 1868W        W18716   5.849   7.258  15.269  0.2804 -0.1814 -0.1303
 1869W        W18717   4.318   7.365   5.751 -0.1100  0.0522  0.3283
 1870W        W18718   2.258   7.475   5.138 -0.0464  0.0730 -0.1258
 1871W        W18719  15.344   2.004   1.635  0.3655 -0.3209  0.0829
 1872W        W18720  17.480  10.293   3.238 -0.2490  0.2152 -0.4395
 1873W        W18721   6.929  12.695  14.877  0.1539  0.0215  0.1561
 1874W        W18722  14.942  13.147  15.788 -0.0601 -0.3257  0.0596
 1875W        W18723   3.784  15.423   4.489 -0.1644 -0.0632  0.1843
 1876W        W18724  14.763   3.914   0.476 -0.0999 -0.0822 -0.1118
 1877W        W18725  13.892  15.384  14.804  0.0712  0.2233  0.0535
 1878W        W18726   7.186   4.372  16.161 -0.0696 -0.0755  0.1569
 1879W        W18727   8.285   1.318  13.125 -0.0563 -0.1042  0.0691
 1880W        W18728   1.014   0.933   1.015 -0.3683 -0.1025  0.0466
 1881W        W18729  16.861  10.667  13.247 -0.1412 -0.1643  0.0607
 1882W        W18730   2.604   7.347  11.789 -0.1349 -0.1156 -0.0833
 1883W        W18731   2.493  16.984   3.578 -0.3075  0.0609 -0.0756
 1884W        W18732  10.584  14.652   4.043  0.2856 -0.0271 -0.0740
 1885W        W18733   8.010   7.664   4.328  0.0626  0.2163  0.0074
 1886W        W18734   6.144   1.113   4.560  0.2472  0.0860  0.2731
 1887W        W18735  14.224   8.017   0.939 -0.2442  0.0668  0.1086
 1888W        W18736   5.059   8.743  11.887  0.0465 -0.2107  0.1805
 1889W        W18737   9.735   0.946   1.282 -0.1619 -0.3270  0.1807
 1890W        W18738  15.483   1.038  13.277 -0.1238  0.0743 -0.1483
 1891W        W18739   7.040   8.896  13.789 -0.2184 -0.0197 -0.1384
 1892W        W18740   2.753   5.814   3.693  0.0485  0.3339 -0.1119
 1893W        W18741   4.264   3.573   5.242  0.0900 -0.1877  0.0722
 1894W        W18742   8.729   1.387  14.649  0.4393 -0.0394 -0.0201
 1895W        W18743  15.518   5.396  16.120  0.2923 -0.0691  0.1232
 1896W        W18744   6.826   1.870   4.616 -0.0968 -0.2872  0.1509
 1897W        W18745   3.572   7.904   2.304 -0.0718 -0.2612  0.2799
 1898W        W18746  16.717   1.687  12.604  0.0072  0.0898  0.1327
 1899W        W18747   5.229   3.014  16.281  0.0497  0.3699  0.1336
 1900W        W18748  15.816  13.779  16.329 -0.1628 -0.0259  0.1288
 1901W        W18749   3.649   8.634   5.378  0.1266  0.1740 -0.3334
 1902W        W18750   0.161   3.372  16.315 -0.1297 -0.0897  0.0856
 1903W        W18751  11.259   4.996  15.657 -0.1321 -0.3212 -0.1029
 1904W        W18752   8.317  15.106  12.145 -0.2770  0.1621 -0.0139
 1905W        W18753   5.058   8.824  14.187 -0.1863 -0.0499  0.3488
 1906W        W18754  11.567  15.792  15.666 -0.2925 -0.0335  0.0822
 1907W        W18755   6.704   3.318   0.863 -0.1625  0.2615 -0.0855
 1908W        W18756  15.454   9.771   4.222  0.3066 -0.0965  0.1631
 1909W        W18757   5.334   1.306  15.505 -0.1373 -0.4422 -0.0122
 1910W        W18758   5.773  15.978  14.249 -0.0232  0.3787 -0.3176
 1911W        W18759   4.354   0.924  15.328 -0.0823  0.0019 -0.2090
 1912W        W18760   7.628  17.051   2.505  0.0381  0.3343  0.1331
 1913W        W18761  15.410  11.527  16.279 -0.2650  0.1374  0.0758
 1914W        W18762   1.281   0.732  15.977 -0.1977 -0.0881 -0.2395
 1915W        W18763   6.412   4.776  16.338  0.1325 -0.4303  0.3566
 1916W        W18764  14.382   8.906   5.143 -0.1311  0.2535  0.2525
 1917W        W18765  14.284   8.461  13.261  0.1971  0.1482 -0.0902
 1918W        W18766   5.567   1.917  11.727  0.0088 -0.1822  0.0292
 1919W        W18767   1.872  16.219   4.455  0.1997 -0.0400  0.0708
 1920W        W18768  11.733   9.251   1.425 -0.1913  0.3896  0.0043
 1921W        W18769   3.886  10.198   3.476 -0.2993  0.0813  0.0440
 1922W        W18770   9.174  13.240   6.418 -0.0156  0.0432  0.0431
 1923W        W18771   9.762  15.710  15.288  0.1651  0.1754  0.0962
 1924W        W18772   1.098   0.363  14.935 -0.1193 -0.2313  0.0786
 1925W        W18773   5.530  10.805   3.123  0.2909  0.0625  0.2885
 1926W        W18774   4.576   1.018   2.109 -0.1429  0.0927 -0.1843
 1927W        W18775  15.173   1.170  14.313 -0.1276 -0.2359 -0.3447
 1928W        W18776  10.854  11.091  14.591  0.0742 -0.0636  0.3408
 1929W        W18777  13.733   4.789   2.632 -0.0983 -0.0176 -0.2693
 1930W        W18778  14.834   2.495  11.653  0.1966  0.1111 -0.0274
 1931W        W18779   0.651   6.133  12.924  0.1320 -0.2556 -0.0339
 1932W        W18780   1.553  12.703  12.897 -0.0883  0.2243 -0.0110
 1933W        W18781   9.085  16.802  12.219  0.0673 -0.1735 -0.3247
 1934W        W18782  13.458   5.277  15.535 -0.0252 -0.0065  0.0221
 1935W        W18783  13.029   5.672   0.646  0.0268 -0.0148  0.0447
 1936W        W18784  16.893  16.481  13.142 -0.2277 -0.0697 -0.4778
 1937W        W18785  13.590  17.714   0.516 -0.0496 -0.0347  0.1511
 1938W        W18786   0.247  13.179   2.796  0.1304  0.0511  0.2407
 1939W        W18787   0.338   4.120  11.708 -0.0293  0.1373 -0.2338
 1940W        W18788  10.155   8.053  12.029 -0.0963 -0.2616  0.1183
 1941W        W18789  11.110  10.917   4.622 -0.2202 -0.2174  0.0307
 1942W        W18790   0.271  12.896   4.846  0.0194 -0.0599  0.2615
 1943W        W18791   6.247   6.087   0.085  0.0091  0.1885  0.2912
 1944W        W18792  13.075  15.427  14.903  0.1655 -0.2184 -0.0919
 1945W        W18793  17.687   3.368   0.211 -0.0547  0.1257 -0.0956
 1946W        W18794  11.689  15.232   3.610 -0.0332 -0.1486  0.1092
 1947W        W18795  15.104  14.608   1.988  0.2368  0.2736 -0.1332
 1948W        W18796   5.405   0.576   0.506  0.0516  0.0750 -0.1180
 1949W        W18797   4.427  15.370   1.243  0.0174  0.0535  0.1287
 1950W        W18798   8.393  15.815   5.237 -0.0307  0.0482 -0.2437
 1951W        W18799  16.011   7.974  12.898  0.1024 -0.1503 -0.1071
 1952W        W18800   3.503  13.731   4.690 -0.0768 -0.0788 -0.0238
 1953W        W18801   6.739   5.234  13.321 -0.0991  0.1419  0.0382
 1954W        W18802   2.606   4.846   3.835 -0.1188  0.3291 -0.0879
 1955W        W18803   1.291   8.276   4.800  0.1907  0.1738  0.0656
 1956W        W18804   6.363   9.959   5.960  0.0987 -0.1547 -0.1498
 1957W        W18805   5.635   9.279   5.253  0.1157 -0.0989 -0.2773
 1958W        W18806   3.928  17.246  13.106 -0.0718  0.1231 -0.0587
 1959W        W18807  16.906   2.325  13.765  0.0520 -0.0464 -0.0114
 1960W        W18808  15.062   6.432  14.206 -0.1595 -0.4507 -0.0251
 1961W        W18809   4.892   1.101  15.739 -0.1272 -0.1857 -0.0336
 1962W        W18810   7.135  13.193   1.319  0.0176  0.4473 -0.1311
 1963W        W18811   2.412  10.392   5.837  0.2748  0.1483  0.0454
 1964W        W18812   5.078   3.374   1.409 -0.1328  0.1556 -0.4313
 1965W        W18813  12.939  10.073   5.093  0.0528  0.0718  0.1003
 1966W        W18814  12.324  11.576   0.538 -0.1620 -0.1127  0.0305
 1967W        W18815   7.052   4.495  13.943  0.2801  0.1110  0.1337
 1968W        W18816   9.672   9.831  12.560  0.1036  0.0187 -0.1377
 1969W        W18817   7.689   3.950   0.995 -0.3108 -0.1128  0.0320
 1970W        W18818  15.672  11.090   4.743 -0.1229  0.1562 -0.0925
 1971W        W18819  15.215   7.601   0.875  0.0461  0.1687 -0.0637
 1972W        W18820  11.431  11.216   1.465 -0.0940 -0.1944  0.1210
 1973W        W18821  13.370   1.462  12.124  0.0421  0.2283  0.0191
 1974W        W18822  13.437  10.800   4.699 -0.0939  0.2805 -0.2376
 1975W        W18823   0.137   5.841   0.882 -0.0554  0.1082 -0.0609
 1976W        W18824  13.640   3.688  12.011 -0.0352  0.1752 -0.2451
 1977W        W18825   3.558   9.140   1.721  0.1751 -0.1447 -0.1148
 1978W        W18826  17.135   6.824   1.716 -0.1218  0.0981 -0.0395
 1979W        W18827  14.381   0.372   0.819  0.2291  0.1446 -0.2376
 1980W        W18828  10.585   9.531  13.510  0.0235  0.3992 -0.3099
 1981W        W18829  10.860   3.452  15.444  0.1189  0.0999  0.1728
 1982W        W18830  14.553   8.302   3.850  0.0559 -0.1418  0.1927
 1983W        W18831   6.275   4.748  15.688  0.1658 -0.2233  0.3485
 1984W        W18832  14.205   2.874   3.495 -0.0067  0.0522 -0.2332
 1985W        W18833  12.745  10.894  13.563 -0.2994 -0.1076 -0.2037
 1986W        W18834  15.615  14.979   1.206 -0.1416  0.2248 -0.0280
 1987W        W18835   1.254  15.344   4.913 -0.0154 -0.1792 -0.0162
 1988W        W18836   3.521   1.135  12.949 -0.0343  0.1082  0.1625
 1989W        W18837   0.298  17.476  12.355  0.2345  0.0727  0.1235
 1990W        W18838   4.776   9.159   4.152  0.2232 -0.0250 -0.1571
 1991W        W18839   0.888  12.769   4.128  0.1452  0.0474  0.0501
 1992W        W18840  16.725   6.111   4.734 -0.1241 -0.1300 -0.3430
 1993W        W18841  16.065   5.045   2.212 -0.1958 -0.0432 -0.2533
 1994W        W18842   7.310   4.166   3.855  0.0573  0.3052 -0.2952
 1995W        W18843  17.777  13.872  11.169 -0.2072 -0.1069  0.1942
 1996W        W18844   0.731  12.153  14.796 -0.2480 -0.1305 -0.2362
 1997W        W18845   8.199  16.132  16.288 -0.0852  0.0829 -0.0353
 1998W        W18846   3.216   4.184  14.015 -0.1263  0.1233  0.1675
 1999W        W18847   8.100   4.947  13.801  0.1007  0.1310  0.0990
 2000W        W18848   8.567   3.903  15.658 -0.0865  0.0300  0.1976
 2001W        W18849  13.167   5.402   2.058  0.1247  0.2520  0.0828
 2002W        W18850   1.392   6.800  13.056 -0.1933 -0.0828 -0.3296
 2003W        W18851   3.042   0.252   0.838 -0.0956 -0.0549  0.3604
 2004W        W18852  15.571  11.579  13.145 -0.2672  0.3036 -0.0280
 2005W        W18853   3.069  13.797   2.452 -0.1859  0.0244  0.1600
 2006W        W18854  14.209   2.126   4.629 -0.2058  0.0751 -0.0601
 2007W        W18855   3.123   7.175   1.905  0.0057  0.0324  0.0551
 2008W        W18856  17.186   8.651   4.261  0.1020 -0.1078 -0.0962
 2009W        W18857   4.262  11.730  11.363 -0.3745  0.1801  0.1778
 2010W        W18858  17.181   7.329  12.528 -0.0697 -0.2099  0.2489
 2011W        W18859   3.890   4.511  11.419  0.1019 -0.3424  0.0037
 2012W        W18860   3.286  14.938   2.345  0.2671  0.1234 -0.0032
 2013W        W18861  11.619  15.234   2.699  0.1268 -0.0656 -0.2877
 2014W        W18862   6.426   9.754  12.328 -0.2503 -0.1740 -0.0300
 2015W        W18863  13.773  14.974  14.327 -0.1037  0.0296 -0.3308
 2016W        W18864   3.025  10.015  13.692  0.1499  0.1183 -0.2516
 2017W        W18865  12.281  16.314  15.118 -0.0918 -0.1983  0.2701
 2018W        W18866  10.742  16.783  14.228 -0.0179  0.1421 -0.0423
 2019W        W18867  13.301  11.436  14.026  0.3175  0.0824  0.0751
 2020W        W18868   5.875  16.661   0.401  0.1542 -0.1740  0.0910
 2021W        W18869   6.612   0.102   2.344  0.0164 -0.0581 -0.0954
 2022W        W18870   9.344   2.208   0.577 -0.1754 -0.1363  0.1536
 2023W        W18871   2.259  13.299   3.852  0.0343  0.3912 -0.0595
 2024W        W18872   1.681   4.221   0.152 -0.2959  0.3887  0.0471
 2025W        W18873   6.389   9.323   1.489 -0.1176  0.2402 -0.0605
 2026W        W18874  14.410   6.885   5.759 -0.1732  0.0142  0.1678
 2027W        W18875   1.556  16.246   1.374 -0.2725 -0.0630  0.2462
 2028W        W18876  13.472   6.362  15.969  0.0707 -0.0611 -0.3823
 2029W        W18877  17.019   7.527   3.333 -0.0345  0.0213 -0.0377
 2030W        W18878   7.705  13.332   5.269 -0.1142  0.3751  0.3828
 2031W        W18879   5.797  13.205  13.947 -0.2802  0.0641  0.2263
 2032W        W18880  12.377   6.093   1.813 -0.0208 -0.0999 -0.1935
 2033W        W18881   2.122  10.641  15.935 -0.1967 -0.1385 -0.2654
 2034W        W18882  15.112   2.819   1.922 -0.0029 -0.3635  0.1707
 2035W        W18883  11.515  13.155   4.459 -0.2508  0.0025 -0.2335
 2036W        W18884   1.171  10.639  15.722 -0.0399 -0.0687 -0.1093
 2037W        W18885  13.729  10.720  16.390 -0.0211 -0.0590 -0.2117
 2038W        W18886   7.890  13.812   0.214  0.2613 -0.0803 -0.0241
 2039W        W18887   3.961  16.675  12.984 -0.1407 -0.0513  0.5004
 2040W        W18888  10.718   8.215  15.873  0.1968  0.2182  0.0656
 2041W        W18889   9.298  13.902   0.223 -0.0026  0.0836 -0.1847
 2042W        W18890  10.038  15.583   3.413 -0.0111 -0.0649 -0.1436
 2043W        W18891   5.902  13.664  12.374 -0.1101  0.2529 -0.0370
 2044W        W18892  17.607   2.309   2.809  0.0364  0.6131 -0.1109
 2045W        W18893   4.360   1.902  12.357 -0.0233 -0.0796 -0.1685
 2046W        W18894  15.429  15.073   3.639  0.1186  0.0421 -0.2785
 2047W        W18895  10.898  10.614   0.746 -0.2800 -0.0606 -0.0730
 2048W        W18896   9.411  12.998   5.600 -0.1709 -0.2375 -0.2271
 2049W        W18897  16.981  14.559   3.633 -0.2589  0.0602  0.2346
 2050W        W18898   7.892  10.743  14.896  0.1688 -0.0621  0.2204
 2051W        W18899  16.642   7.819   3.136 -0.1210 -0.0415 -0.0342
 2052W        W18900  16.649   8.116   2.740 -0.2884  0.0109  0.0697
 2053W        W18901   2.631   8.511  16.020 -0.2850 -0.0146 -0.0962
 2054W        W18902   2.342   8.507  14.344 -0.1792 -0.1546 -0.0082
 2055W        W18903   2.872   0.431  14.091 -0.1584 -0.0473  0.2445
 2056W        W18904  10.478   8.528   2.130  0.1083  0.0238  0.1648
 2057W        W18905  14.988   9.041  14.000  0.3840  0.1234 -0.3695
 2058W        W18906   7.697   6.158   4.107  0.0098  0.1017  0.1821
 2059W        W18907   1.988   6.228   4.262 -0.2776 -0.3020  0.1183
 2060W        W18908  12.308   8.389  12.791 -0.0300 -0.0115  0.1166
 2061W        W18909  12.133   3.558  14.875  0.0565  0.0609  0.0098
 2062W        W18910   7.014  16.043   2.834  0.0991 -0.0600  0.1427
 2063W        W18911  16.739  14.740  12.664  0.2046 -0.0529 -0.0659
 2064W        W18912  10.721   1.205  12.295  0.2202  0.0274  0.1714
 2065W        W18913   2.418  14.252  11.432  0.3349  0.1290 -0.1419
 2066W        W18914  13.813   3.360  15.167 -0.0098 -0.3115 -0.1462
 2067W        W18915   1.044  12.112   3.578  0.1994  0.1711 -0.2655
 2068W        W18916  14.841  13.657  15.871  0.3389  0.0607  0.0055
 2069W        W18917   2.122   1.943   1.705 -0.1095  0.2159  0.1015
 2070W        W18918  13.490   8.057   1.730 -0.0849  0.0221 -0.0984
 2071W        W18919   3.568  10.709   5.683  0.0010 -0.0722  0.1099
 2072W        W18920  10.846  11.436   5.269  0.0775  0.1626 -0.0776
 2073W        W18921   5.844   6.417  12.155 -0.2976  0.2333  0.0910
 2074W        W18922   5.466   0.205   6.236 -0.1552  0.1677 -0.0666
 2075W        W18923   1.924  14.486   0.015 -0.1988 -0.0204  0.0439
 2076W        W18924  16.704   8.634  14.556 -0.0374 -0.1414  0.0940
 2077W        W18925  12.453  10.688   5.014 -0.1068 -0.2762  0.4656
 2078W        W18926  12.190   1.552   1.449  0.2892  0.1442 -0.1897
 2079W        W18927  16.277   2.419   1.316 -0.0484 -0.3795 -0.1133
 2080W        W18928  13.034   9.001   1.656 -0.2395 -0.1774 -0.0532
 2081W        W18929   4.206   3.220  15.245 -0.0742  0.1501 -0.2353
 2082W        W18930  15.608   3.128  13.404  0.0098  0.2113  0.1609
 2083W        W18931  14.901  17.184  11.634  0.1140 -0.1276 -0.3002
 2084W        W18932   5.391  13.947  16.177 -0.0391 -0.1890  0.1148
 2085W        W18933   7.007   9.387  13.837  0.1984  0.0782 -0.0190
 2086W        W18934  14.220  16.005   0.527 -0.1007  0.0920 -0.1640
 2087W        W18935   6.549   3.074  15.811  0.2150  0.0429  0.0055
 2088W        W18936  12.250   8.513  15.198 -0.1700 -0.2698  0.0086
 2089W        W18937  13.182   4.833   0.330 -0.0487 -0.2305  0.4082
 2090W        W18938  13.801   6.695  14.290  0.2412  0.0160 -0.2471
 2091W        W18939  17.580  13.378  15.953 -0.0365 -0.1661  0.2396
 2092W        W18940  11.323  10.166  13.671  0.1857  0.4863  0.4772
 2093W        W18941   5.600   4.356  11.820 -0.1192  0.0864 -0.1636
 2094W        W18942   6.928   7.720   1.625 -0.2230 -0.0394 -0.0589
 2095W        W18943  10.763  10.272   5.081 -0.0026 -0.2368 -0.0505
 2096W        W18944   1.983   9.763   3.838  0.0064 -0.0905  0.1739
 2097W        W18945   0.506  15.530   2.428 -0.0065  0.2181 -0.2414
 2098W        W18946   3.431   7.572  12.077  0.2898 -0.0814 -0.0767
 2099W        W18947  15.284   1.063   3.941  0.0439  0.0225 -0.1020
 2100W        W18948  16.632  15.393  13.590 -0.2929 -0.0763  0.0765
 2101W        W18949   3.529   2.059  11.436  0.1002  0.3199  0.2182
 2102W        W18950   8.173  17.219  14.892  0.0360 -0.0243  0.2754
 2103W        W18951   3.063   2.233   1.501  0.0922  0.1837 -0.2364
 2104W        W18952   3.554  16.226   2.765  0.4020  0.0814  0.1359
 2105W        W18953  17.677  17.793  11.366 -0.2109 -0.2421 -0.0034
 2106W        W18954  12.433  12.509  12.756 -0.2792  0.0896 -0.1174
 2107W        W18955   0.698  13.650   0.174 -0.2422 -0.0152 -0.0611
 2108W        W18956   9.037  12.721  15.921  0.1117  0.0217 -0.2401
 2109W        W18957   2.450  11.558  16.190  0.1038 -0.2677  0.2254
 2110W        W18958   8.783  11.959   5.484  0.0097 -0.0784  0.2664
 2111W        W18959  12.993   8.412  12.385  0.0045 -0.2632 -0.4295
 2112W        W18960   5.495   4.345   4.489  0.1010  0.0463  0.1125
 2113W        W18961   1.568   3.583  15.981 -0.0250  0.1517  0.1543
 2114W        W18962   3.994   4.232   0.136  0.1881 -0.0316 -0.0505
 2115W        W18963   0.863   4.793   1.581 -0.0423 -0.0280  0.2550
 2116W        W18964  14.997   8.187   2.170 -0.1603  0.4331  0.0808
 2117W        W18965  16.395   9.558   2.136 -0.0419 -0.0976 -0.0861
 2118W        W18966  14.516   5.894  15.363 -0.1556  0.3831 -0.2088
 2119W        W18967   0.461  10.226  15.716  0.2420 -0.1653  0.0797
 2120W        W18968  12.368   5.035   3.102 -0.3715  0.0287  0.0848
 2121W        W18969   6.262  13.348  15.479 -0.2984  0.0408  0.0101
 2122W        W18970   7.776  10.384  15.692 -0.1335 -0.0176 -0.0436
 2123W        W18971   7.268  12.669   4.714  0.0482  0.4017 -0.0099
 2124W        W18972   7.843   1.799  14.767  0.1229 -0.2471  0.2049
 2125W        W18973   6.240   2.591  13.448  0.1732  0.2964  0.0496
 2126W        W18974   6.485   5.348  15.029  0.0180 -0.4426  0.1587
 2127W        W18975  17.389  10.587   0.233 -0.0031 -0.1485  0.2958
 2128W        W18976  12.682   2.394   0.552  0.2305  0.3110 -0.1331
 2129W        W18977   4.607  14.381   5.179 -0.0863 -0.0772  0.0347
 2130W        W18978  13.373   4.013  15.350  0.1386  0.0034 -0.0274
 2131W        W18979  11.354   4.657   4.399 -0.0132  0.1557 -0.1699
 2132W        W18980   8.388   7.833   1.287 -0.0213 -0.1675 -0.1600
 2133W        W18981  13.327  15.520   2.108 -0.0635  0.2312 -0.1615
 2134W        W18982   1.513   0.644   3.758  0.0682  0.0664  0.0968
 2135W        W18983   8.765  12.432  14.495 -0.1216  0.2044  0.2444
 2136W        W18984   5.409  13.336   4.476 -0.0694  0.1097 -0.1733
 2137W        W18985  11.302   2.375   5.149  0.1024  0.1293  0.2151
 2138W        W18986  16.444   2.791  12.098  0.0228  0.0101  0.1349
 2139W        W18987   2.312   0.574   1.707  0.1297 -0.2531  0.4750
 2140W        W18988   9.223  17.111  11.711  0.2490 -0.2430 -0.1424
 2141W        W18989   0.870   8.120   1.597 -0.1516  0.3209 -0.1633
 2142W        W18990  12.355   6.909  12.867  0.0646 -0.2825  0.0713
 2143W        W18991  11.822   7.719  13.844  0.0801 -0.2445  0.0881
 2144W        W18992   2.773   8.282  14.436  0.3082 -0.1222  0.1133
 2145W        W18993  12.859   5.293  13.342  0.1264 -0.2093 -0.3127
 2146W        W18994  16.224   7.261  10.280 -0.1334 -0.1441  0.4280
 2147W        W18995   9.153   0.932   4.566 -0.0292 -0.1098  0.1486
 2148W        W18996   4.537  15.965   3.390 -0.0924 -0.2610  0.3543
 2149W        W18997   1.998   8.189   3.967 -0.0506  0.1383 -0.0656
 2150W        W18998  13.524  15.679   3.015  0.2034 -0.1809  0.1839
 2151W        W18999   0.695   3.352   2.536  0.1892 -0.0007 -0.2690
 2152W        W19000   1.011  12.761   5.452 -0.0699 -0.3239 -0.3023
 2153W        W19001   8.038   5.625   0.092  0.1587 -0.3355 -0.0277
 2154W        W19002  10.276  10.253   3.394 -0.3380  0.1751 -0.2310
 2155W        W19003  12.302   3.124  13.643 -0.1051  0.1208  0.2495
 2156W        W19004   7.678   2.732  14.269  0.0097 -0.0923  0.0609
 2157W        W19005  13.704   2.098  16.141 -0.1678  0.0854  0.2650
 2158W        W19006   9.684   0.755   5.039  0.0915 -0.2612  0.1200
 2159W        W19007   3.580   2.925   4.840  0.0195 -0.1130  0.0968
 2160W        W19008  10.691  15.040  12.287 -0.0395 -0.0125 -0.0271
 2161W        W19009  13.115  11.670   1.960  0.1065 -0.0318 -0.0578
 2162W        W19010  10.310  17.789  16.075 -0.1866 -0.1529  0.1541
 2163W        W19011   7.691   6.519  11.185 -0.1073  0.2402  0.0399
 2164W        W19012  11.870  12.943  15.535 -0.0740 -0.0019 -0.2441
 2165W        W19013  12.311   1.751  15.652  0.0251 -0.1324  0.0709
 2166W        W19014   6.356  12.147  12.334 -0.0842 -0.0012  0.0368
 2167W        W19015   9.355   7.873   2.799 -0.2189  0.2403  0.2807
 2168W        W19016   4.182  14.313  13.776  0.2394 -0.0961 -0.1073
 2169W        W19017  11.048  16.573  16.105 -0.2038  0.2766 -0.0858
 2170W        W19018   8.654   7.188  12.273  0.0001 -0.2481  0.0607
 2171W        W19019   6.196  11.820   0.184 -0.0481 -0.0913  0.2042
 2172W        W19020   5.340   5.061   4.263 -0.2603 -0.0837 -0.0440
 2173W        W19021  15.977   0.553   3.230 -0.3175  0.1696  0.0437
 2174W        W19022  16.843   0.906  13.269 -0.3302 -0.4245  0.2668
 2175W        W19023  14.759   7.097   4.404  0.0091 -0.1453  0.0168
 2176W        W19024  13.212  14.660  13.655 -0.2206 -0.0494  0.1468
 2177W        W19025  17.743  13.930  13.683  0.4186  0.0853  0.2215
 2178W        W19026   7.279  10.494  15.481 -0.1647 -0.0252  0.0460
 2179W        W19027  12.838   6.421   3.748  0.1266 -0.2018  0.1196
 2180W        W19028   6.907  17.232   1.228  0.2666  0.2183 -0.1071
 2181W        W19029   4.823  15.732  14.058 -0.1098 -0.0666  0.1194
 2182W        W19030  13.017  14.410  12.258 -0.0487  0.0828 -0.1573
 2183W        W19031   1.422   7.719  13.618  0.0274  0.1539  0.1538
 2184W        W19032   3.729   0.391  11.905  0.2869  0.0279  0.0211
 2185W        W19033   8.838   3.805  14.642 -0.0827  0.2882  0.1459
 2186W        W19034  12.354  16.779  16.442  0.1053 -0.1701  0.0868
 2187W        W19035   6.851   8.104  13.333  0.0794  0.0961 -0.1845
 2188W        W19036   1.327  16.371   1.803  0.0756 -0.3816  0.1270
 2189W        W19037   5.286   4.994   5.562 -0.0574  0.0787  0.2751
 2190W        W19038   3.260   2.203  13.100 -0.0894 -0.0467  0.0253
 2191W        W19039  15.274   2.412  13.727 -0.0212  0.0902 -0.2624
 2192W        W19040  12.275  16.641   4.445  0.1522 -0.2274 -0.1910
 2193W        W19041  13.434  16.362  13.222  0.0535  0.0778 -0.0169
 2194W        W19042   4.427   9.909   0.954 -0.0550  0.0013  0.1773
 2195W        W19043   2.410  11.140  15.965  0.1617  0.2626  0.1952
 2196W        W19044  11.146  10.657   2.216  0.0315 -0.0832 -0.0962
 2197W        W19045  17.171  11.051   2.110  0.0390 -0.2108  0.0785
 2198W        W19046  17.356   4.861   2.042  0.1378 -0.0225 -0.0833
 2199W        W19047   2.581   5.115   2.441 -0.1411 -0.0345  0.1366
 2200W        W19048  11.708   2.125  12.416  0.1680  0.0532 -0.2316
 2201W        W19049  12.059   0.493  14.889  0.1094  0.0269 -0.4234
 2202W        W19050  12.518   0.630  14.978  0.0282  0.3237  0.3816
 2203W        W19051   8.109   1.820   5.184  0.1834 -0.2042 -0.2073
 2204W        W19052   0.336   6.561  13.318 -0.1929 -0.0742 -0.2865
 2205W        W19053   6.014  16.949  14.512  0.4605  0.1680 -0.1457
 2206W        W19054  10.585  14.068  14.155  0.1526  0.1547  0.1628
 2207W        W19055   3.667  14.455  11.463  0.0311 -0.3183 -0.2849
 2208W        W19056   2.763  14.229   1.091  0.2838  0.2033 -0.0844
 2209W        W19057  12.069   0.925  12.840  0.3062  0.3414 -0.1309
 2210W        W19058   4.493  10.852  11.516 -0.3154  0.3899  0.2739
 2211W        W19059  11.789   7.645  14.954  0.1553  0.0618 -0.0054
 2212W        W19060   0.785   2.388  15.813 -0.1796  0.1577  0.0554
 2213W        W19061  16.980  17.089   1.216 -0.0235 -0.0826  0.0381
 2214W        W19062   4.189   4.078  14.526  0.4027 -0.1445  0.3680
 2215W        W19063   2.118  11.832  14.946 -0.1696  0.0040  0.0979
 2216W        W19064  11.295   5.104   0.758 -0.0224  0.2262  0.0817
 2217W        W19065   2.557  17.225   5.359 -0.0911 -0.1651  0.1663
 2218W        W19066   5.622  16.930   2.289  0.0213 -0.1431  0.1944
 2219W        W19067  11.158  13.995  10.553  0.0117  0.2988  0.3049
 2220W        W19068   4.462  14.073  16.114 -0.1221  0.2455 -0.2930
 2221W        W19069  11.934  10.153  12.436  0.4368 -0.0485  0.1459
 2222W        W19070  16.294   5.679  12.018 -0.1853  0.3382  0.2716
 2223W        W19071   7.745   1.635   4.679  0.2208 -0.0566  0.0754
 2224W        W19072   2.760  15.963   2.619 -0.0690 -0.2316 -0.0994
 2225W        W19073   4.155  10.767   1.337 -0.2218  0.1066 -0.1794
 2226W        W19074   8.471  12.513  16.128 -0.0565  0.0364 -0.2935
 2227W        W19075   2.904  12.237  10.285  0.1546 -0.0166 -0.1019
 2228W        W19076   2.287   9.020  14.366  0.0210 -0.1351 -0.0245
 2229W        W19077   0.989   8.948  16.135  0.1261 -0.0155 -0.0054
 2230W        W19078   9.244   0.438   3.494 -0.1041  0.1263  0.1767
 2231W        W19079  10.486   0.613  13.190 -0.0019 -0.1132 -0.1070
 2232W        W19080  10.962   9.220  12.364 -0.1029 -0.1412  0.2623
 2233W        W19081  14.527  13.696   3.670 -0.1479 -0.1841  0.0514
 2234W        W19082  12.472   3.439   3.072  0.0521  0.1008  0.0292
 2235W        W19083   2.803  13.856  14.282 -0.1098 -0.2420  0.0120
 2236W        W19084   6.996   1.303  15.309 -0.3538  0.0804  0.2475
 2237W        W19085   8.022   8.401  15.693  0.2212 -0.1656  0.4364
 2238W        W19086   6.863  16.960   0.830 -0.1305  0.0329 -0.1771
 2239W        W19087   7.867  11.604  15.903  0.0814  0.1286 -0.5466
 2240W        W19088  14.740  10.714   1.693 -0.0913  0.2637  0.1536
 2241W        W19089   8.535   4.004   3.239  0.2802  0.3043 -0.0098
 2242W        W19090   7.910  17.633  14.773 -0.0121 -0.0389  0.3937
 2243W        W19091  11.224  10.986  16.054 -0.2305 -0.0987 -0.1826
 2244W        W19092   7.496  15.593  12.428 -0.0699 -0.1400 -0.2170
 2245W        W19093   5.221  12.034  14.587 -0.2798  0.0271 -0.0720
 2246W        W19094  14.836   6.115  15.633  0.0499  0.4287 -0.2563
 2247W        W19095  13.555  10.995   4.243  0.0276 -0.4391  0.1934
 2248W        W19096   5.849   7.339   2.299 -0.0468  0.0903 -0.2326
 2249W        W19097   9.142   5.149  13.278 -0.2545  0.2937 -0.0547
 2250W        W19098  17.159  15.492  12.173 -0.0813  0.1682  0.1535
 2251W        W19099   9.612   7.409  10.495 -0.0278 -0.4835 -0.1068
 2252W        W19100  13.874  12.515   0.872  0.1268 -0.1072 -0.3980
 2253W        W19101  12.610   0.185  14.698  0.2973 -0.0411  0.3255
 2254W        W19102   1.546  12.569  10.880 -0.0849  0.1418 -0.0427
 2255W        W19103  16.418  11.119  11.279  0.1206 -0.2875 -0.1889
 2256W        W19104  10.885  12.971   4.795  0.2733  0.1946  0.1791
 2257W        W19105   3.768   1.646   1.075 -0.2285  0.1788  0.1006
 2258W        W19106   5.273  17.611  13.142 -0.1556  0.0245 -0.4782
 2259W        W19107  13.200  13.237  12.590 -0.0306  0.2721  0.1320
 2260W        W19108  17.527   2.025   0.237 -0.0859 -0.2423 -0.1039
 2261W        W19109   8.378  12.828  14.410  0.2510  0.3224  0.2153
 2262W        W19110  11.053   5.634  11.938 -0.0184  0.2736 -0.2235
 2263W        W19111  10.802  15.928  16.055  0.2478  0.2180 -0.0691
 2264W        W19112  11.253   4.894   0.244 -0.1609  0.1375  0.0603
 2265W        W19113  17.839   7.886   2.458 -0.0870  0.0900  0.2348
 2266W        W19114   1.464   6.134   2.483 -0.1497  0.0552  0.2176
 2267W        W19115   3.888   1.760   4.046 -0.0513  0.0080  0.0706
 2268W        W19116  17.048  10.341  11.862 -0.0404  0.0469 -0.2669
 2269W        W19117   2.963   3.756  13.756  0.1213 -0.0625  0.1202
 2270W        W19118  13.247  17.110  12.106 -0.1514 -0.1500 -0.2314
 2271W        W19119   0.033  11.117  15.364  0.1026  0.0316 -0.1844
 2272W        W19120   1.834   5.852   3.444 -0.0194 -0.2787 -0.0487
 2273W        W19121  13.141  15.310   2.608 -0.2235 -0.0115 -0.2287
 2274W        W19122  11.902   9.096  14.485 -0.0457 -0.0197 -0.3266
 2275W        W19123  10.595   7.559   2.133 -0.0836  0.0501  0.0228
 2276W        W19124  10.304  10.394  14.998 -0.1983 -0.0705 -0.3310
 2277W        W19125   4.802   4.859  14.685 -0.0372 -0.1447 -0.2019
 2278W        W19126   4.589   4.056  13.025  0.2406  0.1438  0.0385
 2279W        W19127   7.005   9.016  11.450  0.1507 -0.0369  0.0307
 2280W        W19128  15.449  11.796  11.578  0.2511  0.0321  0.1037
 2281W        W19129  11.017   5.438   5.216  0.2998 -0.0355  0.0321
 2282W        W19130   1.055   3.881   0.740 -0.1898  0.0742  0.1863
 2283W        W19131  11.539   1.866  11.220 -0.1689  0.1091  0.0233
 2284W        W19132   8.390   7.718  15.914 -0.0182 -0.4387 -0.2155
 2285W        W19133  14.376   6.099   4.607  0.1060 -0.2537 -0.2045
 2286W        W19134  15.730   3.650   1.833 -0.1917  0.3066 -0.0376
 2287W        W19135   3.140  15.796   0.010 -0.0878 -0.1553 -0.0610
 2288W        W19136   8.449   8.708   0.407 -0.1620  0.2096 -0.1998
 2289W        W19137   8.098  17.139   3.378 -0.2412  0.2782 -0.0099
 2290W        W19138  14.154   9.697  13.484  0.1028 -0.2533  0.0512
 2291W        W19139  13.828   5.261   3.575  0.0138 -0.1574  0.1871
 2292W        W19140   7.270  15.838  15.850  0.2487 -0.0535 -0.3512
 2293W        W19141   8.441  16.979   4.651  0.1010  0.0790  0.4006
 2294W        W19142   8.299   8.716  14.276 -0.1353  0.0167  0.2480
 2295W        W19143  15.656   0.457  11.816 -0.3593  0.1321 -0.0293
 2296W        W19144   3.126   5.647   2.767 -0.2104 -0.0373 -0.0274
 2297W        W19145   4.684   9.059  14.444  0.2825  0.1245 -0.1604
 2298W        W19146   7.819  10.610   1.653  0.1209 -0.0248 -0.1080
 2299W        W19147   3.936  15.312   2.425  0.0098 -0.0768 -0.0125
 2300W        W19148   5.560   7.073   4.831 -0.0722  0.5001  0.0623
 2301W        W19149  11.049   2.894  11.623 -0.2282  0.0988  0.0146
 2302W        W19150   7.536   7.780  14.072 -0.3356 -0.1938 -0.0079
 2303W        W19151   8.426   3.877  11.628 -0.1864 -0.4555 -0.0031
 2304W        W19152  16.958  13.804  12.893  0.3456 -0.0016  0.1251
 2305W        W19153  16.704  14.690  13.238 -0.2025 -0.0658 -0.0693
 2306W        W19154  16.566  15.654  13.055 -0.1694 -0.1091  0.3180
 2307W        W19155  10.034  10.355  13.786 -0.0338 -0.0997 -0.1499
 2308W        W19156   3.107   9.623   0.680  0.2671  0.0712  0.2335
 2309W        W19157  10.271   9.185  14.852  0.1727 -0.0683  0.1561
 2310W        W19158  10.871   6.051  14.761  0.1325 -0.1593  0.1011
 2311W        W19159   2.842   1.900   6.181 -0.0827  0.1332 -0.0693
 2312W        W19160  15.620  13.278   1.461  0.1055  0.2969  0.1629
 2313W        W19161   2.860   4.187   2.692  0.0053  0.0743  0.0266
 2314W        W19162  16.366  16.919   1.767  0.0555  0.0710  0.1593
 2315W        W19163  16.086   6.007  13.952 -0.1931  0.0174  0.0559
 2316W        W19164   1.715   0.583  15.752 -0.2501  0.0077 -0.0319
 2317W        W19165   8.055  11.145  13.651  0.0029 -0.2364  0.0530
 2318W        W19166   5.873   0.757   3.727  0.0480 -0.1883  0.0806
 2319W        W19167  10.714  10.415  15.280 -0.2114  0.0457  0.3534
 2320W        W19168   4.308  16.429   3.377  0.0352 -0.0514 -0.0414
 2321W        W19169   7.345   8.555   3.066 -0.1525  0.1264 -0.1331
 2322W        W19170  17.865   7.518   1.655 -0.0654 -0.1419  0.2521
 2323W        W19171  11.438   4.504  15.633  0.0333 -0.0332 -0.1270
 2324W        W19172  10.226  16.728   0.650 -0.2219 -0.1676 -0.0962
 2325W        W19173  11.072  16.304   0.390 -0.0172  0.0399 -0.0286
 2326W        W19174  10.190  10.928  11.755  0.0416 -0.1186  0.1819
 2327W        W19175   2.820   9.582  13.117  0.1253  0.0535  0.0748
 2328W        W19176  17.087  10.150  10.970  0.0007 -0.1839  0.0989
 2329W        W19177  16.322   3.159   0.545  0.0765 -0.2311  0.0947
 2330W        W19178   7.685   1.951   3.787 -0.2658 -0.1398  0.0765
 2331W        W19179   6.621  11.740   1.363 -0.0184  0.1208 -0.2093
 2332W        W19180  10.323   9.396   5.014  0.3319 -0.1439 -0.3378
 2333W        W19181   5.930  11.359  12.536  0.0757 -0.1047 -0.0080
 2334W        W19182   1.499   1.412  11.158  0.3570  0.1702 -0.0711
 2335W        W19183  14.865  11.563  14.928  0.2899  0.1759 -0.0480
 2336W        W19184  10.087   7.910   2.115 -0.0112 -0.0011  0.1929
 2337W        W19185   4.151   7.650   5.351 -0.3075  0.2404 -0.1919
 2338W        W19186  10.228   1.734  15.158 -0.1172 -0.0987  0.1990
 2339W        W19187   9.635   5.467   0.095 -0.2349 -0.3022  0.2963
 2340W        W19188   7.841  14.065   1.605 -0.1311 -0.0922  0.1082
 2341W        W19189  16.637   4.152  15.625 -0.1783 -0.1221 -0.1705
 2342W        W19190   1.104  17.037   2.342 -0.0122 -0.3350 -0.2150
 2343W        W19191   5.218  14.303  11.768 -0.1636  0.1210  0.3109
 2344W        W19192   6.892   8.429  12.178 -0.0533  0.1273  0.1977
 2345W        W19193   0.566   8.130  13.812 -0.0802  0.2973 -0.0203
 2346W        W19194  13.237  12.435  13.323  0.0144  0.3333 -0.1294
 2347W        W19195  10.260  15.911   5.672  0.0185  0.2385  0.1236
 2348W        W19196  10.441   3.725   1.831 -0.0526  0.2089  0.1201
 2349W        W19197  13.878  11.775   0.716  0.0156  0.0591  0.0016
 2350W        W19198  10.860   7.390   5.322  0.0088 -0.1392 -0.1112
 2351W        W19199  16.523   0.953  13.899  0.0203  0.0197  0.0864
 2352W        W19200  11.700  10.766   1.342  0.0540  0.1129 -0.0051
 2353W        W19201  11.459   5.062  12.861 -0.1039  0.0047  0.0707
 2354W        W19202  12.884   4.551   0.618 -0.2129 -0.3178 -0.1298
 2355W        W19203   0.032   1.317  11.346 -0.1562 -0.1654  0.2993
 2356W        W19204  11.541  12.153   0.474  0.1828 -0.3119 -0.0642
 2357W        W19205  12.675   1.896  11.118  0.2845  0.1046 -0.0804
 2358W        W19206   9.059   7.811  16.236  0.2307  0.1564 -0.0275
 2359W        W19207  14.747   7.667  14.942  0.2354 -0.0288  0.3158
 2360W        W19208   8.276  15.145  14.240 -0.1735 -0.0217  0.4188
 2361W        W19209  13.993   6.915  11.369 -0.0875  0.1239 -0.1401
 2362W        W19210  16.321   2.694  14.682 -0.1825  0.0051 -0.2512
 2363W        W19211   9.032   1.359  15.099 -0.0338 -0.1601 -0.0904
 2364W        W19212   9.677  11.374   2.994  0.0764 -0.1494 -0.0585
 2365W        W19213  11.708   8.981   3.840  0.0022  0.0641  0.1673
 2366W        W19214  16.474   1.586   1.103  0.0754  0.1423 -0.0735
 2367W        W19215   8.910  16.199  13.266  0.1600  0.0913 -0.0993
 2368W        W19216   4.049   5.706  13.432  0.2617  0.1062 -0.0932
 2369W        W19217  11.778   1.536   0.646  0.1822 -0.2909 -0.0373
 2370W        W19218   9.635  13.182  16.259 -0.0808 -0.4076  0.0567
 2371W        W19219   8.862   7.952   2.580 -0.0108  0.0774  0.1353
 2372W        W19220  12.127   5.331  13.049  0.4483 -0.3339  0.1894
 2373W        W19221  14.452  13.202   2.048  0.3085  0.2005  0.0807
 2374W        W19222   0.317  17.673  15.441  0.0610  0.1230  0.0984
 2375W        W19223   9.845   7.671  12.048 -0.0026 -0.0496  0.1172
 2376W        W19224   2.642   6.634  15.100  0.1415 -0.2705  0.0111
 2377W        W19225   2.734  11.403   0.534 -0.2621 -0.1863  0.0259
 2378W        W19226  11.682  10.664   3.027  0.0869 -0.1507  0.2141
 2379W        W19227  11.260   8.244  16.123  0.2063  0.0326 -0.1643
 2380W        W19228  10.582   2.455   2.175  0.1883  0.2165 -0.2071
 2381W        W19229  11.209  16.444  13.185 -0.0637 -0.1946  0.0374
 2382W        W19230  14.840   8.113  13.195 -0.0405 -0.0490  0.0293
 2383W        W19231   4.746  16.839   4.504 -0.0024  0.1825 -0.0778
 2384W        W19232   4.075  15.690   0.802  0.2742  0.3274 -0.0880
 2385W        W19233   8.614   1.743   0.364 -0.0116  0.4055 -0.2129
 2386W        W19234  16.772   1.320  16.139 -0.0613 -0.2915 -0.0701
 2387W        W19235   5.954   4.532   3.179  0.1527  0.2999  0.0171
 2388W        W19236   7.414   0.151   0.023  0.1533 -0.1086 -0.2617
 2389W        W19237  15.115  16.151   4.562  0.0119 -0.0653 -0.1949
 2390W        W19238   8.551  10.461   0.499 -0.0648  0.1492  0.0470
 2391W        W19239  17.268   2.759  15.487 -0.2068 -0.2063  0.0659
 2392W        W19240  14.885  11.128  12.171 -0.5063  0.0591 -0.0666
 2393W        W19241  16.904   3.447  11.693  0.0906 -0.2544  0.3958
 2394W        W19242   9.001  13.874   2.031 -0.0308 -0.0521  0.1511
 2395W        W19243   3.501   1.064  15.674  0.2386  0.1908 -0.1981
 2396W        W19244   9.752  10.974  14.997  0.0932 -0.1748  0.0853
 2397W        W19245  11.654   4.890   3.834 -0.0916  0.4532  0.0344
 2398W        W19246   8.816   7.450   0.105  0.1081 -0.0656 -0.2289
 2399W        W19247  14.402  15.791  12.395 -0.1466  0.2179  0.2618
 2400W        W19248   3.531  16.263   1.636  0.1784  0.0464  0.1988
 2401W        W19249  11.675   7.199  14.633  0.0931 -0.6330 -0.2059
 2402W        W19250   3.493   2.085  11.931 -0.2942 -0.1805  0.1363
 2403W        W19251  13.404   4.186  14.782  0.3264 -0.0524 -0.1562
 2404W        W19252  12.530   6.609   1.829  0.1175  0.3909  0.0382
 2405W        W19253  13.074   9.072   3.051  0.2150 -0.1296  0.0513
 2406W        W19254   6.044   0.424   0.487  0.1103  0.0000  0.3198
 2407W        W19255   1.927  17.500   3.180 -0.1665  0.0217 -0.2896
 2408W        W19256   0.580   6.258   2.585  0.2794  0.0465  0.2022
 2409W        W19257  15.829   2.204   1.629  0.2471  0.2045 -0.1078
 2410W        W19258   5.244  15.847   2.363  0.2506 -0.1553 -0.0772
 2411W        W19259  17.760   1.647  15.224  0.0697 -0.3482 -0.2294
 2412W        W19260   1.290   7.722   1.194  0.1481  0.1167 -0.0568
 2413W        W19261   5.707   3.152   0.723 -0.0370  0.1438  0.2026
 2414W        W19262   6.145  11.182   2.896 -0.0976 -0.2291  0.1318
 2415W        W19263  14.697  17.281  15.617 -0.0872  0.0337  0.0330
 2416W        W19264  10.159   0.864   0.954  0.2572  0.0656 -0.0064
 2417W        W19265   6.524  15.939   4.515  0.1971  0.0316 -0.4195
 2418W        W19266  17.140  14.917  13.345 -0.1767  0.0783  0.3215
 2419W        W19267   5.040   3.673   0.634 -0.3424  0.3130  0.1970
 2420W        W19268  17.516  10.329   4.224  0.0171  0.2933  0.0918
 2421W        W19269   3.364   3.726  15.148  0.0010  0.0749 -0.0564
 2422W        W19270   0.301   2.958   0.061 -0.1596 -0.0365  0.0770
 2423W        W19271   1.493   1.912  12.885  0.2653  0.0163 -0.1409
 2424W        W19272  10.212  13.696   2.251  0.0189 -0.0880 -0.1882
 2425W        W19273   0.455   5.120   1.463  0.0818 -0.0563  0.2624
 2426W        W19274   8.682   5.097  15.767  0.0169 -0.1815  0.2592
 2427W        W19275  15.951   1.035  11.843 -0.1450 -0.1108  0.0225
 2428W        W19276  13.121   6.235   5.141  0.2649 -0.1310 -0.0035
 2429W        W19277   0.738   5.759   2.407 -0.2665 -0.0509  0.2209
 2430W        W19278  15.344   9.523   3.653  0.0436 -0.1871 -0.1878
 2431W        W19279   6.412   2.496   0.113 -0.1487  0.1056  0.0812
 2432W        W19280  12.986  12.281   2.562  0.1080 -0.0018 -0.0654
 2433W        W19281   8.170  14.931  15.128  0.0988 -0.1821  0.0021
 2434W        W19282  13.893   0.640   4.013 -0.0180 -0.2584  0.0796
 2435W        W19283   9.414  10.633   3.584  0.0939 -0.1114 -0.0748
 2436W        W19284   7.347  10.818  11.123  0.0476  0.2420  0.0225
 2437W        W19285   9.497   9.619   3.929 -0.1777 -0.0105  0.1204
 2438W        W19286  11.126  11.158   1.911  0.0740  0.1918  0.1286
 2439W        W19287   4.466  15.989   0.776  0.3135 -0.1315 -0.0130
 2440W        W19288  15.261   7.040   1.142  0.0371  0.1160 -0.4264
 2441W        W19289   2.410   1.867  15.853 -0.1179 -0.1986 -0.0132
 2442W        W19290  15.475  11.666  12.700  0.1551 -0.2258 -0.1485
 2443W        W19291   8.485  10.913   2.041  0.0889  0.1896  0.1467
 2444W        W19292  14.365   3.155   4.123  0.2049  0.2114  0.0099
 2445W        W19293  10.135   8.264  14.764  0.2169  0.2316 -0.0136
 2446W        W19294   5.794  12.106   1.028 -0.0938  0.0920  0.1389
 2447W        W19295   1.846  12.176   0.018  0.0415 -0.0149 -0.0989
 2448W        W19296  17.359  10.811   4.115 -0.2064  0.0202  0.0650
 2449W        W19297   7.270   0.429  12.394 -0.2855  0.2045  0.2272
 2450W        W19298   3.324  17.018  12.466  0.1369  0.2789 -0.1105
 2451W        W19299   5.769  12.697  16.133 -0.3614  0.1718  0.0993
 2452W        W19300   1.460  12.516  15.958  0.3066  0.2040  0.1925
 2453W        W19301   4.317   5.447  13.065  0.2231 -0.1089  0.0465
 2454W        W19302  10.010   2.026  11.557 -0.1733 -0.0770  0.0291
 2455W        W19303   5.514   0.233   0.170  0.1216  0.0095 -0.1232
 2456W        W19304   8.792   1.766  15.229 -0.2611 -0.0556 -0.1115
 2457W        W19305   9.160  17.500  14.581 -0.1352  0.1713 -0.0351
 2458W        W19306  14.144   8.780   0.296 -0.2071 -0.0739  0.3000
 2459W        W19307  15.304   4.475  15.602  0.0449  0.3005  0.0850
 2460W        W19308  13.068   4.324   5.824  0.1387 -0.0711  0.0402
 2461W        W19309  12.420   7.910   4.469 -0.0220 -0.1875 -0.0881
 2462W        W19310  17.578  15.420   0.948  0.1502  0.0233  0.2160
 2463W        W19311   4.451  17.704   5.193 -0.0529  0.1501  0.0260
 2464W        W19312  11.231  14.872  10.855  0.0112 -0.1254 -0.0569
 2465W        W19313   8.855   6.956  15.642 -0.2669  0.0348  0.2039
 2466W        W19314   9.489  10.160  13.879 -0.0422 -0.3042  0.2867
 2467W        W19315   6.053  15.896  13.258  0.0477 -0.2218 -0.1059
 2468W        W19316  11.339  15.207   1.032 -0.0168 -0.3760  0.2434
 2469W        W19317  13.990   4.630   4.697 -0.0293  0.0297 -0.1601
 2470W        W19318  12.835   5.573  15.627  0.2761 -0.2349  0.0252
 2471W        W19319  15.761   3.189  15.541 -0.0279  0.0568  0.2340
 2472W        W19320   1.354  17.425   4.335 -0.0586  0.1069 -0.1108
 2473W        W19321  15.328   5.460  13.567  0.0665 -0.0465 -0.1734
 2474W        W19322   2.018  10.458   1.964 -0.1453 -0.0201 -0.1280
 2475W        W19323   2.784  17.761   5.189  0.2018 -0.1766  0.0910
 2476W        W19324   1.165  11.800  15.099  0.1069 -0.0128 -0.1558
 2477W        W19325   1.092  17.031   3.481  0.1007  0.0391  0.0411
 2478W        W19326   7.530   5.558  12.588 -0.0052 -0.0653  0.1005
 2479W        W19327   9.420  14.704  12.921 -0.1895 -0.1509 -0.1173
 2480W        W19328   7.335  14.170  12.018  0.2212 -0.0899 -0.0023
 2481W        W19329  12.604   0.883  16.150  0.5253 -0.1585  0.2842
 2482W        W19330   5.096  13.383  12.637  0.0374  0.1826 -0.0100
 2483W        W19331   5.577  12.919  13.036 -0.3036 -0.2188 -0.1770
 2484W        W19332   7.408  15.335   2.048 -0.1470 -0.2187 -0.0541
 2485W        W19333   3.386  16.444   4.920 -0.2457  0.3770 -0.1193
 2486W        W19334  10.429   5.255  15.152  0.1068 -0.2071  0.1185
 2487W        W19335   8.097   0.374  16.457  0.1439  0.0326  0.1373
 2488W        W19336   1.716   5.189  14.278  0.1372 -0.2669  0.0260
 2489W        W19337  17.400  13.703   2.756  0.1488  0.1188 -0.3768
 2490W        W19338  11.756   5.028   0.505 -0.2712 -0.1602 -0.2473
 2491W        W19339   7.106   7.236  15.564  0.1232  0.0498  0.0033
 2492W        W19340   3.059   3.718  14.704  0.4213 -0.0787 -0.3305
 2493W        W19341  13.697  12.759   1.711  0.4335 -0.0175 -0.1881
 2494W        W19342   7.577   7.130   4.862  0.0151  0.1914 -0.0100
 2495W        W19343   9.094   6.270  11.321 -0.1148  0.0263 -0.1111
 2496W        W19344  15.898  13.785  14.261 -0.0228  0.2798 -0.1288
 2497W        W19345  12.032   6.518  11.849  0.1955 -0.2492 -0.1545
 2498W        W19346   8.608   3.658   5.012 -0.1310 -0.1116  0.1520
 2499W        W19347   6.198   2.159   0.497  0.0542  0.4782 -0.2234
 2500W        W19348   1.959  15.990  12.393 -0.0222 -0.1558  0.0567
 2501W        W19349   0.860  11.464  16.440 -0.0271  0.0053 -0.2516
 2502W        W19350   8.759   1.679  12.801  0.3491 -0.0926  0.0013
 2503W        W19351  15.498  17.231   1.651 -0.0523 -0.1593 -0.0248
 2504W        W19352   7.743   6.904  14.500 -0.1251 -0.0096  0.1964
 2505W        W19353   7.488  10.802  15.878 -0.1039 -0.1247  0.3732
 2506W        W19354   4.333  16.923   2.993  0.1048 -0.0055  0.1195
 2507W        W19355  14.677   7.186  14.022  0.1249  0.1605  0.0406
 2508W        W19356   0.881   1.219  13.161  0.1448  0.0907 -0.0700
 2509W        W19357   2.226  13.569   1.985  0.6064  0.0818 -0.2241
 2510W        W19358  11.323   2.345  12.023 -0.1101  0.0296  0.0154
 2511W        W19359   9.708   7.898   3.119 -0.1209  0.1224 -0.0164
 2512W        W19360  10.989   7.556  14.105 -0.1025  0.1528  0.0512
 2513W        W19361   7.791  10.335  15.193  0.0502  0.1533  0.1546
 2514W        W19362  11.743   7.158   5.418 -0.2622 -0.1151  0.0207
 2515W        W19363  13.340   8.825   2.130  0.1789 -0.2585  0.1631
 2516W        W19364  12.831  10.061   2.082  0.0320 -0.3605  0.0306
 2517W        W19365   4.610   7.619   0.754 -0.0354  0.0006 -0.0016
 2518W        W19366   2.674  11.030   0.894  0.1699  0.1214  0.2546
 2519W        W19367   0.569   1.750  14.397 -0.0111  0.1872 -0.0622
 2520W        W19368  15.751   9.802  12.967  0.2525 -0.1728 -0.0638
 2521W        W19369   5.825   2.338   2.907 -0.0743 -0.0356 -0.0533
 2522W        W19370   3.155   1.671   2.287  0.1621 -0.0874  0.0251
 2523W        W19371  10.560  17.306   2.679 -0.1119  0.0138 -0.1151
 2524W        W19372   3.017  10.471  15.745 -0.1804  0.1532  0.2164
 2525W        W19373  13.647   6.613   4.198  0.1719  0.0456 -0.1309
 2526W        W19374  10.216   7.040   2.164 -0.1161  0.1127 -0.2405
 2527W        W19375   4.031   5.683  14.000  0.4353 -0.0652 -0.1098
 2528W        W19376   3.226   9.989   4.721 -0.3478 -0.0510  0.1030
 2529W        W19377  14.005  10.544  12.385 -0.0731 -0.3709 -0.1166
 2530W        W19378   8.443  12.569   3.271  0.1917  0.0311  0.0099
 2531W        W19379   9.742  11.823  13.914  0.0105  0.1071  0.3046
 2532W        W19380  14.576  17.016   4.564  0.0367 -0.0712  0.2083
 2533W        W19381   4.569  10.606  14.750 -0.1942  0.0766  0.2814
 2534W        W19382  15.107   6.741   4.629  0.1375  0.0102  0.3149
 2535W        W19383   3.032   0.775  14.483 -0.2189 -0.1061  0.0742
 2536W        W19384  14.880  14.539  15.552 -0.3376  0.1089  0.0743
 2537W        W19385   9.418  13.006  12.573 -0.2160  0.2724 -0.4235
 2538W        W19386   8.355   6.167   3.848 -0.0875  0.2738 -0.2592
 2539W        W19387   5.690   9.363  14.756  0.2064 -0.0072 -0.0581
 2540W        W19388   2.658   6.017   3.211 -0.1415  0.0598  0.0042
 2541W        W19389   5.565   8.812  14.176  0.1334  0.3837  0.3790
 2542W        W19390   1.821  12.918  15.839  0.0463  0.1175  0.2719
 2543W        W19391  16.892  12.408   3.199  0.0817  0.2042  0.0459
 2544W        W19392   4.782  13.926  14.386  0.2036  0.3320  0.0232
 2545W        W19393  10.709  14.557  13.089 -0.0319  0.0833  0.0679
 2546W        W19394  10.772   9.823   3.797 -0.0551 -0.1734  0.1558
 2547W        W19395  14.789   6.423   2.775  0.0755 -0.2368 -0.1711
 2548W        W19396   3.282  14.832  14.320 -0.2390 -0.2165 -0.2712
 2549W        W19397   7.729  16.461  14.190  0.0747 -0.0345  0.0991
 2550W        W19398   4.831  13.258  15.750 -0.1180 -0.1125  0.0499
 2551W        W19399  10.411   6.467   5.660  0.0354 -0.0244  0.1931
 2552W        W19400   3.432   3.555  15.615 -0.0889  0.2482 -0.0613
 2553W        W19401  11.969   9.912  11.942 -0.2470 -0.2599 -0.2510
 2554W        W19402  16.621   8.101   5.889 -0.1978 -0.1574 -0.1132
 2555W        W19403  11.160   9.097   5.354 -0.1329  0.1283 -0.1268
 2556W        W19404   5.585   5.003   1.938 -0.1544 -0.0149 -0.1683
 2557W        W19405   0.677  16.515   3.715 -0.0505  0.0629  0.1917
 2558W        W19406   7.104  12.983   0.264 -0.2108 -0.2044 -0.0375
 2559W        W19407  10.366   5.770  12.964 -0.1047  0.1307 -0.2102
 2560W        W19408  16.810   6.421  11.539  0.1437  0.1117  0.0366
 2561W        W19409   7.422  13.158   1.768 -0.0633 -0.2617  0.0065
 2562W        W19410  16.011  15.717  15.298  0.3765  0.1174 -0.1794
 2563W        W19411   9.519  15.385   4.632 -0.0495 -0.1190  0.1004
 2564W        W19412   3.330  13.810   5.182  0.2368 -0.1076  0.4388
 2565W        W19413  14.808   5.554  13.978 -0.1185  0.0924 -0.0698
 2566W        W19414   4.510   6.942   4.518  0.2591  0.6319 -0.2308
 2567W        W19415   8.985   4.353   3.040  0.0397  0.1645 -0.1918
 2568W        W19416  13.018   1.119   1.115  0.0493  0.1254  0.2156
 2569W        W19417   9.519  12.476  12.708 -0.1022 -0.1088  0.0669
 2570W        W19418   7.145  12.267   4.965  0.1163  0.1766 -0.1096
 2571W        W19419   7.374   4.067   4.356  0.0018  0.0538  0.0167
 2572W        W19420   1.054   5.627   0.922 -0.1032 -0.2187 -0.0126
 2573W        W19421  15.048   1.280   1.072 -0.0919 -0.1072 -0.1280
 2574W        W19422   8.492   2.938   1.118  0.6011  0.0655 -0.1447
 2575W        W19423   0.049   8.388   1.677  0.0071 -0.2080  0.0452
 2576W        W19424  17.225   7.131   1.363  0.2463 -0.1180 -0.1364
 2577W        W19425  17.366   8.581  11.739 -0.0119 -0.0125  0.0277
 2578W        W19426   3.441  13.028  12.895 -0.0557 -0.0880 -0.0372
 2579W        W19427  16.561  12.253  14.085 -0.2583 -0.1724  0.0831
 2580W        W19428  16.264  16.046   2.678  0.0651  0.1050 -0.0726
 2581W        W19429   8.472   8.343   1.992 -0.0013 -0.0419 -0.1846
 2582W        W19430   0.630   0.190   2.821 -0.1038  0.0330  0.1546
 2583W        W19431  17.671  11.489   3.466  0.0563  0.0198 -0.1420
 2584W        W19432  14.425   0.160  11.303 -0.0771 -0.2867  0.0576
 2585W        W19433   4.248   9.474   5.515 -0.4121  0.0067 -0.1194
 2586W        W19434   6.348   3.982  14.889 -0.0597  0.1548  0.1243
 2587W        W19435  11.185  14.216  14.304  0.0976 -0.0017  0.0559
 2588W        W19436  15.043   1.088  13.493  0.0475  0.1144 -0.1290
 2589W        W19437  13.352   4.737  14.856  0.0832  0.0613  0.2423
 2590W        W19438   5.511   2.210   1.809 -0.0219 -0.0652  0.1564
 2591W        W19439   9.301  17.529   4.630  0.0316  0.1536 -0.1159
 2592W        W19440   2.781   0.720  12.798  0.0401  0.2675 -0.1508
 2593W        W19441   6.875   0.624  13.784  0.0846 -0.3972 -0.2685
 2594W        W19442   3.167  15.805   2.919  0.1150 -0.2645  0.0974
 2595W        W19443   9.540  14.884   2.027  0.0429  0.1770 -0.4359
 2596W        W19444   3.813   2.497  13.028 -0.1673 -0.0318 -0.2937
 2597W        W19445  16.320   7.636   0.077 -0.3169 -0.1258 -0.1051
 2598W        W19446   2.877   2.852   2.638 -0.0337 -0.1162 -0.0731
 2599W        W19447  13.995  17.445   1.173  0.0481  0.1505  0.1308
 2600W        W19448  15.924   2.256  15.938  0.2901  0.2289 -0.1923
 2601W        W19449  13.327   4.454   2.769 -0.3235 -0.2355 -0.0388
 2602W        W19450  17.835  10.703   1.611  0.1396  0.2410  0.0357
 2603W        W19451  10.628   7.812  15.518 -0.0035 -0.0414 -0.2433
 2604W        W19452   1.876  16.427   0.177 -0.0600 -0.1904 -0.1944
 2605W        W19453   3.224   0.853   1.405  0.1312 -0.0011 -0.2262
 2606W        W19454   1.380   0.289   0.464 -0.2357  0.0423  0.0583
 2607W        W19455  14.147  10.323  15.771  0.1210  0.1947  0.0877
 2608W        W19456  11.233   3.688   0.620 -0.2091 -0.0523  0.3064
 2609W        W19457  10.428   6.147   2.154 -0.1035 -0.1890 -0.2979
 2610W        W19458   8.903   3.240  12.645 -0.0247  0.1970 -0.0568
 2611W        W19459   7.896  10.850  13.250  0.2622 -0.1339 -0.3095
 2612W        W19460   7.927  12.676   0.624 -0.0259  0.3562 -0.0648
 2613W        W19461   1.831   9.153  10.817 -0.1945 -0.4117  0.0665
 2614W        W19462   6.748   3.961  15.266  0.0129  0.2068 -0.0276
 2615W        W19463   1.532  11.606  11.038  0.1185  0.0150 -0.2981
 2616W        W19464  10.457  16.343   1.289  0.1352  0.1020 -0.3071
 2617W        W19465  15.583   4.373  14.985 -0.0871 -0.1023  0.0513
 2618W        W19466   5.574  17.655   0.673  0.2075 -0.1321 -0.0990
 2619W        W19467   6.385   6.619   2.098  0.2023  0.0951  0.3582
 2620W        W19468   7.222  13.825   2.240  0.1667  0.1294 -0.3323
 2621W        W19469  17.684   6.381   3.239 -0.3079 -0.0652  0.0208
 2622W        W19470  15.842   8.983   3.548 -0.0649  0.1446  0.0663
 2623W        W19471   2.042   7.352  12.227 -0.1790  0.0168  0.2555
 2624W        W19472  10.925   1.934   3.582 -0.1805 -0.3753 -0.0373
 2625W        W19473  12.692   2.137  15.920  0.2291  0.1879  0.4118
 2626W        W19474   5.215   1.091  13.857  0.0752 -0.2268 -0.0200
 2627W        W19475   3.163   8.634  14.379 -0.2324  0.0255 -0.3088
 2628W        W19476  15.043  17.111  12.636  0.0624  0.1097 -0.1301
 2629W        W19477   5.409  11.681  16.212 -0.0489 -0.2894 -0.0683
 2630W        W19478   2.756   0.247   1.715  0.0321  0.0237 -0.0441
 2631W        W19479   1.623  15.079   3.891 -0.2871  0.1173 -0.3182
 2632W        W19480  11.683   3.871   4.210  0.1368 -0.1313 -0.2258
 2633W        W19481   6.436  16.421   4.383  0.3281  0.0567 -0.0140
 2634W        W19482  13.167   5.954  13.200 -0.2636 -0.2622 -0.2307
 2635W        W19483   4.279   3.746   3.382 -0.0190  0.1071 -0.3084
 2636W        W19484   6.830  12.366   4.527  0.1626 -0.1400  0.0835
 2637W        W19485   4.736   3.443   3.074 -0.0357 -0.0179  0.1737
 2638W        W19486   7.029   7.021   4.975  0.4237 -0.3052  0.1282
 2639W        W19487   8.650   1.524   4.395 -0.1696  0.1892  0.0677
 2640W        W19488   6.891   9.323   5.155  0.1268 -0.1821 -0.0663
 2641W        W19489  17.657  11.038   0.435  0.1074  0.2480  0.0058
 2642W        W19490  17.173   7.383  13.299  0.0189  0.0895 -0.1657
 2643W        W19491   2.354  17.404  13.931  0.1181 -0.1976 -0.2781
 2644W        W19492   7.685   0.158   0.464  0.3972 -0.4190 -0.1530
 2645W        W19493  11.368   8.610  11.727  0.1748 -0.0301 -0.0463
 2646W        W19494  14.102  12.577  15.420 -0.0917  0.2791 -0.0239
 2647W        W19495   4.730   9.123  11.968 -0.1890  0.0769 -0.0306
 2648W        W19496   8.416  11.849  12.627 -0.3025 -0.1322  0.0481
 2649W        W19497  12.064  11.344  13.880 -0.0308  0.0062 -0.0662
 2650W        W19498  11.505  16.816  15.204 -0.1550  0.3495 -0.4056
 2651W        W19499   7.461   4.815  13.082 -0.0666  0.0940  0.3262
 2652W        W19500  17.358   8.026  13.010 -0.1835  0.1980 -0.0292
 2653W        W19501   6.108  17.137   2.531 -0.3268 -0.1885  0.0339
 2654W        W19502   4.052   0.404  16.454 -0.0184  0.2026 -0.0249
 2655W        W19503  12.301  10.403  12.702 -0.1013  0.0241  0.1262
 2656W        W19504  13.500  16.716   5.542 -0.0406  0.3348  0.1664
 2657W        W19505  13.757   8.705  11.636 -0.1188  0.0792  0.0635
 2658W        W19506   4.127   1.845  11.619 -0.0472  0.3895  0.2669
 2659W        W19507  13.293  13.389   4.644 -0.0362 -0.2302 -0.0193
 2660W        W19508   6.531   6.944   5.489  0.1872 -0.0247 -0.0687
 2661W        W19509  15.529  16.780   0.943  0.2913 -0.0836  0.0080
 2662W        W19510   6.214   3.440   4.534 -0.0070  0.0527 -0.1710
 2663W        W19511   3.306   9.363  14.201 -0.1625 -0.1390  0.0897
 2664W        W19512  14.532  17.719  13.265 -0.1551  0.2430  0.0170
 2665W        W19513  12.064   9.013   5.124  0.3472  0.1962 -0.0756
 2666W        W19514  14.758  15.903   3.895 -0.2317 -0.0479 -0.0364
 2667W        W19515   3.011   2.077  14.081  0.0873  0.0915  0.2671
 2668W        W19516  12.804   5.199   1.246  0.2463 -0.3666  0.1209
 2669W        W19517   2.459  14.486  11.886 -0.0762 -0.0674  0.2273
 2670W        W19518  13.674  14.787   3.802 -0.1286 -0.2343  0.0771
 2671W        W19519   5.039   8.637  15.659  0.2160  0.1548  0.1387
 2672W        W19520   9.944  14.586   1.301  0.3903 -0.2624  0.0559
 2673W        W19521  10.911   8.210  12.553  0.0963  0.2954  0.2091
 2674W        W19522  15.723  16.343  14.269  0.0669 -0.2370 -0.3828
 2675W        W19523  15.695  12.327  15.838 -0.3389  0.1196  0.1775
 2676W        W19524   8.744  10.157   1.397 -0.0565  0.2995 -0.1652
 2677W        W19525   2.581  11.991  13.773  0.1054  0.1195  0.3311
 2678W        W19526   3.169  10.180   4.188 -0.2406 -0.0811  0.1001
 2679W        W19527  16.033  15.648  11.932 -0.2970 -0.3196  0.1561
 2680W        W19528   0.104   4.920   4.525 -0.2234  0.0825 -0.0183
 2681W        W19529   7.679  11.484  13.334 -0.1423  0.2691 -0.0035
 2682W        W19530   7.984   5.773   4.914  0.1010  0.0408  0.1436
 2683W        W19531  11.368  12.231  13.197 -0.4983 -0.2150 -0.0341
 2684W        W19532   8.219  14.941   0.412 -0.3801  0.0529 -0.0246
 2685W        W19533   1.258  13.034   5.047  0.2238 -0.1781 -0.0589
 2686W        W19534  14.354  14.150  14.427 -0.1425 -0.0313 -0.3295
 2687W        W19535   6.195  12.866  14.453 -0.2224 -0.1917 -0.2322
 2688W        W19536   8.103   7.304  15.204 -0.1370  0.3230  0.2403
 2689W        W19537  17.512   2.511  11.973  0.2720 -0.1010 -0.4279
 2690W        W19538   9.854   3.054  15.318  0.2062  0.2379  0.2330
 2691W        W19539  14.007  12.574  13.229  0.1481 -0.3548 -0.0158
 2692W        W19540   8.622   6.628   1.088  0.1761 -0.0434  0.2868
 2693W        W19541   7.529  17.461  12.251  0.1510  0.2038 -0.4511
 2694W        W19542  12.083   1.231   1.027 -0.1837 -0.0845 -0.2899
 2695W        W19543  15.791  16.538  15.958 -0.2029  0.2901  0.1659
 2696W        W19544  13.205  17.520   2.222 -0.2600 -0.0445  0.2109
 2697W        W19545  16.331  16.681  14.452 -0.0282 -0.0099 -0.1853
 2698W        W19546  15.570   1.240   2.573  0.1519 -0.4022 -0.0194
 2699W        W19547   3.200   0.767  13.066  0.3853  0.1348  0.2114
 2700W        W19548   4.480   8.564   1.646  0.1012 -0.1791 -0.1933
 2701W        W19549  11.304   5.369  14.827 -0.1590 -0.3533  0.2379
 2702W        W19550   6.511  12.400   0.075 -0.3049 -0.1151 -0.1697
 2703W        W19551   9.277   7.941  14.087  0.0982  0.0507 -0.0388
 2704W        W19552   7.710   5.812  14.324 -0.0171 -0.0986 -0.1801
 2705W        W19553   3.340   1.602   4.353  0.0519  0.1017  0.0833
 2706W        W19554  13.606   5.811   6.024 -0.3416  0.0302 -0.0001
 2707W        W19555  10.682   5.213   1.917  0.0559  0.1437  0.2376
 2708W        W19556  12.463   1.180  12.128 -0.1696  0.1148 -0.1107
 2709W        W19557  12.441  16.544  11.991  0.0831  0.3746  0.0143
 2710W        W19558   2.640   9.173  13.400  0.1238 -0.4093  0.0362
 2711W        W19559   2.921   3.904   4.068  0.2029 -0.1277  0.1065
 2712W        W19560  13.831   9.039  15.985  0.0459 -0.2681  0.2304
 2713W        W19561  15.785   2.987   5.441 -0.0363  0.0183 -0.0326
 2714W        W19562   6.774   2.379  11.376  0.3016 -0.1991  0.0783
 2715W        W19563   1.538   6.875  11.114  0.1723 -0.0814  0.0696
 2716W        W19564  12.131   8.116   0.448 -0.0613 -0.2718  0.0118
 2717W        W19565  15.294  13.931   3.187  0.0202 -0.0374  0.0068
 2718W        W19566   4.584  17.830  12.666  0.0953 -0.0237  0.2111
 2719W        W19567  10.285  15.931  14.062  0.0333  0.0238 -0.0308
 2720W        W19568  17.616   9.763  15.316  0.0043  0.0743 -0.1322
 2721W        W19569   3.563  16.057  12.892  0.0063 -0.0559 -0.0915
 2722W        W19570  11.725   1.530  13.165 -0.0824  0.2886 -0.0409
 2723W        W19571   0.394  11.028  10.295 -0.3342  0.0626 -0.5876
 2724W        W19572  15.673   1.086   5.196 -0.0514  0.2422  0.1722
 2725W        W19573   4.017   5.587   4.166  0.0621 -0.0847 -0.1049
 2726W        W19574   3.924   0.766   5.621  0.0176 -0.0301  0.2081
 2727W        W19575   2.548   9.253  12.776 -0.2505 -0.2512  0.3194
 2728W        W19576   3.557   3.577   4.638 -0.3042 -0.2605 -0.0925
 2729W        W19577  13.760  13.466   3.098 -0.1003  0.0148  0.0321
 2730W        W19578  10.877   7.191  13.659 -0.0217  0.1964 -0.1334
 2731W        W19579  12.673   4.978   0.301 -0.2110 -0.0409  0.0722
 2732W        W19580   4.825  10.857   0.760  0.1377  0.0842  0.1781
 2733W        W19581  16.659  11.010  13.651 -0.0053 -0.3294 -0.0609
 2734W        W19582   9.412   8.935  14.956  0.2919 -0.2330 -0.1840
 2735W        W19583  13.022   5.746   3.437 -0.0701  0.0606  0.1297
 2736W        W19584  12.281  13.817  16.402 -0.2520  0.1884  0.0289
 2737W        W19585   9.771   7.920  13.989 -0.2666 -0.0745  0.2397
 2738W        W19586   8.639   4.311  15.329 -0.2170  0.2304 -0.0062
 2739W        W19587   1.049   6.012  16.156 -0.1463  0.1049 -0.2432
 2740W        W19588  15.766   5.126   4.680 -0.3514 -0.1316  0.0979
 2741W        W19589  10.260  15.132  13.897  0.2636 -0.0618  0.5830
 2742W        W19590   0.504  12.120  12.893  0.0446 -0.1284  0.1089
 2743W        W19591  15.998  13.414  11.542  0.4804 -0.1209  0.1254
 2744W        W19592   3.330  17.159  11.990 -0.0332  0.0391  0.2533
 2745W        W19593   6.910   9.413  16.021 -0.1062 -0.0781  0.2433
 2746W        W19594   0.907  16.033   1.766  0.0084  0.1635 -0.0213
 2747W        W19595   9.795   0.722   2.427 -0.1624 -0.0983 -0.2407
 2748W        W19596   9.229   4.536  12.568 -0.0107  0.0322  0.1390
 2749W        W19597  11.454  11.843   1.320  0.3448  0.0050 -0.2679
 2750W        W19598   6.708   4.247   2.487 -0.0659 -0.2850  0.2910
 2751W        W19599   7.075   3.950  12.294 -0.2619 -0.0983 -0.2598
 2752W        W19600  16.828   9.779  11.076 -0.0940  0.1564  0.1484
 2753W        W19601   7.918   0.575   1.561  0.1489 -0.0148  0.1525
 2754W        W19602   6.705  13.146   2.586  0.2613  0.0405 -0.1236
 2755W        W19603  14.257   4.161   4.772  0.2492 -0.0376 -0.0481
 2756W        W19604   8.719   0.405   3.404  0.0522  0.2613 -0.0177
 2757W        W19605   7.119  10.021  12.851 -0.0983 -0.0721  0.3180
 2758W        W19606  12.643   3.935   1.121  0.1056  0.1071  0.1013
 2759W        W19607   9.490  16.557   2.367  0.1758  0.1445 -0.0289
 2760W        W19608  12.787  17.760  15.036 -0.1837 -0.1232 -0.1613
 2761W        W19609  11.102   2.040  15.151 -0.0717  0.2963 -0.0520
 2762W        W19610   7.514  16.694   4.662 -0.2498  0.1905 -0.1224
 2763W        W19611  12.112   0.881  11.032  0.0149  0.2642 -0.0730
 2764W        W19612  14.077   9.811   2.570  0.2116  0.1460  0.2067
 2765W        W19613   8.477   5.894  11.654  0.3155  0.1432  0.0863
 2766W        W19614   7.708   8.408   0.106  0.2215 -0.0473  0.1247
 2767W        W19615   6.084   9.576  12.777  0.1120 -0.3848 -0.0430
 2768W        W19616  11.770  16.584  13.059  0.1595  0.0992 -0.1724
 2769W        W19617   5.483   3.208  13.429 -0.1537  0.1127  0.0005
 2770W        W19618   6.438  15.597   0.660 -0.0873 -0.0261  0.2461
 2771W        W19619  14.473  13.173  12.849 -0.2154 -0.0681 -0.1288
 2772W        W19620  11.976  17.014  14.607  0.0621  0.1210  0.0328
 2773W        W19621   3.531  16.964  13.008 -0.0563  0.0149  0.0598
 2774W        W19622   5.026  14.387   1.386 -0.1687 -0.0790 -0.1370
 2775W        W19623   1.267   2.248  15.918 -0.1573 -0.1513 -0.0602
 2776W        W19624  13.728  14.244  12.630  0.0989  0.0759 -0.1012
 2777W        W19625  10.616  12.808  12.655 -0.0978 -0.0468  0.1561
 2778W        W19626   5.635  14.696   5.825 -0.1562 -0.0253  0.0599
 2779W        W19627  10.213   6.102   5.030 -0.0626  0.0052 -0.1461
 2780W        W19628  15.275  11.085  12.523 -0.2637  0.0311  0.0386
 2781W        W19629   4.169  14.619   1.851  0.1576 -0.0935  0.0474
 2782W        W19630   1.100   4.707   0.610 -0.0924  0.0447  0.2845
 2783W        W19631  16.577  17.713   2.846  0.1157 -0.1124  0.0085
 2784W        W19632   7.414  12.573   0.476 -0.1363 -0.1994  0.1416
 2785W        W19633   4.579   8.423   5.695 -0.1680 -0.0238 -0.0912
 2786W        W19634   2.650   8.980   1.949 -0.1236  0.2810  0.2668
 2787W        W19635   5.984  11.849  12.448 -0.1752  0.2437 -0.0929
 2788W        W19636   5.828  13.743  11.392  0.0824  0.2772  0.0462
 2789W        W19637  10.107   9.625   1.015 -0.3775 -0.1373 -0.1867
 2790W        W19638   1.024   3.489  15.414 -0.0172  0.0079  0.3173
 2791W        W19639   3.170   6.847   2.287  0.0435 -0.1027 -0.0769
 2792W        W19640   1.577   5.348   5.282 -0.0035 -0.0182  0.0517
 2793W        W19641   3.709   8.767  12.940  0.1854  0.1048 -0.0453
 2794W        W19642   2.697  16.191   2.135  0.0886 -0.2691 -0.0300
 2795W        W19643  16.344   6.761  13.457 -0.1031  0.1882 -0.1150
 2796W        W19644  17.070   8.203   6.143 -0.4101  0.2964  0.4373
 2797W        W19645   3.098  15.857  11.652 -0.1191  0.1617 -0.1319
 2798W        W19646  17.213  16.506  11.407  0.0238  0.0629 -0.1021
 2799W        W19647   7.581   8.244   2.387  0.2748  0.2662  0.0129
 2800W        W19648  12.008  13.566  12.105 -0.0031 -0.0430 -0.1725
 2801W        W19649   6.150   5.064  12.160 -0.0248 -0.0917 -0.2962
 2802W        W19650   5.351  10.632   2.616  0.0239  0.0471  0.0643
 2803W        W19651   2.937  11.523  16.054  0.2174 -0.2744 -0.0006
 2804W        W19652   2.334  14.733   2.674 -0.2211 -0.0043  0.2137
 2805W        W19653   7.454   0.267  11.163 -0.0065  0.1611 -0.1858
 2806W        W19654  17.442   5.716   2.022  0.2149  0.0060 -0.0859
 2807W        W19655   7.279   3.897   1.924  0.0207  0.1209 -0.2955
 2808W        W19656   1.183   3.714   3.866 -0.0024 -0.1800 -0.3219
 2809W        W19657   9.557   2.210  13.175  0.1084  0.0799  0.0883
 2810W        W19658   7.533  17.842   0.945  0.2358 -0.0512  0.2732
 2811W        W19659  12.104   5.884   3.537  0.3361  0.0524  0.2769
 2812W        W19660   4.351   8.133   0.727 -0.3171 -0.1304  0.0238
 2813W        W19661   9.178  10.494   2.702 -0.0509  0.3304  0.1549
 2814W        W19662  10.952   1.439   4.969  0.0528  0.1256  0.0296
 2815W        W19663   2.080   9.118   1.888 -0.0012 -0.4476  0.0997
 2816W        W19664   2.626   2.431  14.302 -0.0334  0.0458 -0.0037
 2817W        W19665  13.168  11.779   5.703 -0.1427  0.0749 -0.0850
 2818W        W19666  10.019   2.292  12.573  0.3380 -0.1712  0.0781
 2819W        W19667  12.553   8.607   1.048  0.0304  0.1546  0.2695
 2820W        W19668  15.416   9.007   1.086 -0.1141  0.0940  0.0191
 2821W        W19669   4.174   0.616   1.190 -0.0264  0.2411 -0.1611
 2822W        W19670   5.709   4.755  14.761  0.2056  0.2750  0.0155
 2823W        W19671   7.666   2.311   4.336 -0.0367 -0.0921 -0.2027
 2824W        W19672  17.632   6.628  11.210 -0.0546 -0.0311  0.3117
 2825W        W19673  15.685  17.811  14.051 -0.1751  0.3042  0.1669
 2826W        W19674   4.981  17.589  12.130 -0.0551 -0.0225  0.2129
 2827W        W19675  10.667   9.512  11.659  0.0881  0.0670  0.1512
 2828W        W19676  16.268   1.733  11.179  0.0391 -0.0555  0.0983
 2829W        W19677   6.047  11.343   2.036 -0.1037  0.3950  0.0524
 2830W        W19678   5.936  17.827  11.384 -0.0560 -0.0338 -0.0111
 2831W        W19679  14.194   5.033   0.984  0.0223 -0.0925 -0.2712
 2832W        W19680  15.668   4.915  14.732 -0.0491 -0.1727  0.0894
 2833W        W19681   6.709   9.813  15.646 -0.1067  0.1561 -0.1351
 2834W        W19682   9.971  14.838  13.499 -0.0610 -0.0261  0.1938
 2835W        W19683   5.638   4.604   5.528 -0.1019  0.0383  0.1198
 2836W        W19684  14.858  12.147  13.737  0.3052  0.1415  0.0368
 2837W        W19685  11.663  10.622  15.157 -0.1670 -0.0973  0.0298
 2838W        W19686  12.005   9.164  11.476  0.0414 -0.0899  0.2332
 2839W        W19687  17.640   2.860   0.070  0.2203 -0.1241  0.0716
 2840W        W19688  12.809  14.527  10.865 -0.3860 -0.1815  0.0019
 2841W        W19689  11.723   8.878   1.760 -0.0609 -0.0221  0.0612
 2842W        W19690   4.574  14.075   3.659  0.0560 -0.0378  0.0582
 2843W        W19691  17.186  16.025  12.466 -0.0013 -0.1616  0.0811
 2844W        W19692   1.844   5.825   2.376 -0.0141 -0.0603 -0.1249
 2845W        W19693   9.580   3.977   1.144  0.0110 -0.3310  0.1797
 2846W        W19694   0.493   5.290   5.054 -0.0186 -0.0033  0.1276
 2847W        W19695   4.269   4.517  13.490 -0.1607  0.1773 -0.0771
 2848W        W19696   0.687   7.541   5.697  0.0342 -0.0663  0.3245
 2849W        W19697  15.042  16.263   3.782  0.0346  0.0829  0.0941
 2850W        W19698   2.855   5.205  14.830 -0.0614 -0.0530 -0.1977
 2851W        W19699   9.536  15.055   5.009  0.1974 -0.1451  0.2145
 2852W        W19700   0.147  17.481   1.141  0.0216  0.0219 -0.0219
 2853W        W19701   2.330  17.376  11.930  0.2147  0.2902 -0.3260
 2854W        W19702  14.776  16.356  14.273  0.1833  0.0904  0.4221
 2855W        W19703  16.818   4.813  13.003  0.0505  0.1055  0.1786
 2856W        W19704   5.857  10.024   0.344  0.1871 -0.0057 -0.2633
 2857W        W19705   2.167  17.500   1.908  0.4071  0.3030 -0.3229
 2858W        W19706   7.169  13.985   5.383 -0.0236 -0.0269 -0.4254
 2859W        W19707   1.367   4.507   2.443  0.1227 -0.0481 -0.1701
 2860W        W19708   9.104  16.560   1.423 -0.0309  0.1482  0.1507
 2861W        W19709  11.462   0.486  14.346  0.4013 -0.0334 -0.0041
 2862W        W19710   6.577   4.581   3.874  0.0807  0.1927 -0.1313
 2863W        W19711   3.443   7.893  13.771  0.0564 -0.2150 -0.0078
 2864W        W19712   3.334  11.561   4.351  0.1504 -0.2232 -0.1200
 2865W        W19713  16.445  15.171  15.635 -0.3286 -0.1990 -0.0796
 2866W        W19714   5.476   5.491   0.538  0.2774 -0.1773  0.0972
 2867W        W19715   3.846  17.710   5.358 -0.0156 -0.0794 -0.1610
 2868W        W19716  15.117  17.694  13.299 -0.1119 -0.0470  0.1868
 2869W        W19717   4.796   9.652   4.746 -0.4675  0.1893  0.0191
 2870W        W19718   2.935  16.930   2.380  0.2260  0.0364  0.0990
 2871W        W19719   9.802   8.548   0.227  0.0269 -0.3396 -0.1159
 2872W        W19720  16.333   4.397   5.005  0.0223 -0.0454 -0.1798
 2873W        W19721   4.286   7.595  12.068  0.0677  0.0009 -0.2769
 2874W        W19722  16.209   1.605   4.834  0.0735 -0.1040  0.2623
 2875W        W19723   4.221   1.886  16.299 -0.4194  0.0010 -0.1057
 2876W        W19724   0.668   6.693   2.858  0.0974  0.1027  0.0839
 2877W        W19725   5.452   6.965  12.652 -0.3132 -0.1306 -0.1975
 2878W        W19726  14.216   9.772  12.617  0.0048  0.0497 -0.1979
 2879W        W19727  10.733   6.770  12.050 -0.1859  0.3151  0.1024
 2880W        W19728   0.551  10.832   3.176 -0.1708  0.0141 -0.1173
 2881W        W19729   2.995  13.668   0.987  0.0511 -0.4233 -0.0454
 2882W        W19730  12.987   9.454  12.238  0.4285  0.0385 -0.1140
 2883W        W19731   0.189  15.578   4.514 -0.1659 -0.0368 -0.0365
 2884W        W19732   8.667   3.763  15.204 -0.2668 -0.1488 -0.4202
 2885W        W19733  12.780   8.640   3.113 -0.1254  0.0410  0.0703
 2886W        W19734   3.524  16.503  13.206  0.1774 -0.1831  0.0812
 2887W        W19735  15.535   1.386  12.862 -0.2545  0.0400  0.0890
 2888W        W19736   6.800  16.993  15.118  0.2478  0.0415  0.1514
 2889W        W19737   7.185   0.504   0.314  0.2503 -0.1219 -0.0658
 2890W        W19738   9.372   9.614   0.276 -0.1091 -0.5534 -0.2801
 2891W        W19739   5.240   3.943   1.845 -0.1570  0.3350 -0.1169
 2892W        W19740  11.577  11.256  12.200  0.2563 -0.2162 -0.4478
 2893W        W19741  13.467  16.360   2.186  0.0455 -0.2485 -0.2296
 2894W        W19742  17.586   1.413  12.496 -0.0881  0.1803 -0.1032
 2895W        W19743   8.002   5.231  10.761 -0.1039  0.2834 -0.2414
 2896W        W19744   9.290   3.072  14.010  0.0893 -0.0929  0.5794
 2897W        W19745  12.069  14.194  11.414  0.0302 -0.1101 -0.1222
 2898W        W19746  15.078  13.505   4.290  0.0792 -0.1005  0.0800
 2899W        W19747  12.474  12.564   0.433 -0.1051 -0.0251  0.1739
 2900W        W19748   5.733  14.161   0.082  0.2397 -0.1344  0.1957
 2901W        W19749  16.743   6.372  12.498  0.1073  0.0420  0.2631
 2902W        W19750  17.579  14.939   4.116  0.1555  0.0155  0.4391
 2903W        W19751   8.575   4.962   4.216 -0.0313 -0.3110 -0.2210
 2904W        W19752  11.021  12.036   3.102 -0.3139 -0.0798 -0.4165
 2905W        W19753  10.560   8.048   1.873  0.0205  0.5660 -0.0816
 2906W        W19754  12.927   7.577  12.376 -0.3209 -0.2110  0.0956
 2907W        W19755  13.690  17.651   3.664 -0.2844 -0.1666 -0.0842
 2908W        W19756   8.155   5.691   3.975 -0.0662 -0.0327 -0.1864
 2909W        W19757  16.622  12.363  10.672  0.1292 -0.0264 -0.1407
 2910W        W19758  17.447  12.348  13.922  0.1674  0.2490 -0.0405
 2911W        W19759   1.127   1.856  15.583  0.2522  0.1878 -0.0152
 2912W        W19760   9.800   5.650  10.637 -0.3293 -0.0683 -0.0814
 2913W        W19761   1.594   4.977   3.514 -0.1076  0.1359  0.0549
 2914W        W19762   2.401   6.083  13.404 -0.0885  0.0243  0.2134
 2915W        W19763   6.727   0.698   2.438 -0.0654 -0.0052 -0.0902
 2916W        W19764   0.929   8.160  15.759 -0.1126  0.0861  0.1787
 2917W        W19765  16.310   9.888   3.239  0.0272  0.0744  0.1747
 2918W        W19766  12.168  11.927  11.945 -0.0635 -0.1979 -0.2191
 2919W        W19767  12.594   0.627  15.566 -0.4100 -0.0028  0.0125
 2920W        W19768  17.456  17.478   1.969  0.4561  0.1890 -0.3768
 2921W        W19769  12.431   1.581  12.487  0.0558  0.3154  0.0720
 2922W        W19770  15.161  11.844  14.057 -0.3493 -0.0564 -0.1116
 2923W        W19771  16.149  13.201   2.474  0.4653 -0.0906  0.1914
 2924W        W19772   0.231  13.357   0.176  0.0451 -0.3845  0.1685
 2925W        W19773   5.773   1.760  13.458  0.1140  0.2776  0.3749
 2926W        W19774  17.835   9.142   0.664 -0.3943 -0.1924  0.1493
 2927W        W19775   7.012  17.880   3.596 -0.3169 -0.2342  0.0760
 2928W        W19776   2.086  13.427   0.980 -0.2445 -0.0713 -0.0500
 2929W        W19777  12.875  17.796   3.702  0.2886  0.1457 -0.0230
 2930W        W19778   1.288  14.294  11.382  0.3273 -0.0419  0.1081
 2931W        W19779   1.947  11.352  12.149 -0.0038  0.0178 -0.0718
 2932W        W19780  13.181  12.184   4.376 -0.0176  0.0584 -0.1186
 2933W        W19781  12.761   2.830  12.240 -0.2335  0.2046  0.2393
 2934W        W19782  17.759  17.554  13.460  0.4228 -0.0509  0.0443
 2935W        W19783   5.180  14.762  13.020 -0.0024 -0.0949 -0.1488
 2936W        W19784   4.612   7.032   3.359 -0.0009  0.2158  0.1431
 2937W        W19785  15.456  11.059  15.056 -0.2833  0.0723  0.0713
 2938W        W19786   8.886  12.667   4.952  0.0571 -0.0425 -0.2104
 2939W        W19787   8.753   8.487   4.776  0.0244  0.3492  0.1487
 2940W        W19788   3.252   1.197  14.300 -0.0638  0.1709 -0.0355
 2941W        W19789  11.787   2.221   4.690  0.0943  0.0828 -0.0402
 2942W        W19790   1.344  12.075  10.837 -0.2308 -0.0888  0.1071
 2943W        W19791   0.896  10.771  14.663 -0.0364  0.3368  0.0202
 2944W        W19792   6.927  12.519   0.329 -0.3411  0.1424  0.0592
 2945W        W19793   6.980  14.568   1.176 -0.1923  0.1922 -0.2965
 2946W        W19794  16.101  15.362   2.459 -0.0404  0.0237 -0.1165
 2947W        W19795   6.714  16.942   4.954 -0.0915  0.0389 -0.2377
 2948W        W19796   5.525  16.915  12.181 -0.0570 -0.0729  0.0251
 2949W        W19797   4.890   9.861  15.015 -0.0875  0.1976  0.0721
 2950W        W19798  10.865  11.671  14.476 -0.0427 -0.1562  0.0548
 2951W        W19799  17.460   4.264   6.162 -0.0058 -0.1442  0.1151
 2952W        W19800  16.347  11.146   2.433 -0.0133  0.1210 -0.1178
 2953W        W19801  16.596   4.660   1.540 -0.1029 -0.3108 -0.3627
 2954W        W19802   0.626  14.757   4.523 -0.2747  0.0147 -0.0487
 2955W        W19803   0.117   3.673  11.915 -0.0738  0.1262  0.0475
 2956W        W19804  15.593   1.866  15.861 -0.1896  0.0984 -0.1595
 2957W        W19805   0.993   7.935   2.116  0.0011 -0.0215  0.1078
 2958W        W19806   4.146  10.322   0.494  0.2476 -0.2339 -0.2000
 2959W        W19807   1.728   8.933   1.375  0.6000  0.2121  0.0681
 2960W        W19808   6.395  11.164  11.197  0.3081  0.2378  0.0411
 2961W        W19809  12.351  13.556   1.954 -0.1577 -0.1451  0.1477
 2962W        W19810   9.570  11.005  13.096 -0.2560  0.0881 -0.0536
 2963W        W19811   0.964  16.017  15.071  0.0536  0.0903 -0.0216
 2964W        W19812   3.801   1.487  14.907  0.0090  0.0174 -0.1931
 2965W        W19813   2.714  13.092  15.161 -0.0485 -0.0945  0.0944
 2966W        W19814   9.498  16.312  13.001  0.3338 -0.1561 -0.0159
 2967W        W19815   0.384   8.574   0.068 -0.2129 -0.0320  0.1808
 2968W        W19816  15.598   2.711   0.537 -0.0234 -0.3960  0.4335
 2969W        W19817  15.917  12.804   1.441 -0.4568 -0.0063  0.0007
 2970W        W19818   7.464   8.557   2.030  0.0244 -0.2349  0.1692
 2971W        W19819  13.102  12.274   3.603  0.0794  0.0856  0.1044
 2972W        W19820   1.848   1.612  16.142 -0.1449 -0.3540 -0.2395
 2973W        W19821  16.205   8.417   5.055  0.0060 -0.0479 -0.1563
 2974W        W19822   4.076  17.281   1.553 -0.1867 -0.1540  0.1599
 2975W        W19823   8.054   1.625  16.198  0.4764 -0.0452 -0.0170
 2976W        W19824   0.210  10.398  12.092 -0.0616  0.2569 -0.3121
 2977W        W19825  11.055  12.503   2.443  0.0386 -0.2433  0.0550
 2978W        W19826  12.589  14.764   0.914  0.1049  0.3361  0.3561
 2979W        W19827  13.127   7.617  16.324  0.1880  0.2803  0.1601
 2980W        W19828  16.669   3.619   4.428 -0.2076  0.3706 -0.0278
 2981W        W19829   3.002   8.389  11.648  0.1362 -0.1023 -0.2118
 2982W        W19830  13.903   5.201   4.248  0.0399 -0.1387 -0.0082
 2983W        W19831  11.532   9.493   3.308  0.1129  0.2219  0.2054
 2984W        W19832   9.361  10.003   2.647 -0.4686  0.0653 -0.0027
 2985W        W19833  16.952   1.187  13.652 -0.0991 -0.1967 -0.0843
 2986W        W19834   2.643   6.357   1.654 -0.0117 -0.1556  0.0196
 2987W        W19835  11.780  10.576   4.295  0.0786 -0.0593  0.0685
 2988W        W19836   3.453   0.802  11.741  0.2410 -0.1039  0.0315
 2989W        W19837   4.115   7.457   1.101  0.1260 -0.0122  0.1801
 2990W        W19838   2.295  15.796  13.833  0.0877 -0.1584 -0.0551
 2991W        W19839  12.691   1.402  14.425 -0.4289  0.2570  0.0980
 2992W        W19840   5.548   1.808   2.195 -0.3128  0.0431 -0.3261
 2993W        W19841  13.014   6.030  15.972  0.3982  0.1409 -0.3119
 2994W        W19842   6.566   8.530   3.248 -0.0065 -0.1650  0.1699
 2995W        W19843   3.397   9.117   4.352 -0.1498 -0.0103 -0.1654
 2996W        W19844   7.824   7.404   3.951  0.1760 -0.1822 -0.0427
 2997W        W19845   2.693  15.557  12.547 -0.1259 -0.2846  0.0621
 2998W        W19846   5.181   7.790  11.711  0.0482 -0.2249  0.2485
 2999W        W19847   8.926   1.785   3.561 -0.0794 -0.0055 -0.0906
 3000W        W19848  16.137  16.890   2.786  0.0597 -0.1726 -0.3010
 3001W        W19849   8.252  13.976   5.395  0.0940  0.0004  0.0880
 3002W        W19850  15.795   7.487   5.180 -0.0153  0.0960 -0.1030
 3003W        W19851  15.903   7.839  13.908  0.0033  0.1607 -0.0800
 3004W        W19852   4.417   1.637  13.097  0.1041 -0.0175  0.1921
 3005W        W19853  13.426   8.269  14.795 -0.2429  0.2192  0.0208
 3006W        W19854   5.388   1.261   2.500 -0.0590  0.1007 -0.1043
 3007W        W19855   1.143   4.076   1.986  0.0272  0.0170  0.0306
 3008W        W19856   7.323   6.564   1.568 -0.0515  0.0214  0.6187
 3009W        W19857  15.311   0.658  11.272  0.0922 -0.1409 -0.1375
 3010W        W19858   8.009  11.833   4.919  0.0104 -0.1129  0.0325
 3011W        W19859  10.439   5.605   3.422  0.1746  0.1466 -0.0111
 3012W        W19860  13.139   3.828  14.971  0.3044 -0.1148 -0.2367
 3013W        W19861   8.140   9.413   0.112 -0.2893 -0.1627  0.0629
 3014W        W19862  15.531   3.816  11.823 -0.3956  0.1333 -0.0439
 3015W        W19863  11.671  14.945  15.690  0.2022 -0.0969  0.0793
 3016W        W19864  14.961   2.230   0.065  0.0007  0.1954 -0.1847
 3017W        W19865  17.886  16.107  16.330 -0.0975  0.2723 -0.0704
 3018W        W19866  12.466   7.549  13.010 -0.1429 -0.0603  0.2636
 3019W        W19867   5.087   9.877   2.948  0.2061 -0.1094 -0.1554
 3020W        W19868   7.131  14.371   4.413 -0.1331  0.1468  0.2545
 3021W        W19869   8.364  11.686   2.560 -0.0281  0.4246 -0.2400
 3022W        W19870   0.716   5.253   2.800 -0.2163 -0.0230 -0.0060
 3023W        W19871  12.125   4.921  10.340 -0.1062  0.1066  0.0875
 3024W        W19872   3.357  14.957   1.879  0.1041 -0.0150  0.0920
 3025W        W19873   8.418  12.992   2.012 -0.1689  0.0487  0.1674
 3026W        W19874   1.895   0.968  11.318  0.0887 -0.4565 -0.1574
 3027W        W19875   5.507   3.096  15.809  0.2748  0.0067 -0.0514
 3028W        W19876   1.543   4.126   1.481 -0.0386  0.1399  0.4793
 3029W        W19877   1.342  16.037  13.184 -0.4526 -0.1244  0.3161
 3030W        W19878   1.477  12.604   0.015  0.0149  0.0885  0.1684
 3031W        W19879   5.595  12.421   5.172  0.1324  0.2203  0.1055
 3032W        W19880   8.811  11.022   5.191 -0.0924  0.3934 -0.2312
 3033W        W19881  16.803   0.442  14.006  0.1050 -0.0461  0.0184
 3034W        W19882  10.485  17.614   1.407 -0.2595 -0.1742 -0.0097
 3035W        W19883   8.433  15.097  14.704 -0.0841 -0.0915  0.1102
 3036W        W19884   7.189   4.447  15.252 -0.0410  0.0482  0.3087
 3037W        W19885   3.964   7.791   4.815  0.3523 -0.0170 -0.1997
 3038W        W19886   8.551   0.185  16.471 -0.0196 -0.2081 -0.0726
 3039W        W19887  17.708   1.144   3.398 -0.4984 -0.0056  0.1702
 3040W        W19888   7.200  14.361  15.236  0.0714  0.1208  0.0098
 3041W        W19889  17.419   8.184   4.161  0.0886  0.1180  0.0710
 3042W        W19890  11.719  13.000   0.812 -0.1765 -0.1324 -0.0657
 3043W        W19891  13.736   0.864   2.931  0.3015  0.0073  0.0246
 3044W        W19892   2.356   7.861   0.726 -0.2429  0.1561 -0.0809
 3045W        W19893   8.683   0.024   3.741 -0.1502 -0.2739  0.1084
 3046W        W19894  15.959   0.344   4.736 -0.1165  0.0486  0.1538
 3047W        W19895  11.925   7.220   2.113  0.0239  0.2380  0.3375
 3048W        W19896   4.379   7.757   3.939 -0.1649  0.0873 -0.2504
 3049W        W19897   8.924  14.266  15.624  0.1302 -0.2540  0.2614
 3050W        W19898   9.797   3.622   3.418 -0.2167  0.1816 -0.1334
 3051W        W19899  16.911  13.518   2.412 -0.0561  0.1003  0.1928
 3052W        W19900   2.809  15.028  16.472 -0.1312 -0.1114 -0.0736
 3053W        W19901   7.427  10.815  13.372 -0.3153  0.3649 -0.3610
 3054W        W19902  16.018   9.435   0.533  0.0397 -0.0774  0.1492
 3055W        W19903  11.497   9.975  15.451  0.3568 -0.2873 -0.0439
 3056W        W19904  17.326  11.071  13.039  0.2831 -0.1455  0.2241
 3057W        W19905   9.411   9.979   4.835  0.4665 -0.0786  0.1813
 3058W        W19906  15.342   7.417  11.278 -0.0020 -0.0008  0.0861
 3059W        W19907   2.596  13.782   1.252 -0.1851 -0.1303  0.1303
 3060W        W19908  11.177  16.027  10.275 -0.0255  0.1457  0.1269
 3061W        W19909  11.704   0.192  12.777  0.1010 -0.0770 -0.2772
 3062W        W19910  15.510   4.210  13.998  0.2888  0.0884 -0.2159
 3063W        W19911   9.222  11.472  15.785 -0.0496  0.0272 -0.0176
 3064W        W19912   4.176  14.859   2.832  0.1200 -0.0599  0.0600
 3065W        W19913  15.536   3.946   3.697 -0.4032  0.0565 -0.0955
 3066W        W19914   7.451   4.232  15.753 -0.1957  0.2604  0.0085
 3067W        W19915  16.767  12.128  12.038 -0.1921 -0.2254 -0.1095
 3068W        W19916  16.642  17.312   3.136  0.1156  0.1068  0.0824
 3069W        W19917  14.402  12.088  11.714 -0.0777 -0.1347  0.0701
 3070W        W19918   1.234   8.744   1.140  0.1066  0.2789  0.1020
 3071W        W19919   8.068   1.232  13.654 -0.1783  0.0749  0.0152
 3072W        W19920   2.882  15.802   1.839  0.0346 -0.1360 -0.0978
 3073W        W19921  11.065  12.664   3.861 -0.2114 -0.0473 -0.2462
 3074W        W19922   2.643  15.826  15.771 -0.0740  0.0436 -0.0510
 3075W        W19923  14.225   7.440   4.214 -0.2258 -0.3473  0.0013
 3076W        W19924   3.564  16.662  14.880 -0.2332 -0.0532  0.1686
 3077W        W19925  15.361  16.716  12.492  0.0384 -0.1221  0.1861
 3078W        W19926   4.812  16.649  15.196  0.0955 -0.0450  0.0620
 3079W        W19927   3.643  15.860   0.092 -0.1288 -0.4441 -0.0713
 3080W        W19928  14.889   2.028   3.110 -0.0682  0.1294 -0.0577
 3081W        W19929   1.727  15.990  14.744 -0.0723 -0.1453 -0.2088
 3082W        W19930   8.216  17.138  12.335  0.1227 -0.1334  0.0105
 3083W        W19931  17.517  10.689   2.915 -0.0756  0.0517  0.2719
 3084W        W19932  14.579  15.476   1.666 -0.0889  0.1151 -0.0228
 3085W        W19933   7.448  16.396   5.393  0.2144  0.1654 -0.1542
 3086W        W19934  14.626   7.851  12.353 -0.0154 -0.2272  0.0903
 3087W        W19935   5.805  16.479   4.933 -0.0366  0.1382  0.1305
 3088W        W19936   2.321   5.202  13.590  0.0635 -0.2676 -0.0635
 3089W        W19937   5.782   6.755   3.067 -0.2699  0.0014  0.0645
 3090W        W19938  16.465  10.156   2.520  0.0368 -0.2164 -0.2562
 3091W        W19939  15.362   0.728  14.066  0.1289  0.3109 -0.1166
 3092W        W19940  11.860  14.043  15.716 -0.2168  0.2643 -0.0983
 3093W        W19941   3.777  17.033  11.724 -0.0156  0.0168 -0.0922
 3094W        W19942  15.223   9.261   2.715 -0.0160  0.0624  0.2166
 3095W        W19943  10.571   6.293  13.818  0.1510  0.0351 -0.0083
 3096W        W19944   1.599   9.197  14.333 -0.1526  0.0085  0.0435
 3097W        W19945   0.264   8.959  15.379  0.1081  0.0573 -0.0859
 3098W        W19946   7.451   9.756   0.853 -0.1242 -0.0215 -0.2240
 3099W        W19947   7.758   5.063  14.722 -0.4860 -0.0491 -0.0144
 3100W        W19948  11.784   2.063   4.106  0.0830  0.0613  0.0849
 3101W        W19949   1.196   7.132  14.777 -0.0653  0.2485  0.2766
 3102W        W19950   0.642  13.631   0.710  0.1133  0.2437 -0.1455
 3103W        W19951  12.213   8.887  12.803  0.1184  0.1173 -0.0846
 3104W        W19952  16.671  17.647  16.157 -0.0672 -0.0002  0.1657
 3105W        W19953   6.916  13.888   1.899  0.5184  0.2802 -0.0629
 3106W        W19954   3.879  15.349   3.917  0.3594  0.1644 -0.1858
 3107W        W19955  15.939  15.078  12.546  0.1152 -0.0800  0.1027
 3108W        W19956  14.012   6.451   1.742 -0.3627 -0.0474 -0.2028
 3109W        W19957   7.959   9.384   5.334 -0.1791  0.0993  0.2740
 3110W        W19958   3.519   3.170   1.195  0.3151  0.4538  0.0634
 3111W        W19959   3.675   0.375   1.989 -0.2506  0.4562 -0.0286
 3112W        W19960  17.212   0.650  11.534  0.0333  0.0885 -0.0434
 3113W        W19961   8.701  17.167  11.701  0.1778 -0.0856  0.2087
 3114W        W19962  10.872  13.492   5.011  0.0862  0.0404 -0.1527
 3115W        W19963   4.453   0.643   4.806 -0.3627 -0.1600  0.2397
 3116W        W19964  15.937  13.757   1.216  0.0728 -0.0897  0.1223
 3117W        W19965   0.502   9.885  14.657 -0.1384  0.0181  0.0621
 3118W        W19966   2.453  13.773   0.188 -0.1936 -0.0474  0.2032
 3119W        W19967   0.622   9.372  15.350 -0.1254 -0.0102 -0.2737
 3120W        W19968  13.538   9.125   0.995  0.0473  0.0383  0.1006
 3121W        W19969   0.787  11.528   3.584 -0.0393 -0.0304 -0.0576
 3122W        W19970  12.617   4.976  10.568 -0.1670 -0.2289 -0.0681
 3123W        W19971  15.063   3.146  13.145 -0.0348 -0.1450  0.0274
 3124W        W19972   2.115  11.699  15.835 -0.0179 -0.0990 -0.1867
 3125W        W19973   0.881  16.361   2.180  0.0700  0.2335 -0.0207
 3126W        W19974  14.262   7.136   0.984  0.2838  0.0119  0.1479
 3127W        W19975   9.568  13.398  13.895  0.1819  0.1069  0.2262
 3128W        W19976   2.786  15.499   3.026 -0.2256  0.0670 -0.2377
 3129W        W19977   9.378   1.667   4.912 -0.1660  0.2260  0.2423
 3130W        W19978  11.237  15.773   4.220  0.0119 -0.0399 -0.2041
 3131W        W19979  16.996  11.002  14.676 -0.0803  0.0887 -0.0721
 3132W        W19980   0.447   8.083   0.027  0.1398 -0.1283 -0.2128
 3133W        W19981   1.398  17.190  13.570 -0.1539 -0.2673 -0.4030
 3134W        W19982  16.043   4.167  14.259 -0.2563 -0.0995 -0.0490
 3135W        W19983   2.723  16.058  11.311  0.0231 -0.1248  0.2124
 3136W        W19984   2.336   5.728   0.274 -0.0843  0.2185  0.1511
 3137W        W19985   4.224   0.859  16.333  0.0434 -0.0749  0.1045
 3138W        W19986  15.481   0.085  10.442 -0.3134  0.0429 -0.0283
 3139W        W19987  14.992   1.104  11.547  0.0422  0.0782  0.1950
 3140W        W19988  16.647  16.027   2.938 -0.0789  0.1324 -0.2634
 3141W        W19989  11.199  17.030  10.683 -0.2015  0.0682  0.0701
 3142W        W19990  15.558   5.381   1.997 -0.0654 -0.1075  0.0256
 3143W        W19991  16.986   3.019   5.927  0.0155  0.2975 -0.2965
 3144W        W19992   4.602  12.261   2.283  0.3026  0.2984 -0.1049
 3145W        W19993   6.800   7.925  11.736 -0.4307 -0.0005 -0.0755
 3146W        W19994   3.756  14.326  12.016  0.0426 -0.1943  0.3041
 3147W        W19995   4.372   5.076   2.923  0.0013  0.0368 -0.2524
 3148W        W19996   3.191  11.982  13.715  0.0003 -0.1577  0.0535
 3149W        W19997   8.874   2.394  14.343  0.3043 -0.2341  0.2329
 3150W        W19998   1.854   3.767   1.382  0.0481  0.0888  0.0855
 3151W        W19999   2.364   6.273  14.821  0.3751  0.0264 -0.0273
 3152W        W20000   6.727  12.512   3.996 -0.0136  0.3263  0.0899
 3153W        W20001  15.180  17.585   0.047 -0.1899 -0.0487 -0.0745
 3154W        W20002   6.206  15.286  10.549  0.2640  0.0627  0.1413
 3155W        W20003   5.643  15.414   5.553 -0.2305  0.4221  0.0446
 3156W        W20004   6.690  14.817  14.708  0.5259 -0.2250  0.2526
 3157W        W20005  16.703   0.665  14.429  0.1535 -0.2979 -0.2034
 3158W        W20006   4.560   5.926   2.106 -0.1217 -0.3804 -0.0416
 3159W        W20007   3.734  14.953   3.199  0.1299 -0.0314  0.0799
 3160W        W20008  14.653   1.188  14.400 -0.2531  0.2592  0.1723
 3161W        W20009   7.186  13.995   0.128 -0.1624  0.0311  0.0919
 3162W        W20010   5.835   1.527   1.622 -0.1707  0.0768 -0.2276
 3163W        W20011   1.997  17.157   2.865 -0.0766  0.0391  0.0548
 3164W        W20012   4.021  14.997   5.251 -0.1054 -0.1541  0.3209
 3165W        W20013   7.068   5.626   1.167 -0.1165 -0.0665 -0.1372
 3166W        W20014   2.863   3.810  15.199  0.0065 -0.0113 -0.1077
 3167W        W20015   0.503  15.496  11.607 -0.1775 -0.1616  0.3165
 3168W        W20016   4.685  14.347  10.954 -0.2680 -0.1022 -0.0200
 3169W        W20017  12.880  14.005   0.461 -0.1208  0.1741 -0.2435
 3170W        W20018  14.941   5.342  16.133 -0.1738 -0.0388  0.1478
 3171W        W20019  10.916  14.781  13.666  0.2565  0.0482 -0.1230
 3172W        W20020   5.003   0.816  14.789 -0.0475  0.1212  0.1923
 3173W        W20021   3.606   7.756  12.541  0.3939 -0.2832 -0.0234
 3174W        W20022   8.441  12.966  14.846  0.3885  0.1093  0.1557
 3175W        W20023  13.594  14.048  16.316 -0.2000  0.2674  0.0905
 3176W        W20024   5.849  10.718  14.190  0.0164  0.0649 -0.1035
 3177W        W20025  10.708  13.158  14.541 -0.0615 -0.1471 -0.1250
 3178W        W20026  10.509  10.304  15.741 -0.0554 -0.0424  0.2533
 3179W        W20027   3.139   4.806  15.361 -0.4500 -0.2739 -0.0753
 3180W        W20028   8.632   0.627  14.920 -0.0792  0.2360 -0.3400
 3181W        W20029  16.723  10.597   0.696  0.2252 -0.0405  0.1376
 3182W        W20030   5.444   6.291   0.854 -0.0371 -0.3040  0.2999
 3183W        W20031  13.895   7.065   3.286  0.0150  0.0474 -0.0562
 3184W        W20032   6.996   8.203  11.324  0.0724 -0.1741 -0.1659
 3185W        W20033   1.411  13.810  12.307  0.0512 -0.0170  0.2760
 3186W        W20034   6.226   1.960   3.562 -0.0029 -0.0590 -0.2221
 3187W        W20035  12.474  13.502   3.496  0.1142 -0.4497  0.1170
 3188W        W20036   6.987   3.784   4.369  0.0869 -0.0718 -0.1057
 3189W        W20037  16.037  13.347   4.183 -0.0523  0.2379 -0.1057
 3190W        W20038   3.042  17.386   1.558  0.0596 -0.1982  0.0729
 3191W        W20039   4.338  13.400  12.168 -0.2078  0.0581  0.1034
 3192W        W20040  16.016  14.473   4.827  0.0308 -0.0569  0.2620
 3193W        W20041   3.273  14.073  10.305  0.3794  0.1454 -0.1994
 3194W        W20042   8.952   4.114  14.229 -0.1479 -0.1583  0.1915
 3195W        W20043  12.856   6.393  16.271  0.0868 -0.1914 -0.0265
 3196W        W20044  10.137   6.899  16.342  0.4335 -0.2029  0.0103
 3197W        W20045  15.093   8.960   0.137  0.1069 -0.0953  0.2604
 3198W        W20046  14.064  13.997  13.319  0.3218 -0.2327  0.2996
 3199W        W20047   7.309  12.798   2.441  0.2247 -0.1125 -0.0963
 3200W        W20048   5.250   8.474   4.166 -0.0852  0.1476  0.0771
 3201W        W20049  11.114   4.824   1.275 -0.1402  0.4381 -0.1236
 3202W        W20050   2.491   1.743   3.425  0.0496  0.1485  0.1501
 3203W        W20051  13.773  12.298  12.439 -0.1284  0.0568 -0.1766
 3204W        W20052   5.989   9.926   3.454 -0.0488 -0.1322  0.0003
 3205W        W20053   4.400  10.900  12.997 -0.1749 -0.1890  0.5915
 3206W        W20054   2.579   7.402   3.095 -0.4689  0.1250  0.1207
 3207W        W20055  12.885  12.270   3.068  0.0095 -0.1386 -0.1594
 3208W        W20056  10.145   5.487  14.134  0.0680  0.0334 -0.1457
 3209W        W20057   1.898   2.926  14.906  0.3334  0.2056  0.2216
 3210W        W20058  14.676   6.234   2.296  0.0777  0.3169 -0.1897
 3211W        W20059   4.272  15.654   1.651  0.1048  0.0131 -0.2801
 3212W        W20060  14.344  11.920   0.507  0.2985 -0.2725  0.1710
 3213W        W20061  12.654   7.928  12.745  0.4437 -0.1419  0.0967
 3214W        W20062  10.196   3.936  14.336  0.3995 -0.3710  0.0118
 3215W        W20063   9.573   6.433   2.514 -0.0623  0.2335 -0.0935
 3216W        W20064  16.346   4.982   2.770 -0.3898 -0.1115  0.0894
 3217W        W20065   7.086   8.268   1.963 -0.3056  0.2941 -0.5625
 3218W        W20066  17.782   8.012  11.212  0.1564  0.0929 -0.0157
 3219W        W20067   9.574  11.328   2.118  0.0495  0.2793 -0.0881
 3220W        W20068   4.234   6.796   0.110  0.0395  0.1447 -0.2799
 3221W        W20069   1.019   0.971   2.843  0.1078  0.2870  0.0471
 3222W        W20070  17.806  13.386  11.170  0.0544 -0.0612 -0.1318
 3223W        W20071   4.816  13.716   1.091 -0.1012  0.1089 -0.0337
 3224W        W20072  10.900   3.192  13.527 -0.3176 -0.1247 -0.0827
 3225W        W20073   5.646  16.146  14.721  0.0520  0.0701  0.0858
 3226W        W20074   8.226  14.192  16.428  0.2061  0.0913 -0.1562
 3227W        W20075   2.531  17.594   0.362  0.3354 -0.1893  0.2457
 3228W        W20076   6.018   3.248  13.342  0.2124 -0.2495 -0.0799
 3229W        W20077  13.320   9.214  14.809 -0.1455  0.2647 -0.0286
 3230W        W20078  10.175   2.458  15.034  0.1116 -0.2357 -0.0234
 3231W        W20079   4.864   4.972  12.413  0.0432 -0.2547  0.0216
 3232W        W20080  11.085   3.803   1.077 -0.0036 -0.0762 -0.1733
 3233W        W20081  13.166   7.304  14.744  0.2098 -0.0223  0.2752
 3234W        W20082  12.419   5.961  13.826  0.1286  0.3395  0.0165
 3235W        W20083   0.803  14.615   0.654 -0.1716 -0.1653  0.0849
 3236W        W20084   3.499   5.727   0.293  0.0124  0.3130  0.0665
 3237W        W20085  15.118  17.113   0.212  0.0778  0.0812 -0.2150
 3238W        W20086  17.538   8.520   4.561 -0.1686  0.0046 -0.1486
 3239W        W20087  14.227  15.138   0.997 -0.0484 -0.5616  0.4763
 3240W        W20088   4.673   3.345  11.202 -0.0090  0.0083  0.2113
 3241W        W20089  13.626   0.424  11.999 -0.1664  0.0288  0.1722
 3242W        W20090   9.293  16.199   5.001  0.1764 -0.1596  0.0140
 3243W        W20091  11.679  17.342   4.163  0.2864 -0.1094  0.0812
 3244W        W20092  12.455   1.668   1.913  0.2903 -0.0450 -0.0981
 3245W        W20093   3.748   1.917  15.244  0.0987 -0.0567  0.0068
 3246W        W20094   5.131  11.038   5.945 -0.2203 -0.3057 -0.1030
 3247W        W20095   2.298  12.942  15.950  0.0124  0.0545 -0.2385
 3248W        W20096   5.774   5.906   0.875 -0.0820  0.1408  0.2198
 3249W        W20097   4.541  13.675   3.973 -0.2122 -0.0149  0.2587
 3250W        W20098  17.014  14.148   0.265 -0.0191  0.2589 -0.0985
 3251W        W20099   2.248  15.305  13.551 -0.2532  0.1265  0.1043
 3252W        W20100  14.956   4.461   5.367 -0.1284  0.1421  0.0475
 3253W        W20101  15.133   3.236   2.647  0.1353 -0.3226  0.0818
 3254W        W20102   9.648  11.431  14.802 -0.2385  0.0494  0.0136
 3255W        W20103   1.208   5.330   2.991 -0.0052 -0.0497 -0.0774
 3256W        W20104   6.861  15.265  14.735 -0.0870 -0.0063  0.0644
 3257W        W20105   8.082  12.345   4.806 -0.0564  0.1644  0.1507
 3258W        W20106   8.982  11.343   1.371 -0.0806  0.2211 -0.0529
 3259W        W20107   8.864  14.441   0.986 -0.0274 -0.3613 -0.2583
 3260W        W20108   4.125   4.299  13.952 -0.2141 -0.1483 -0.1236
 3261W        W20109   0.292   9.718  11.989 -0.1837 -0.0492  0.0261
 3262W        W20110  16.692  12.231  11.155  0.0789  0.1385 -0.0325
 3263W        W20111  16.905   4.295   0.111 -0.3115  0.1381 -0.1817
 3264W        W20112   3.870   2.551  13.644 -0.1882 -0.0795  0.1576
 3265W        W20113   0.227   5.788  16.139  0.0345 -0.1197  0.0584
 3266W        W20114  12.013   7.942  11.526  0.2028  0.1846  0.0418
 3267W        W20115   4.032   7.401   0.197 -0.3525  0.0261  0.2993
 3268W        W20116   0.582   2.729  14.690  0.3708  0.0042 -0.0215
 3269W        W20117  10.443   7.791   0.035 -0.1045  0.1068  0.1412
 3270W        W20118   4.012   1.356  11.636  0.1343 -0.0022  0.0512
 3271W        W20119  12.568   6.223  14.222  0.0237 -0.1308 -0.0509
 3272W        W20120  16.582   1.683  10.696  0.3809 -0.2416 -0.1800
 3273W        W20121   5.848  14.920  10.521  0.2791  0.0425  0.1956
 3274W        W20122   3.125   8.150  14.148  0.0424  0.0295  0.1342
 3275W        W20123   3.959   3.649  14.528  0.1503 -0.2356 -0.0514
 3276W        W20124  10.230   9.211   2.355 -0.2673  0.0576 -0.2649
 3277W        W20125  13.675  13.753  14.073  0.1466 -0.0653  0.2579
 3278W        W20126   7.249   3.452   4.888  0.2978  0.0773  0.1747
 3279W        W20127  10.376  10.287  13.413  0.1847  0.0135  0.0017
 3280W        W20128   3.460   5.031  14.479 -0.1261  0.0174 -0.1355
 3281W        W20129  17.437  14.539  11.545  0.0974 -0.0129 -0.0601
 3282W        W20130   9.542   1.039  11.246 -0.1679  0.1599 -0.0859
 3283W        W20131   9.864  17.376   4.756  0.0109 -0.3036 -0.0706
 3284W        W20132   7.823   0.755  16.215  0.0561 -0.0401 -0.0921
 3285W        W20133   1.360   4.767   1.263  0.0880  0.0358  0.1202
 3286W        W20134   4.622   7.785   4.410  0.0251 -0.3277  0.1422
 3287W        W20135  17.813  10.385   2.480 -0.0572 -0.3461 -0.1653
 3288W        W20136   5.269   9.696   1.434 -0.0964  0.0553  0.0485
 3289W        W20137  10.490  13.528  13.075  0.3941  0.0484 -0.0406
 3290W        W20138   1.593  17.837   4.449 -0.1599  0.0990 -0.2089
 3291W        W20139  16.812   9.622  12.335 -0.2961  0.0558  0.3479
 3292W        W20140   9.319   0.845  12.620  0.1718  0.0953  0.2450
 3293W        W20141  14.457  16.727   3.333 -0.2889  0.2002  0.1903
 3294W        W20142   5.816   9.996   2.908 -0.2801  0.0910 -0.0816
 3295W        W20143  15.699  17.622  16.360  0.3057 -0.1753  0.3029
 3296W        W20144   9.574   4.368  14.819 -0.0771  0.2949  0.1383
 3297W        W20145  17.565  11.339  11.284  0.1537  0.1303 -0.2642
 3298W        W20146   9.327   9.228  15.359 -0.0189 -0.2280 -0.2226
 3299W        W20147  10.249   1.519   3.769  0.0959  0.0421  0.1426
 3300W        W20148   6.396  13.245   1.893  0.1104  0.2379 -0.6077
 3301W        W20149   1.966   8.712   3.577  0.0128  0.2591  0.0532
 3302W        W20150   9.880  10.693  14.578 -0.3430  0.1582 -0.0191
 3303W        W20151  11.289   0.584  10.902  0.0220 -0.1457 -0.0652
 3304W        W20152   8.744  13.672   4.504  0.1188  0.0578  0.3225
 3305W        W20153   4.410   0.150   1.203  0.1832 -0.4995  0.1368
 3306W        W20154   0.513   1.460   0.327 -0.1342  0.1148 -0.1636
 3307W        W20155  11.667  13.606  13.025 -0.0133 -0.1175  0.0634
 3308W        W20156   3.811   6.426   0.950 -0.0416  0.3616  0.3043
 3309W        W20157  15.804   1.728   3.312 -0.0894  0.0566 -0.0208
 3310W        W20158   7.982  14.008  14.695 -0.1154 -0.1492  0.0182
 3311W        W20159  11.448   7.331  15.097  0.0340 -0.0880 -0.2205
 3312W        W20160   4.642  17.408  13.071 -0.2399  0.2544 -0.0544
 3313W        W20161   2.367   6.605   1.302 -0.0717 -0.1259  0.2896
 3314W        W20162   4.287  10.933   2.906 -0.0446 -0.2347  0.3237
 3315W        W20163  14.300   4.153   2.266  0.2591  0.1383 -0.1838
 3316W        W20164   2.671   7.812  11.443  0.6943  0.0157 -0.2256
 3317W        W20165   8.026  16.455   4.604  0.1177 -0.1397 -0.0747
 3318W        W20166  16.044  17.257   4.600  0.1874 -0.3021  0.0748
 3319W        W20167   9.748   4.462  13.368 -0.2232  0.0290  0.0457
 3320W        W20168  13.351   7.313  11.372 -0.0989  0.0441  0.2053
 3321W        W20169  11.182   5.583  12.721  0.1558 -0.1522  0.1442
 3322W        W20170  15.757   0.353   5.429 -0.0695  0.2760  0.2267
 3323W        W20171   7.854  15.215  15.380  0.0347  0.0255  0.0464
 3324W        W20172   1.444  15.709  13.899  0.0442  0.1828  0.0192
 3325W        W20173   6.095  16.406  13.610  0.1431  0.0563  0.1161
 3326W        W20174  17.526  12.332  13.371 -0.1680  0.1363  0.3489
 3327W        W20175   0.192  16.572  16.282 -0.0020  0.3102  0.3712
 3328W        W20176   5.929   1.652  14.947  0.1829  0.1271  0.0461
 3329W        W20177  16.157  12.064  15.776  0.0210 -0.0385 -0.0271
 3330W        W20178  15.852   8.264  11.432 -0.2445 -0.1666 -0.1995
 3331W        W20179  10.617  12.553  11.380  0.1220  0.2440 -0.2574
 3332W        W20180  17.523  11.770  13.070  0.0407 -0.0182  0.2562
 3333W        W20181   2.491  10.592   2.165 -0.1293  0.1350 -0.1776
 3334W        W20182  17.085  15.272  13.755  0.2070 -0.2733 -0.2549
 3335W        W20183   8.115  11.136  15.342  0.0160  0.0100  0.3104
 3336W        W20184   0.471  15.279  13.986 -0.2550  0.0195  0.0019
 3337W        W20185   1.138   4.479  15.214 -0.0087 -0.0272  0.0043
 3338W        W20186  12.632  15.394   3.314  0.0981  0.1242  0.1619
 3339W        W20187   4.820   0.893   3.232  0.2429  0.2595  0.0506
 3340W        W20188   4.348   8.944  12.292  0.0675  0.2755 -0.0274
 3341W        W20189   9.375   9.766  13.452  0.1289  0.2970  0.3349
 3342W        W20190  15.754   3.694  15.648  0.0151 -0.0700  0.2486
 3343W        W20191   3.108   4.714   5.070 -0.1968 -0.1614 -0.1694
 3344W        W20192   9.497   8.028   1.727 -0.0679  0.0427  0.0983
 3345W        W20193   7.249  12.777  11.530 -0.0138 -0.0910  0.0235
 3346W        W20194  14.681   7.928   1.219  0.1515 -0.0307  0.0053
 3347W        W20195   5.985   6.771  11.710  0.2632  0.0346  0.0360
 3348W        W20196   0.104  15.690   0.655 -0.0558 -0.2356 -0.5005
 3349W        W20197   2.330  15.381  15.140 -0.0503  0.0733  0.0537
 3350W        W20198   8.869   6.727  11.318  0.0613  0.0818  0.1762
 3351W        W20199   7.272   7.432   3.933  0.1738 -0.0095 -0.1792
 3352W        W20200   9.590   8.623   4.758 -0.4150 -0.2184  0.0702
 3353W        W20201  11.117  11.503   4.241 -0.1703 -0.1022 -0.5153
 3354W        W20202   0.349  14.289   4.753 -0.1745 -0.0565 -0.0597
 3355W        W20203  15.219  16.481   4.205 -0.2256 -0.1521 -0.2981
 3356W        W20204   3.515   4.298  12.830 -0.0173 -0.3620 -0.0863
 3357W        W20205  13.689  13.391   3.968  0.2917 -0.1381 -0.1229
 3358W        W20206   9.304   2.363   1.389 -0.2243 -0.0236  0.0230
 3359W        W20207  17.359   9.864  13.623  0.0062  0.2778  0.1735
 3360W        W20208   1.124  10.576  13.031  0.0133  0.3251 -0.5560
 3361W        W20209   5.939  14.180  12.633  0.2503  0.0010  0.0498
 3362W        W20210   3.395   5.796  11.295  0.2100 -0.1294 -0.3474
 3363W        W20211   6.447   1.132  12.965  0.0993 -0.0090  0.2296
 3364W        W20212   0.033   1.379   0.130  0.0394 -0.0441  0.1678
 3365W        W20213   1.624  14.252  15.556  0.1376 -0.1916 -0.0527
 3366W        W20214  15.272   6.464   3.012 -0.0964 -0.0988 -0.3613
 3367W        W20215  16.301   7.740  13.591  0.0853 -0.1388  0.0306
 3368W        W20216   8.676  11.740   2.199 -0.2673 -0.0164  0.1379
 3369W        W20217  11.988   4.842  12.924 -0.2089  0.0782 -0.0469
 3370W        W20218  15.070  11.805  13.046  0.1784 -0.1804 -0.2634
 3371W        W20219   8.825   4.189  11.734  0.2005  0.0849  0.1309
 3372W        W20220   4.468   3.044  12.598  0.0459  0.0683  0.0495
 3373W        W20221  11.660  15.575  11.359 -0.1582 -0.0321  0.1588
 3374W        W20222  10.177  16.749   1.122 -0.1477  0.1673 -0.1185
 3375W        W20223   3.985   2.808  14.633 -0.2423 -0.1632 -0.1406
 3376W        W20224   9.076  14.064   5.056  0.0922  0.1360  0.0653
 3377W        W20225   7.172   4.040   2.438 -0.0153 -0.3028 -0.1141
 3378W        W20226   8.996  15.052  11.842 -0.0399  0.2488  0.1407
 3379W        W20227   2.412   1.631   5.981 -0.2355  0.2132 -0.0274
 3380W        W20228  15.912   0.355   2.460 -0.1433  0.3295  0.2560
 3381W        W20229   9.098   4.983  12.221  0.1850  0.1242 -0.0868
 3382W        W20230  14.880   9.209   3.763 -0.0161  0.0234  0.1260
 3383W        W20231   0.080  15.018  14.513  0.1988 -0.3026  0.0165
 3384W        W20232  17.824   5.137   1.361 -0.2377 -0.1003  0.3186
 3385W        W20233  10.251  16.303   3.868 -0.6380  0.1430  0.1616
 3386W        W20234   8.765   5.175  14.901  0.3485 -0.1877 -0.0003
 3387W        W20235   5.518  12.629  15.249  0.4553  0.2442 -0.2936
 3388W        W20236  17.742  14.803   2.128 -0.1675 -0.4370 -0.2996
 3389W        W20237   3.331  14.864  16.334  0.0606 -0.2258  0.1866
 3390W        W20238  13.782   2.947  11.083  0.1115 -0.0254  0.3454
 3391W        W20239   4.948  16.516   2.469  0.1261 -0.2659  0.2830
 3392W        W20240   3.940   3.112  11.299 -0.1018  0.3311 -0.1663
 3393W        W20241   8.292  17.477  12.763  0.1581 -0.2096 -0.2337
 3394W        W20242  13.897   0.017  13.885  0.0147  0.1637  0.0144
 3395W        W20243  14.646   5.044   3.030  0.0138  0.2891 -0.0005
 3396W        W20244  10.434   3.922  13.543  0.0835 -0.1519  0.0161
 3397W        W20245  14.056   5.573   1.059  0.2467 -0.1835 -0.1416
 3398W        W20246   5.422   4.933  12.650 -0.3782  0.0816  0.0406
 3399W        W20247  12.685   0.218  11.220  0.0411 -0.2614 -0.0175
 3400W        W20248  15.801   3.772  13.355 -0.2428 -0.1724  0.1379
 3401W        W20249  12.145   2.057   1.788 -0.1242  0.2825 -0.0083
 3402W        W20250  10.498   3.132  13.135 -0.0671 -0.5077 -0.0421
 3403W        W20251  17.110   1.594   3.202 -0.0888 -0.0252 -0.0219
 3404W        W20252   2.376  14.231  16.292  0.0198 -0.2538  0.2241
 3405W        W20253   8.020   3.832   0.592  0.2022  0.2949  0.2040
 3406W        W20254  15.464   6.451   3.609  0.0060 -0.0137  0.0313
 3407W        W20255  10.186   6.853   0.368  0.1471 -0.0337 -0.0625
 3408W        W20256   2.420   5.132   4.555 -0.0905  0.1064 -0.1537
 3409W        W20257  11.362  13.336  12.643  0.0990 -0.1816 -0.1213
 3410W        W20258  17.107   9.567  11.882  0.0599  0.2676  0.2185
 3411W        W20259   8.997   9.021   0.715 -0.0030 -0.0251  0.0109
 3412W        W20260   4.605   1.704   4.207  0.4518 -0.0484  0.3185
 3413W        W20261   8.796  11.750  10.583 -0.1527 -0.0939  0.0726
 3414W        W20262  11.819  16.155  15.013  0.1494 -0.0194  0.0399
 3415W        W20263  14.904  17.534  12.907 -0.0301  0.1206 -0.2058
 3416W        W20264  11.259  16.030   3.704 -0.1775  0.1387 -0.0212
 3417W        W20265   6.363   0.340   4.868  0.2333  0.1395  0.0647
 3418W        W20266  12.289  13.559   5.113 -0.0645 -0.0606 -0.2616
 3419W        W20267  17.625   1.454  11.716 -0.1763  0.1465 -0.0393
 3420W        W20268   9.595   5.439   3.104  0.1168  0.2122 -0.0819
 3421W        W20269  13.562   7.957   2.219 -0.1167  0.0456  0.2034
 3422W        W20270   7.571   1.981   0.753  0.0378  0.0779  0.2004
 3423W        W20271   1.868   8.884  11.287 -0.0071  0.1851 -0.0439
 3424W        W20272   5.692   4.114   1.618 -0.1460 -0.1470  0.1028
 3425W        W20273   1.650   0.410  13.286 -0.0529  0.2822 -0.0516
 3426W        W20274   1.148   6.962   4.503 -0.3382 -0.1133  0.0989
 3427W        W20275   6.042   8.099  15.053  0.0474  0.2766 -0.0902
 3428W        W20276   3.504   3.579   1.469 -0.2177  0.0144 -0.0996
 3429W        W20277  10.293  10.623  10.809  0.0211  0.3670 -0.0704
 3430W        W20278   5.072   0.042   3.934  0.2610 -0.4463 -0.0996
 3431W        W20279   0.041  16.545  13.502 -0.0358  0.0801 -0.2893
 3432W        W20280  10.155   5.591   1.234  0.0949  0.0557 -0.0281
 3433W        W20281   0.384  13.947   0.415  0.1832  0.2483 -0.3051
 3434W        W20282  10.211  13.992  11.452 -0.0848 -0.1793  0.1375
 3435W        W20283  12.826   7.395  11.268  0.0369 -0.0037  0.0450
 3436W        W20284  17.463   0.086   4.195 -0.3235 -0.1221 -0.3074
 3437W        W20285  14.077   3.299   3.719 -0.2865  0.3961  0.1490
 3438W        W20286  11.546   6.487  12.728  0.5262 -0.1574  0.0986
 3439W        W20287  10.842  14.769   4.942  0.1104 -0.0720 -0.2712
 3440W        W20288   9.558  11.685  11.450 -0.0970  0.0788 -0.1639
 3441W        W20289  11.202   0.271   0.739  0.3392 -0.2441 -0.2399
 3442W        W20290  15.501   0.183  16.433 -0.2915 -0.0198 -0.3572
 3443W        W20291   0.279   9.422  14.405  0.1814  0.0401 -0.2060
 3444W        W20292   8.608  10.192   3.294 -0.1390 -0.3259 -0.0268
 3445W        W20293   8.654  15.690   1.469  0.0786  0.0728 -0.2307
 3446W        W20294   7.318  13.761  11.234 -0.1343 -0.0895 -0.0666
 3447W        W20295   7.427   0.971  15.973  0.0421 -0.2032  0.0068
 3448W        W20296   8.361   0.656   1.012 -0.1164  0.0445 -0.0516
 3449W        W20297   4.899  15.419   3.114  0.1996 -0.0694 -0.0050
 3450W        W20298   6.474   8.336  13.562  0.3450  0.0484  0.0503
 3451W        W20299   9.862  14.446   1.765 -0.0141 -0.2936  0.1960
 3452W        W20300  12.099  10.829  14.924 -0.0206 -0.1897  0.2042
 3453W        W20301   0.264  16.931  13.254 -0.2657 -0.0418 -0.2396
 3454W        W20302   8.709   8.566  14.494  0.2273  0.0065 -0.1113
 3455W        W20303   8.872   2.697  10.456 -0.0660  0.1281 -0.3901
 3456W        W20304   7.500  15.103   4.720 -0.2146 -0.1095  0.1322
 3457W        W20305  10.311   2.498  11.710  0.3354 -0.2721  0.0045
 3458W        W20306   6.569   4.352  13.105 -0.1179 -0.0648 -0.3284
 3459W        W20307   2.971   0.336  13.134 -0.3075  0.2022  0.1890
 3460W        W20308  16.925   7.344   1.755 -0.1415  0.1993  0.1043
 3461W        W20309   2.035   4.727   4.658 -0.2446  0.1382 -0.0228
 3462W        W20310  10.714   4.093   3.831 -0.0017 -0.0162 -0.1665
 3463W        W20311   2.831  17.512   5.666 -0.0370 -0.0328 -0.0933
 3464W        W20312  14.218  15.618   1.376 -0.2317  0.3269  0.0147
 3465W        W20313  10.262  16.216  13.600  0.0933  0.1982 -0.0832
 3466W        W20314  13.154  15.620   0.223 -0.1405 -0.1089 -0.1788
 3467W        W20315  13.013   0.232  14.211 -0.0560  0.0482 -0.1792
 3468W        W20316  12.192  14.002   1.510 -0.2952  0.1050  0.0109
 3469W        W20317   9.990  15.779  11.423 -0.2364  0.0997  0.0689
 3470W        W20318   2.849   9.841   4.398  0.0174 -0.1423  0.0342
 3471W        W20319  15.735  14.361  11.832 -0.0647 -0.0855 -0.0597
 3472W        W20320  11.274   2.935   5.124  0.0889  0.0882 -0.1216
 3473W        W20321  10.727  17.123   4.948 -0.1849 -0.0152  0.3012
 3474W        W20322   3.714   0.841  12.233 -0.0306  0.0402  0.0718
 3475W        W20323  12.175  10.331   4.532 -0.0986 -0.5215 -0.1984
 3476W        W20324   9.301  10.768   0.240 -0.1238  0.4221  0.0885
 3477W        W20325  17.704   2.574   5.592 -0.3293 -0.2537  0.1033
 3478W        W20326   1.374   4.598  11.517 -0.2394 -0.0174  0.1157
 3479W        W20327  14.248   2.150   2.920 -0.2431 -0.2674  0.0239
 3480W        W20328  15.519   5.707  15.423  0.1177 -0.1128  0.0299
 3481W        W20329  11.370  17.393   1.502 -0.1099 -0.2725  0.0549
 3482W        W20330   2.511   4.089   0.588 -0.0208  0.2384 -0.0120
 3483W        W20331   5.967  11.205   4.416  0.1518 -0.0621  0.1667
 3484W        W20332  16.304   5.642   1.551 -0.1280  0.0715 -0.1117
 3485W        W20333  15.152  17.151  12.100 -0.0149 -0.0195  0.1781
 3486W        W20334   9.558   2.395   6.336  0.0451  0.0011 -0.2211
 3487W        W20335   1.453   5.940  15.258 -0.0292  0.0465  0.1637
 3488W        W20336   5.506  11.449   4.516 -0.0770 -0.1412 -0.1257
 3489W        W20337  12.546   4.922  13.154  0.0311  0.1003 -0.2102
 3490W        W20338   5.792   9.197  13.200  0.0428 -0.3553  0.3494
 3491W        W20339   2.886  14.543  12.123  0.0552 -0.0384  0.0241
 3492W        W20340   7.849   6.823   3.220 -0.1108 -0.2574  0.3224
 3493W        W20341   7.681  14.889  14.959  0.2045 -0.0500 -0.2167
 3494W        W20342   8.138   6.460   0.865  0.2264 -0.2631  0.3780
 3495W        W20343  17.084  10.225   3.809  0.1366 -0.1985  0.2728
 3496W        W20344   0.641   6.539   3.634  0.1718  0.0441  0.0368
 3497W        W20345   0.193   0.774  11.489  0.2248  0.0241 -0.1997
 3498W        W20346   2.915   1.609   3.647  0.2013 -0.2392  0.1530
 3499W        W20347  17.517  13.962   4.344  0.3766  0.1432 -0.0554
 3500W        W20348  12.379   7.659   5.875  0.1689  0.2943  0.1111
 3501W        W20349   0.948  14.576   0.132 -0.1901 -0.0518 -0.2061
 3502W        W20350  11.837   5.674   0.141  0.1420 -0.1496 -0.2362
 3503W        W20351   3.383  14.946   1.378  0.1067 -0.0289  0.0361
 3504W        W20352   1.401  15.158   0.166 -0.0728 -0.3203  0.1536
 3505W        W20353   1.873   4.408   2.486 -0.2778  0.5309  0.1985
 3506W        W20354   9.893   2.507  12.152 -0.2762  0.0805  0.0283
 3507W        W20355  13.163  10.240   0.430  0.0634  0.4113  0.0311
 3508W        W20356   5.393  14.696   1.504 -0.0141 -0.0287 -0.0954
 3509W        W20357  17.565  16.595   0.013  0.0688  0.3757 -0.0227
 3510W        W20358  10.811   8.660   4.198  0.1750 -0.2223  0.4223
 3511W        W20359   2.555   6.216  11.396  0.1096  0.2296 -0.1037
 3512W        W20360   4.392  12.110  13.367 -0.0147  0.1300 -0.1624
 3513W        W20361  11.644   6.780   4.197  0.0412  0.1104 -0.4107
 3514W        W20362   5.394   6.372  15.551  0.1424 -0.3158 -0.1366
 3515W        W20363  16.085   3.578  14.477  0.0840 -0.2361  0.3209
 3516W        W20364  11.137   2.509   3.487 -0.2774  0.1283 -0.1564
 3517W        W20365   6.861  10.185   4.290  0.1691 -0.3896  0.1583
 3518W        W20366  12.389  12.036  11.364  0.3444  0.3318 -0.0525
 3519W        W20367  15.079  17.577   1.815 -0.0861  0.3263 -0.1832
 3520W        W20368   2.326  12.359  13.399  0.0199  0.0033 -0.0330
 3521W        W20369   4.921   7.663  10.935 -0.2961 -0.1329  0.0214
 3522W        W20370   8.678  11.407   0.627 -0.1929 -0.0765 -0.1247
 3523W        W20371   0.264  17.598  11.566  0.1345 -0.1123  0.0654
 3524W        W20372   4.873   2.773  14.071  0.0691  0.2578  0.2655
 3525W        W20373   3.457   3.106  12.641  0.0651 -0.0303  0.0134
 3526W        W20374   0.771   0.323  14.272  0.0241  0.1069  0.1602
 3527W        W20375   3.885   8.461  15.097 -0.2929  0.3319 -0.2327
 3528W        W20376   3.543  16.805   1.635 -0.1832 -0.1357  0.1744
 3529W        W20377  17.610   9.049   4.154  0.1006 -0.1590 -0.1659
 3530W        W20378  11.758   4.086   0.667 -0.0444 -0.3714  0.1344
 3531W        W20379   8.939   8.014   1.935 -0.1444  0.0419 -0.1566
 3532W        W20380  13.502   2.628   4.082  0.2928 -0.4008  0.2798
 3533W        W20381   3.313   4.122  13.475  0.3576  0.0285 -0.1561
 3534W        W20382  14.761   0.121   4.656  0.0902  0.1178 -0.0146
 3535W        W20383  13.254   8.606  15.317  0.2397 -0.1179  0.1163
 3536W        W20384   7.502  10.049  15.480  0.0999  0.0940  0.0100
 3537W        W20385   2.738  11.274  15.205 -0.2837 -0.0525  0.2774
 3538W        W20386   8.812  10.112  10.853  0.0775  0.0416  0.1133
 3539W        W20387   8.865  17.039   3.057 -0.2304 -0.1577  0.0583
 3540W        W20388  16.574   0.103  13.182  0.0257  0.2167 -0.0001
 3541W        W20389  15.846   5.972  14.461  0.1890 -0.0328 -0.1530
 3542W        W20390   7.824   0.351   2.259 -0.0640  0.2372 -0.1085
 3543W        W20391   0.409   8.091  16.039 -0.0638 -0.1187  0.3436
 3544W        W20392  10.301  10.883   3.312 -0.1479  0.0419  0.3408
 3545W        W20393  16.009  13.757   3.586 -0.2808  0.2792 -0.0043
 3546W        W20394   2.527  12.113   2.809  0.0326 -0.0340  0.2253
 3547W        W20395   6.241   9.551  14.877  0.1921  0.2619  0.0422
 3548W        W20396  16.191   9.008   5.087 -0.0442  0.0031  0.2721
 3549W        W20397   3.853   6.540  16.441 -0.2198 -0.0279  0.2140
 3550W        W20398  13.621   6.251  14.144  0.1520 -0.0544  0.2451
 3551W        W20399   0.317   7.491   1.269  0.2363 -0.0216  0.0490
 3552W        W20400   0.616   7.743   0.397 -0.2703  0.1611  0.0417
 3553W        W20401  11.263   2.394  13.923  0.1264  0.0002  0.3108
 3554W        W20402  12.397   4.903   1.239  0.0993  0.0598  0.1168
 3555W        W20403   3.774   8.156   5.497 -0.3006  0.0818 -0.2620
 3556W        W20404   5.680   8.007  15.913 -0.0606 -0.2607  0.3744
 3557W        W20405   6.007   6.033   1.297 -0.1334  0.1207 -0.1510
 3558W        W20406  14.446   8.071   2.893 -0.0402 -0.5175 -0.2239
 3559W        W20407   8.369   6.883  15.283  0.1142  0.0382 -0.0110
 3560W        W20408   4.098  10.520  12.049  0.0278  0.0066  0.2098
 3561W        W20409   8.050   2.071   4.744 -0.1417 -0.0275  0.0882
 3562W        W20410   8.960  17.162  14.235 -0.0410  0.1153  0.0057
 3563W        W20411   8.008   7.802  13.890 -0.2855  0.3152  0.3143
 3564W        W20412  17.460  13.249  14.878 -0.0460 -0.1690 -0.1875
 3565W        W20413  12.768   9.346  13.498 -0.0392  0.1058 -0.0802
 3566W        W20414  12.644   9.093   0.974  0.0583  0.1939 -0.1123
 3567W        W20415   4.182   7.277   0.634 -0.3166 -0.0260  0.2707
 3568W        W20416   7.740  11.104   1.565  0.0299  0.0063  0.2240
 3569W        W20417   2.023  15.222   0.983 -0.0298  0.4202 -0.2533
 3570W        W20418   2.358  10.718  14.030  0.0256 -0.1430  0.1226
 3571W        W20419  11.441  15.498   1.767 -0.0903 -0.0883  0.0749
 3572W        W20420  10.799  13.873  15.841  0.2054  0.0918 -0.3299
 3573W        W20421  13.905   1.716   0.410  0.3943 -0.1243 -0.0864
 3574W        W20422  14.218  16.744  11.762 -0.1828 -0.0841 -0.1629
 3575W        W20423   2.936   5.244   3.735 -0.3618 -0.1797  0.1980
 3576W        W20424  17.712   3.612   2.364 -0.0048  0.0529  0.3365
 3577W        W20425  15.588   9.482   0.806 -0.2517 -0.0214 -0.1457
 3578W        W20426  15.452  13.460  15.104 -0.1025 -0.1113 -0.0037
 3579W        W20427  14.689  14.600  16.026 -0.0729  0.2821 -0.2292
 3580W        W20428  12.739   2.256  13.820  0.3833 -0.1601 -0.1704
 3581W        W20429  16.508   9.010   2.074 -0.0638  0.0852  0.0039
 3582W        W20430  15.482   3.842  16.025 -0.0038 -0.1367  0.0048
 3583W        W20431   3.788  11.137  15.711 -0.1094  0.0011 -0.0713
 3584W        W20432  17.329  12.195   4.128  0.1217  0.2888 -0.0663
 3585W        W20433   7.379   2.447  16.019  0.1533  0.3397  0.0251
 3586W        W20434   7.138   2.519   3.635  0.0997  0.2836  0.2455
 3587W        W20435   2.311   8.063   4.333  0.0425 -0.0771 -0.1074
 3588W        W20436   7.267   8.447   3.595 -0.1123 -0.0840 -0.1020
 3589W        W20437  17.640  12.361  11.099  0.1554  0.3010 -0.0246
 3590W        W20438  13.550   4.056  13.385  0.1473 -0.0314  0.0042
 3591W        W20439   7.337  17.072   0.957 -0.1091  0.4038  0.2220
 3592W        W20440   0.623   8.473   3.485  0.0170  0.1831  0.1199
 3593W        W20441   3.585  11.175   1.275 -0.1690  0.1606 -0.2386
 3594W        W20442  12.959  11.603  14.442 -0.3311 -0.2401 -0.0783
 3595W        W20443  17.265   1.168  11.875 -0.0682 -0.1135 -0.0035
 3596W        W20444  15.683  10.670  14.860  0.2252 -0.0276  0.2444
 3597W        W20445   0.361   5.277  15.375  0.1867 -0.4011 -0.0409
 3598W        W20446   9.702   8.489  14.947 -0.1620 -0.1964  0.2521
 3599W        W20447  13.640   9.502  12.063 -0.0367  0.1042  0.0430
 3600W        W20448  13.605   1.937   3.970  0.3000 -0.0207 -0.0304
 3601W        W20449   0.423  13.970  13.511  0.2432  0.1954  0.1479
 3602W        W20450   0.776   1.225   5.981 -0.0887  0.5522 -0.0242
 3603W        W20451   6.307  15.356  11.848  0.2236 -0.0063  0.0847
 3604W        W20452  14.567   5.131  16.450 -0.4641 -0.1181 -0.5051
 3605W        W20453   8.957   0.838   5.333  0.0174  0.1402 -0.1234
 3606W        W20454   5.704  17.677   4.227 -0.5281  0.3057 -0.2480
 3607W        W20455  17.887   4.521   2.774  0.0508 -0.1729  0.1705
 3608W        W20456  10.805   2.391   0.625 -0.2179  0.0749  0.1508
 3609W        W20457   2.736  15.256   5.148  0.0053 -0.1005  0.0811
 3610W        W20458   2.381  16.922  15.327  0.2442  0.1227  0.1139
 3611W        W20459   7.621  14.949   2.329 -0.2675 -0.2612 -0.2473
 3612W        W20460   1.850   7.677  13.151  0.0695  0.1222 -0.0193
 3613W        W20461   4.851   4.978  10.586 -0.0831 -0.2085  0.0279
 3614W        W20462  11.714   5.268   4.207  0.0588  0.0020 -0.0097
 3615W        W20463  14.684  14.241   1.261 -0.0159 -0.1971  0.0479
 3616W        W20464   6.811  11.512  16.208  0.0283 -0.2099 -0.0851
 3617W        W20465  10.748   3.815   3.360 -0.1457  0.1690 -0.1725
 3618W        W20466  16.197  17.657  11.899 -0.2346 -0.2122 -0.0617
 3619W        W20467  11.419  15.354   3.138  0.1174 -0.2008  0.0265
 3620W        W20468   0.096   6.619  12.272  0.1778  0.0152 -0.0643
 3621W        W20469   5.132  14.835  12.523  0.1365  0.0275  0.1724
 3622W        W20470   6.563   9.681   0.535 -0.1352 -0.0120  0.1458
 3623W        W20471  10.509   5.757  14.511 -0.2866  0.1482  0.0688
 3624W        W20472   5.323  12.254  11.709 -0.0259 -0.1851  0.3182
 3625W        W20473  15.769  13.102  11.194 -0.0652 -0.0272  0.1677
 3626W        W20474  12.083   4.724  11.796  0.0041  0.3416  0.1215
 3627W        W20475   9.907  13.457   4.784 -0.0594  0.1451 -0.0459
 3628W        W20476  10.198   2.948  11.437 -0.1120 -0.3966  0.3229
 3629W        W20477   0.482   2.089   1.698 -0.1059  0.0601 -0.0379
 3630W        W20478  14.618  15.413   2.176 -0.0911 -0.2572  0.1609
 3631W        W20479   2.491  15.328  14.605 -0.3880 -0.0253 -0.2413
 3632W        W20480   4.039   1.989  15.791 -0.1616  0.0157  0.1189
 3633W        W20481   6.602  14.663   0.028  0.0166 -0.0575 -0.0976
 3634W        W20482  15.126   1.062   3.453 -0.0903  0.1749 -0.1661
 3635W        W20483  12.697  10.636   3.424 -0.0797  0.3343  0.2030
 3636W        W20484  11.456   9.263  14.671 -0.0584 -0.0287  0.1444
 3637W        W20485   0.771  14.322   4.426  0.3905  0.0406 -0.3028
 3638W        W20486   2.077  13.357  15.708  0.0667 -0.0943 -0.3623
 3639W        W20487  10.619   8.976  11.657 -0.1977  0.2683  0.1165
 3640W        W20488   5.637  11.553  10.548  0.0765  0.1984  0.1143
 3641W        W20489   9.070  15.667  15.625 -0.1507 -0.0938  0.0335
 3642W        W20490   0.202   3.762   0.143  0.3167  0.4766 -0.4203
 3643W        W20491   5.465   0.787  10.998 -0.0219  0.0836  0.2284
 3644W        W20492  12.098  16.039  13.065 -0.5653  0.1325 -0.0842
 3645W        W20493  11.717   2.281   2.789  0.2126 -0.3912  0.1278
 3646W        W20494   7.553  15.939   4.214 -0.0004  0.0675  0.0218
 3647W        W20495   1.262  14.073   4.407 -0.1861 -0.0736 -0.3200
 3648W        W20496   3.644   9.534   0.599  0.3961 -0.1010  0.0188
 3649W        W20497   3.164  12.546  15.194 -0.2152 -0.0011 -0.2911
 3650W        W20498  10.625  15.613  15.164 -0.1198 -0.0642  0.0872
 3651W        W20499  11.326  15.951  11.437 -0.0808 -0.0720 -0.0136
 3652W        W20500  16.999   8.784  14.124 -0.0410 -0.0256  0.0732
 3653W        W20501   8.318   7.332   4.263 -0.0357  0.1473  0.0061
 3654W        W20502  14.271   6.881   1.427  0.2322  0.1070  0.0583
 3655W        W20503   6.901   7.817  12.740  0.0597 -0.2333 -0.4214
 3656W        W20504   0.319   4.429   4.669 -0.2400 -0.0906  0.0419
 3657W        W20505   6.790  10.272   2.745 -0.0468 -0.0454  0.1843
 3658W        W20506  15.012  14.417  11.158  0.1733 -0.0964 -0.2884
 3659W        W20507  14.734   8.193  16.405  0.0019  0.0498  0.2070
 3660W        W20508   2.015  13.619  14.859  0.1603 -0.0802  0.0094
 3661W        W20509  13.915  14.708  14.781 -0.0654  0.0651  0.0173
 3662W        W20510   4.074  13.037   4.095 -0.2370  0.1397 -0.0189
 3663W        W20511   5.657  10.452   5.583 -0.2667 -0.1716 -0.0674
 3664W        W20512   6.248   9.098  13.570  0.0168 -0.3116  0.2575
 3665W        W20513   3.119  14.385  13.504  0.1076  0.3768  0.0643
 3666W        W20514  10.502   6.692   3.065 -0.3470  0.0492 -0.0631
 3667W        W20515   4.991   6.433  12.559 -0.0836 -0.1174 -0.2044
 3668W        W20516   8.151   9.575  14.771  0.2855 -0.0020  0.0928
 3669W        W20517   6.942  10.296  14.941  0.0607 -0.1856  0.1594
 3670W        W20518   1.061   8.440  11.307 -0.2680 -0.0160  0.0069
 3671W        W20519  12.089  14.036  14.257 -0.1558  0.1445  0.0432
 3672W        W20520   8.286   3.338  12.601  0.2001  0.1005  0.0677
 3673W        W20521   3.960  16.795  13.493  0.2201  0.1792 -0.0729
 3674W        W20522  15.308  13.590   1.801  0.0140  0.2697 -0.4937
 3675W        W20523   2.629   8.897  14.669  0.0424  0.0124 -0.3632
 3676W        W20524  16.312   1.125  15.946 -0.0711 -0.0066 -0.0833
 3677W        W20525  11.327   9.652  13.859 -0.0231 -0.0025  0.1228
 3678W        W20526  13.994  15.148  13.049  0.1400 -0.1762 -0.1202
 3679W        W20527   7.443   1.353  13.550 -0.2017  0.1824  0.1789
 3680W        W20528   2.647  17.006  11.211  0.3772  0.0701  0.2683
 3681W        W20529  10.478   9.684   3.371 -0.1294 -0.5960 -0.1471
 3682W        W20530  13.348   4.959   2.969  0.0237  0.1715 -0.0150
 3683W        W20531   8.374  11.444   3.246  0.0388 -0.1083  0.3303
 3684W        W20532   5.732   3.106   4.099  0.3093 -0.0771 -0.3848
 3685W        W20533   2.570   4.654  14.772 -0.1404  0.1001 -0.3190
 3686W        W20534   2.881   5.048   3.233  0.1788 -0.0187 -0.0164
 3687W        W20535  11.136   0.882  14.524 -0.0743 -0.0634 -0.2139
 3688W        W20536  17.482   6.747  13.936  0.0157  0.2261  0.0355
 3689W        W20537  11.609  14.747   1.094  0.0208  0.1086 -0.1095
 3690W        W20538   9.957  17.661  13.452 -0.0059 -0.1113 -0.0582
 3691W        W20539   2.939   7.486   5.771 -0.1024  0.0967  0.1842
 3692W        W20540  14.635  10.197  15.453  0.3346 -0.3901 -0.2666
 3693W        W20541   9.692   7.843   4.740  0.1102 -0.2579  0.0129
 3694W        W20542  12.651   9.242   3.843  0.0688 -0.1402 -0.0042
 3695W        W20543  12.598  13.353  15.566 -0.0028 -0.0804 -0.4223
 3696W        W20544  17.511  17.715   0.983  0.1397 -0.1070  0.0584
 3697W        W20545  11.299  14.923   3.890  0.2631 -0.0620  0.0808
 3698W        W20546  11.270  14.701  12.336 -0.1648  0.1265  0.0626
 3699W        W20547  15.252  11.257   4.347  0.1978 -0.1760  0.1668
 3700W        W20548   9.309   0.666   1.180 -0.0505 -0.1027  0.3107
 3701W        W20549  11.881   1.464  14.987 -0.1676  0.1189 -0.0439
 3702W        W20550   6.790  16.986  12.242 -0.1716  0.0866 -0.0954
 3703W        W20551  15.134  15.352  15.417  0.2158 -0.2500 -0.1064
 3704W        W20552   1.588   1.437   4.035 -0.1198  0.0150  0.0180
 3705W        W20553   5.924  17.223  12.085  0.1841 -0.2003  0.0923
 3706W        W20554   8.033  16.669  12.088 -0.2711 -0.2169 -0.3220
 3707W        W20555  10.129   4.214  12.167 -0.0183  0.1698 -0.1851
 3708W        W20556   1.981   1.732   4.251 -0.1288 -0.1492 -0.2453
 3709W        W20557  11.792   7.289   4.806 -0.2528 -0.3481 -0.2143
 3710W        W20558   5.270  12.594  11.300 -0.2389  0.0599 -0.1912
 3711W        W20559   4.515  12.587  15.162 -0.3987 -0.3030 -0.0994
 3712W        W20560  17.839  11.184   1.311  0.3550  0.0117  0.0583
 3713W        W20561  17.786   9.486  12.935  0.2623  0.0534  0.0205
 3714W        W20562  15.147  16.847  13.059  0.2460  0.1750 -0.0109
 3715W        W20563  10.843   9.127   4.555 -0.1317  0.0784 -0.1232
 3716W        W20564  13.410   3.767   4.436  0.3319  0.0834  0.0685
 3717W        W20565  16.772  17.864   1.319 -0.1740 -0.1155 -0.1048
 3718W        W20566  17.292  11.267   4.418  0.0824 -0.2855  0.3295
 3719W        W20567  16.584   5.676   4.487  0.1045 -0.0591 -0.0003
 3720W        W20568   9.657   3.529   2.872  0.2812  0.2267  0.0781
 3721W        W20569  16.967   6.835  12.297 -0.0427 -0.1592 -0.1573
 3722W        W20570   6.269  12.430  15.313  0.0214  0.0085 -0.3347
 3723W        W20571  15.153  10.675   2.905 -0.1052  0.0443 -0.0379
 3724W        W20572   1.190   1.224  14.208  0.0892  0.1343 -0.0311
 3725W        W20573   7.912   4.630  10.893  0.1597 -0.1275  0.0427
 3726W        W20574   8.312   1.562  15.059  0.2042 -0.1717 -0.2506
 3727W        W20575  14.418  16.378  14.644 -0.2509 -0.0744 -0.0819
 3728W        W20576   9.180   4.353   4.728 -0.2094  0.1049  0.1429
 3729W        W20577  13.174  14.081  16.064 -0.0695 -0.1230 -0.1119
 3730W        W20578  17.563   5.396  13.548  0.1473 -0.2153 -0.0536
 3731W        W20579  14.128   7.199   3.695  0.2869 -0.2358 -0.1365
 3732W        W20580  14.064  15.800   2.801 -0.1385 -0.3192 -0.1006
 3733W        W20581   6.360  16.587  16.167  0.2885 -0.1403  0.3827
 3734W        W20582   9.941   1.734   3.348 -0.0552  0.1349  0.0657
 3735W        W20583   9.139   0.371  11.861 -0.2520  0.0630 -0.1731
 3736W        W20584   3.913   9.010   0.875 -0.2601 -0.0518  0.2811
 3737W        W20585   8.522  11.373  12.772  0.1387  0.4033 -0.1290
 3738W        W20586   4.168  15.737   3.708  0.2091 -0.1635  0.1599
 3739W        W20587  15.722  12.047   0.577  0.0314  0.2297 -0.1578
 3740W        W20588   7.846   6.135  13.356 -0.1824 -0.1736  0.0002
 3741W        W20589   3.263  12.826   0.669  0.0791  0.1225  0.3384
 3742W        W20590   6.759   0.434   0.518  0.2048  0.0603  0.2040
 3743W        W20591  14.910   6.948  15.130 -0.4503  0.0750  0.4798
 3744W        W20592  12.493  14.406  11.275 -0.2015  0.0273 -0.0418
 3745W        W20593   6.815  11.030   0.557  0.1056  0.3600  0.0862
 3746W        W20594  16.290   9.559  12.061 -0.0758  0.0883 -0.1987
 3747W        W20595   3.715   5.790  14.808 -0.0968  0.2121 -0.1326
 3748W        W20596  11.787   8.562   3.464  0.0418 -0.1015 -0.1806
 3749W        W20597  12.502  13.388   4.666 -0.3104  0.2045  0.2001
 3750W        W20598   7.081   4.003   1.509  0.0190  0.4074 -0.0497
 3751W        W20599   8.458   7.865   1.823 -0.1766  0.0401  0.2104
 3752W        W20600  12.267  17.489  11.540 -0.1475 -0.0146 -0.0523
 3753W        W20601   5.287   6.357  13.390  0.0462 -0.0214 -0.0083
 3754W        W20602   0.833   2.693  13.726  0.1359  0.2580 -0.0274
 3755W        W20603   4.096   1.103   4.259  0.0696  0.1303  0.0054
 3756W        W20604   2.610   7.773   1.698 -0.0976  0.1117  0.0360
 3757W        W20605  12.969   2.457  11.182  0.2607 -0.0983  0.0354
 3758W        W20606   2.638  15.613   2.303 -0.5609 -0.1294 -0.2728
 3759W        W20607   0.739  13.767   2.821  0.2070  0.0939 -0.1667
 3760W        W20608   0.756   4.621   3.308 -0.0146 -0.1052 -0.0814
 3761W        W20609   1.844   2.535  16.453  0.0135  0.1271 -0.2263
 3762W        W20610  15.102  17.124  14.672  0.0843 -0.2034  0.0929
 3763W        W20611   5.298  12.782   2.656 -0.1696  0.0404  0.2642
 3764W        W20612   1.072  10.595   1.104 -0.3176  0.1298  0.1760
 3765W        W20613   1.927   9.499   2.822  0.2662  0.1383  0.1156
 3766W        W20614  13.983   0.423   1.652 -0.2494  0.1473  0.1082
 3767W        W20615  12.186   4.371  13.683 -0.0060  0.2674  0.1621
 3768W        W20616   7.030  14.572  12.320  0.2465  0.0035 -0.0854
 3769W        W20617  16.775  11.183  13.209  0.0843 -0.2360 -0.0734
 3770W        W20618   5.724  10.857  15.992 -0.0533  0.1146 -0.1057
 3771W        W20619   0.572   0.730   3.721 -0.0653 -0.2960 -0.0722
 3772W        W20620  11.872   1.758   4.557  0.0495 -0.2521  0.1828
 3773W        W20621   2.944  14.659  13.044  0.0834 -0.1248 -0.5770
 3774W        W20622   0.163  13.331  16.057 -0.1255  0.0084 -0.0369
 3775W        W20623   1.684  10.272   2.282  0.0571  0.2142  0.3572
 3776W        W20624   8.789   1.837  10.381 -0.1531  0.0007 -0.1032
 3777W        W20625   3.786   5.064  11.474  0.0196 -0.1427  0.1939
 3778W        W20626  14.155  16.681   3.767  0.5897 -0.1626  0.0805
 3779W        W20627   5.650  16.794   4.089 -0.1169 -0.0017 -0.1871
 3780W        W20628   4.442  13.548  14.667 -0.2927  0.1775  0.2690
 3781W        W20629  10.342   0.594   3.977  0.2644 -0.0051  0.1437
 3782W        W20630   2.650   0.224  12.624  0.0262 -0.0170 -0.0918
 3783W        W20631   3.920   8.474   1.728  0.0288  0.4115 -0.0071
 3784W        W20632  16.031   5.390   5.065  0.0324  0.1364 -0.1827
 3785W        W20633   4.331   5.641   0.907 -0.1508  0.0272  0.2823
 3786W        W20634  16.911  16.465  14.554 -0.0567 -0.1286 -0.3301
 3787W        W20635  14.134   4.718  11.769  0.1001  0.0760 -0.0927
 3788W        W20636  14.777   4.255   3.447  0.0767  0.2605 -0.0572
 3789W        W20637  13.651   0.407  15.827 -0.1616  0.1536 -0.1047
 3790W        W20638   2.423  10.954  14.477  0.2179  0.1066 -0.1834
 3791W        W20639  13.377   3.152   2.845  0.0445  0.0201 -0.0041
 3792W        W20640   4.166  16.935  14.154 -0.0033 -0.2594  0.0593
 3793W        W20641   2.332  10.481  14.959  0.1427  0.1364  0.0079
 3794W        W20642  10.303  13.839  15.857  0.2261 -0.1148 -0.0395
 3795W        W20643  15.595   7.577  15.443  0.0339  0.0717 -0.0300
 3796W        W20644   2.358   6.492   5.380  0.0891  0.0746  0.0293
 3797W        W20645  10.562  14.697  14.865 -0.0126 -0.0463  0.2447
 3798W        W20646   1.257  10.262  15.303 -0.0692 -0.2695  0.1128
 3799W        W20647   7.439   6.007   3.546 -0.0559  0.0898 -0.0669
 3800W        W20648   2.973   0.736  11.636  0.0964  0.2255  0.0402
 3801W        W20649   9.058  12.579  12.812  0.0468 -0.1068  0.1523
 3802W        W20650   5.639  10.016  12.176  0.2933 -0.0681  0.1663
 3803W        W20651   6.629  17.549  14.367  0.1920  0.2245 -0.0014
 3804W        W20652   3.245  12.498   0.259  0.1213  0.1584  0.2879
 3805W        W20653   4.775  17.366   4.305  0.1685  0.0345 -0.3183
 3806W        W20654  10.628   1.930   3.949 -0.0026  0.1373  0.0347
 3807W        W20655   3.905   0.775   6.113 -0.0695  0.1322 -0.0862
 3808W        W20656   0.472   5.030  13.724 -0.0472  0.0619  0.1295
 3809W        W20657  10.150  15.420  14.895 -0.0625 -0.1149 -0.1875
 3810W        W20658   4.137   3.069   0.390 -0.2325 -0.0449 -0.1418
 3811W        W20659   0.538  16.318   0.900 -0.2910  0.0378  0.0945
 3812W        W20660  11.205  16.769  13.845 -0.0556  0.0274 -0.0979
 3813W        W20661  15.217  13.204  13.136  0.1879 -0.1605 -0.0310
 3814W        W20662  11.388   2.533   0.744 -0.0058 -0.0192  0.1751
 3815W        W20663   7.240   5.726  14.392  0.2028  0.1570  0.1855
 3816W        W20664  16.690  16.369  15.097 -0.0403  0.2375 -0.0458
 3817W        W20665   6.491   6.986  11.762  0.2997 -0.2761 -0.0020
 3818W        W20666   1.518  15.924  16.022 -0.0175 -0.0415 -0.3048
 3819W        W20667   2.292  17.867   4.921 -0.0744  0.0301 -0.1183
 3820W        W20668  17.244  12.661   2.920  0.1193  0.3261  0.0386
 3821W        W20669  16.535  14.610  14.052 -0.0410 -0.1479  0.0581
 3822W        W20670   3.781   3.362   3.280  0.2464  0.1862  0.3753
 3823W        W20671   0.077   1.959   0.521  0.1802  0.1852  0.0393
 3824W        W20672  11.621   4.686  13.265  0.2322  0.0557 -0.0666
 3825W        W20673   9.037  15.906  14.708 -0.2047  0.1437  0.0600
 3826W        W20674   1.840   9.420   1.288  0.2585 -0.1416  0.2973
 3827W        W20675   6.325   9.517   1.951  0.1308 -0.0815 -0.1347
 3828W        W20676   6.679  11.315  13.526  0.0428 -0.0017  0.0001
 3829W        W20677   9.589   8.197   0.926  0.0999  0.0582  0.0490
 3830W        W20678   8.022  17.567  12.148  0.1275 -0.0491 -0.0845
 3831W        W20679   1.480   5.980   4.541 -0.1917 -0.0792  0.0758
 3832W        W20680  12.325   4.524  12.770 -0.2417 -0.2108 -0.1056
 3833W        W20681   0.769  15.909  12.378  0.2208  0.4294 -0.0789
 3834W        W20682   0.267   2.250   2.098  0.2631 -0.0765 -0.0267
 3835W        W20683   6.888  10.496  10.972 -0.0768 -0.1186 -0.1532
 3836W        W20684   3.467   3.967  12.392  0.2200 -0.0816 -0.2178
 3837W        W20685   8.838  12.760   0.776  0.1395  0.0921 -0.0635
 3838W        W20686  10.881   7.738  13.543 -0.2416  0.1808  0.3263
 3839W        W20687  17.336   2.819  16.001  0.1891  0.0916  0.0394
 3840W        W20688   2.978  17.558   6.140 -0.0650 -0.1872 -0.0906
 3841W        W20689  10.075   9.580  13.383 -0.1336  0.1537 -0.1659
 3842W        W20690  13.766   6.292   3.782  0.0254  0.0657 -0.0999
 3843W        W20691   9.113  10.369  11.301 -0.2013 -0.1015  0.3027
 3844W        W20692   4.844  16.328  14.065  0.1387  0.1632 -0.0005
 3845W        W20693   2.796   5.651   0.513  0.1888  0.0140 -0.0673
 3846W        W20694   9.813   0.072   0.364 -0.1914  0.1986  0.0857
 3847W        W20695  15.965   2.582  11.999 -0.1167 -0.1368  0.2463
 3848W        W20696   3.331   8.132   4.673 -0.0511  0.1464 -0.0046
 3849W        W20697   8.399  10.831   4.016 -0.0820 -0.2244 -0.3313
 3850W        W20698   4.763   2.302   5.440  0.0040  0.1175 -0.1486
 3851W        W20699   7.694  14.874  11.398  0.1027  0.0245  0.1449
 3852W        W20700  15.297   3.514   4.431 -0.0967  0.0683 -0.1539
 3853W        W20701   6.438   6.382   5.148  0.3459  0.1112 -0.0337
 3854W        W20702   2.025  11.930  12.002  0.0045 -0.0162 -0.3522
 3855W        W20703  14.629  14.661   1.038  0.1261  0.0133 -0.2051
 3856W        W20704  15.791   8.202  14.281 -0.1599 -0.0595 -0.1049
 3857W        W20705  14.620   9.263   0.619 -0.1686 -0.1249 -0.2428
 3858W        W20706   9.398   4.272  15.271  0.1000 -0.1370  0.2242
 3859W        W20707   2.941  15.480   0.914 -0.0563 -0.1170  0.1045
 3860W        W20708   1.809  11.411  15.563 -0.2727 -0.1070  0.0194
 3861W        W20709  13.865   3.245   3.215 -0.0535 -0.0516 -0.0850
 3862W        W20710   6.257   9.229  16.061 -0.2039  0.2274  0.1056
 3863W        W20711  14.027   5.904   4.981 -0.1492 -0.1378  0.2861
 3864W        W20712  17.123   2.365   4.429  0.1027 -0.0225 -0.1672
 3865W        W20713  13.819   1.372  13.129 -0.0308  0.0742  0.2387
 3866W        W20714   0.058  14.278   0.197  0.0448  0.0844 -0.0972
 3867W        W20715  15.074  15.116  12.587 -0.2279 -0.1447  0.0452
 3868W        W20716   8.724   8.846   6.048  0.0567  0.3494 -0.0896
 3869W        W20717  17.284   0.249   3.335  0.0082  0.1551 -0.0011
 3870W        W20718   1.028   6.152   2.265  0.3457 -0.0053 -0.0395
 3871W        W20719  14.933  13.572  12.759 -0.0501 -0.3777  0.1298
 3872W        W20720   6.537   6.804  13.265  0.0416 -0.1016  0.0887
 3873W        W20721   0.000  15.221   0.369  0.0950 -0.0158  0.0910
 3874W        W20722  12.839   4.782   3.213 -0.2812 -0.1122 -0.1920
 3875W        W20723   4.755  16.821  12.100  0.2806  0.2350  0.1061
 3876W        W20724   5.352  12.166  12.996 -0.2050  0.2335 -0.3568
 3877W        W20725  11.920  14.313  16.198 -0.0937 -0.1720  0.1723
 3878W        W20726  15.848  14.232  15.039  0.2044  0.1073  0.1817
 3879W        W20727   6.212   9.552  13.384 -0.2378 -0.1265  0.2806
 3880W        W20728   0.959   3.315   5.102 -0.2751  0.1137  0.1446
 3881W        W20729  17.776  13.800  14.153 -0.0831  0.2407  0.0715
 3882W        W20730   6.249  12.183  12.903  0.1304 -0.0189  0.0153
 3883W        W20731   8.098   5.693   5.418  0.0070 -0.2126 -0.2421
 3884W        W20732   3.272   6.340   4.868  0.3066  0.0679 -0.0019
 3885W        W20733   6.144   1.896   4.904  0.0735 -0.1494  0.0156
 3886W        W20734  12.124   8.800  16.268 -0.2155  0.2095 -0.0980
 3887W        W20735  15.591  13.052   0.563 -0.1137 -0.0711  0.0932
 3888W        W20736  15.931  12.281   1.645  0.3262  0.2185  0.1656
 3889W        W20737  14.457  14.899  13.264  0.1458 -0.0985  0.0957
 3890W        W20738  12.928  16.919   2.405  0.0999  0.3435 -0.0922
 3891W        W20739  13.491   4.015   0.314 -0.1519  0.2721 -0.2027
 3892W        W20740   6.427  15.506   4.794 -0.0646  0.3818 -0.1183
 3893W        W20741  15.824   9.742  15.617 -0.1916  0.2618 -0.2105
 3894W        W20742   7.222   0.897  15.514  0.0913  0.0079  0.0503
 3895W        W20743  11.079   3.117  13.055  0.4384  0.1389  0.2039
 3896W        W20744  14.716  12.320  14.638  0.1993  0.1555 -0.2083
 3897W        W20745   4.276  17.823   2.607 -0.1815 -0.5373  0.0207
 3898W        W20746  16.312   2.391  12.379 -0.1606 -0.0164 -0.1897
 3899W        W20747  10.467   9.897   5.076 -0.0219  0.1283  0.2704
 3900W        W20748   7.402   8.970   2.710 -0.1243 -0.0460 -0.0757
 3901W        W20749  10.562  14.684  15.360  0.1279 -0.0041  0.1986
 3902W        W20750  12.566   0.356   1.443  0.3330  0.0114  0.0055
 3903W        W20751   0.229   4.862  15.210 -0.7177 -0.0423  0.0498
 3904W        W20752  14.779   0.190  13.055  0.1063  0.0714 -0.1471
 3905W        W20753   1.774   3.594  11.958 -0.2048 -0.1614 -0.2864
 3906W        W20754   5.948   7.895   2.209  0.0335  0.1920 -0.0387
 3907W        W20755  10.294   9.073  12.526  0.2351  0.0867  0.3343
 3908W        W20756  11.146  12.274  16.099 -0.1431 -0.0156 -0.2968
 3909W        W20757   2.113   7.209   2.799  0.2342 -0.2233  0.0535
 3910W        W20758   8.944  10.024  11.814 -0.0950  0.1297 -0.1550
 3911W        W20759   8.033   5.500  15.095  0.1525  0.0413 -0.0284
 3912W        W20760   3.808  15.275   0.131  0.0769 -0.0100  0.0239
 3913W        W20761  11.790  16.791   2.589 -0.0306  0.0112 -0.1392
 3914W        W20762  13.951  11.729  13.692  0.1257  0.1926  0.0319
 3915W        W20763   3.460  14.720  13.195 -0.2357  0.0957  0.1576
 3916W        W20764   8.082   4.181   0.206  0.1441  0.2364 -0.1669
 3917W        W20765   5.351  17.681  14.934 -0.2056 -0.1433 -0.2692
 3918W        W20766   2.705   8.214  15.319 -0.0766  0.4091  0.1096
 3919W        W20767  12.902   8.294  15.056  0.0037  0.1297 -0.2846
 3920W        W20768  14.567  16.151  12.671 -0.3072  0.1814 -0.0970
 3921W        W20769   2.820  15.648  11.086 -0.0048  0.1751  0.1935
 3922W        W20770  14.073   2.648   4.749  0.4301  0.0704  0.2107
 3923W        W20771  17.300  17.834  14.683  0.1531 -0.0545 -0.1277
 3924W        W20772  13.926   2.818  12.806  0.1927 -0.0485  0.0079
 3925W        W20773  17.730   3.278   3.692  0.2997 -0.1922 -0.1812
 3926W        W20774   9.399   9.754  11.733  0.0150  0.1017  0.3819
 3927W        W20775  12.315   5.108   2.587  0.3979  0.1753 -0.0342
 3928W        W20776   9.658  15.508   0.253  0.0175  0.0521 -0.2828
 3929W        W20777  12.188  17.331  13.724 -0.0292  0.2973 -0.1327
 3930W        W20778   0.028   0.135  15.100  0.2480  0.1584 -0.0279
 3931W        W20779   6.908   2.421   5.463  0.0498 -0.0212 -0.0500
 3932W        W20780   5.417  10.800  14.480  0.1814  0.3985  0.1890
 3933W        W20781  10.895  10.568  13.358  0.1240 -0.1819  0.0915
 3934W        W20782   9.082   5.435   0.355  0.1325 -0.0613  0.2900
 3935W        W20783  10.145  16.823   3.998 -0.2337  0.4161  0.2374
 3936W        W20784   4.307   5.075  16.058 -0.0080  0.1675  0.0258
 3937W        W20785  11.104   0.559  16.423 -0.0984 -0.1512  0.1633
 3938W        W20786   0.985   1.870  15.062 -0.1763  0.1384  0.0880
 3939W        W20787   1.580   1.565   2.536  0.0353  0.0084  0.2743
 3940W        W20788  10.472  15.564   4.797  0.0482  0.0937  0.1018
 3941W        W20789  11.077   8.076   0.642 -0.1203  0.0230  0.0068
 3942W        W20790   4.582   8.224  16.397 -0.1239  0.2871  0.1832
 3943W        W20791  13.851   3.036   4.968  0.2725  0.1250 -0.0426
 3944W        W20792   8.605  10.441  13.856  0.1177 -0.0000  0.0623
 3945W        W20793   5.318   6.368   4.829 -0.0685  0.0037 -0.1208
 3946W        W20794   8.205   5.435   0.486 -0.0318 -0.0508 -0.1215
 3947W        W20795  13.741   0.621   0.320  0.0145 -0.1015  0.0364
 3948W        W20796   5.205   2.742   0.663 -0.1103  0.0521 -0.2671
 3949W        W20797   8.239  16.111  10.684  0.0090 -0.0122 -0.1052
 3950W        W20798   5.675  11.003   1.809  0.1493  0.1150  0.0830
 3951W        W20799   0.960  16.895  13.938  0.4659 -0.1614 -0.0061
 3952W        W20800   5.602   2.288  12.119 -0.0191  0.0852 -0.0179
 3953W        W20801   0.627  16.543   0.399 -0.1197 -0.0052 -0.3279
 3954W        W20802   5.564   1.040   2.956  0.0647 -0.0287 -0.0608
 3955W        W20803   0.111  10.674   0.476 -0.0711  0.1578  0.0365
 3956W        W20804   5.555   3.362  11.522 -0.3192  0.2936 -0.1299
 3957W        W20805  14.485   0.679  13.080  0.0493 -0.3148  0.2236
 3958W        W20806   3.176  13.903  13.501  0.0093  0.1107  0.2073
 3959W        W20807   1.137   5.782  13.895  0.1754 -0.0821  0.0048
 3960W        W20808   7.230  15.487  13.756 -0.2487 -0.0380 -0.0266
 3961W        W20809  17.440   6.521  11.629 -0.1431  0.2453 -0.0981
 3962W        W20810  11.511   9.662   2.282  0.0490  0.1058  0.0689
 3963W        W20811  11.571   7.752  15.414 -0.0254 -0.0114  0.1797
 3964W        W20812   0.605   2.003   0.444  0.1232 -0.1078 -0.1648
 3965W        W20813  13.084  14.439   2.725  0.3117 -0.0612 -0.1227
 3966W        W20814  15.624  16.098   4.543  0.1959 -0.2251  0.0689
 3967W        W20815   6.665   3.763  12.737 -0.2437  0.1538  0.0239
 3968W        W20816  16.132   3.514  13.679 -0.3038 -0.2867  0.0823
 3969W        W20817   2.795  12.857  15.773  0.0193  0.0615 -0.0537
 3970W        W20818   6.455  16.098   2.782  0.1554 -0.2205  0.1940
 3971W        W20819  16.285  15.502   1.689  0.0466 -0.1554  0.1103
 3972W        W20820   3.780   4.041   4.429 -0.3707 -0.1291  0.0173
 3973W        W20821  12.097  10.557  13.172 -0.0688  0.0998 -0.1509
 3974W        W20822   4.265   3.544  16.057 -0.0128  0.2432 -0.0168
 3975W        W20823   2.472  12.267   0.807  0.2930 -0.1275 -0.2464
 3976W        W20824  17.715   3.962  11.536  0.3438 -0.1414  0.1042
 3977W        W20825   2.875   3.431   3.391 -0.4543  0.1587  0.0982
 3978W        W20826   4.186  12.902   1.193 -0.0592 -0.1167 -0.1374
 3979W        W20827   0.896  17.588  12.692 -0.0423  0.0514  0.0256
 3980W        W20828   4.164   4.842   4.748  0.0401  0.3238 -0.1165
 3981W        W20829   2.657   3.461  16.025 -0.1461 -0.2228 -0.1143
 3982W        W20830   1.104   9.218   3.400 -0.4817  0.1253 -0.3966
 3983W        W20831  15.869   2.689  12.555  0.2569 -0.1541  0.0854
 3984W        W20832   2.658   9.875   1.768  0.3178  0.1016 -0.0084
 3985W        W20833   4.302   7.042  12.129 -0.3506  0.1724 -0.0373
 3986W        W20834  12.145   3.359   1.793 -0.3617  0.0889 -0.0917
 3987W        W20835  12.610  14.983   4.835 -0.0692 -0.0968 -0.3488
 3988W        W20836   1.846   0.299   3.850  0.2168  0.1594 -0.0459
 3989W        W20837   4.418  16.092   5.052  0.0602 -0.2294  0.2350
 3990W        W20838  12.965  11.377  16.251  0.0187 -0.0551  0.1565
 3991W        W20839  11.172  16.592  14.917  0.1850  0.2491  0.1117
 3992W        W20840  12.677   1.742  13.577  0.1291 -0.2638 -0.0894
 3993W        W20841   2.051  10.415   1.476  0.0557  0.0906  0.1178
 3994W        W20842  14.690   6.343   1.447 -0.2386  0.0212  0.0593
 3995W        W20843   3.762   8.516   0.915 -0.1656  0.1611 -0.1878
 3996W        W20844   0.973  17.455  13.141 -0.0260 -0.0352  0.0207
 3997W        W20845   3.165   5.855  14.479 -0.5516 -0.3492 -0.0032
 3998W        W20846   0.235  14.693  14.074 -0.1004  0.2329  0.0853
 3999W        W20847   4.827  10.603   1.924 -0.2325  0.0376 -0.0511
 4000W        W20848   3.330   8.176  13.248 -0.0703 -0.2406 -0.3643
 4001W        W20849   5.206  12.097   3.394  0.0244 -0.0012  0.1160
 4002W        W20850  14.631  12.685  12.945 -0.0458  0.0187  0.0949
 4003W        W20851  15.504   5.986   5.370 -0.0637 -0.2836  0.1019
 4004W        W20852   2.181  16.954   5.521 -0.1939  0.2755  0.2366
 4005W        W20853  10.426   8.633   3.304 -0.0844 -0.0192  0.2241
 4006W        W20854  10.453  11.282   3.899 -0.0202  0.0741  0.0423
 4007W        W20855   9.727   2.210  14.071  0.1733  0.0628 -0.4222
 4008W        W20856   8.373   3.535  11.265  0.2770  0.1030 -0.0327
 4009W        W20857   0.695   8.230   2.491 -0.2028  0.1754  0.2848
 4010W        W20858  13.302  16.215  15.561  0.1360  0.0098  0.0518
 4011W        W20859   4.853   3.611  10.781 -0.0787  0.1401 -0.1261
 4012W        W20860  15.436  10.652  14.377  0.1157  0.1069  0.1947
 4013W        W20861  11.008   4.569  14.747 -0.0759 -0.2371 -0.1643
 4014W        W20862  13.636  12.091   2.970 -0.1171 -0.1887  0.1858
 4015W        W20863  14.310  16.604   4.396 -0.3134 -0.1016 -0.3086
 4016W        W20864   6.838  12.793   3.051 -0.2166  0.1418 -0.3460
 4017W        W20865   4.960   8.095   5.795 -0.3611 -0.1288 -0.4902
 4018W        W20866  17.882   3.515   1.298  0.2986 -0.0406  0.1823
 4019W        W20867   5.224   3.563   4.045 -0.4438  0.0197 -0.1660
 4020W        W20868   2.471  15.173   3.259  0.0961 -0.2835 -0.2791
 4021W        W20869   6.694  13.868  16.343 -0.1586  0.0307 -0.0097
 4022W        W20870  14.963   1.602   2.783 -0.2572 -0.2561 -0.0263
 4023W        W20871   4.906  16.003  13.615  0.3393  0.1708 -0.1214
 4024W        W20872   8.899  11.611   3.440 -0.0648  0.2403  0.3890
 4025W        W20873  14.165  16.237  11.588 -0.1434  0.1441 -0.0427
 4026W        W20874   9.520  15.975  14.914 -0.1073 -0.1076  0.1067
 4027W        W20875   0.277  17.441   2.334 -0.0048  0.1350  0.1461
 4028W        W20876  13.884   4.842  13.097 -0.2467 -0.0072  0.0241
 4029W        W20877   7.733  17.305   4.207  0.1555 -0.1734  0.1434
 4030W        W20878   7.703   9.562   5.737 -0.0391  0.3127  0.0115
 4031W        W20879   6.391  15.388   2.705  0.0871 -0.0501 -0.2706
 4032W        W20880   3.580   7.702   5.273 -0.3261  0.2331 -0.1753
 4033W        W20881   8.569  12.233   4.431  0.0716 -0.3676 -0.5592
 4034W        W20882   7.396   7.183  14.245  0.2935 -0.0895 -0.1905
 4035W        W20883   2.917   2.845   4.270  0.0076  0.0634 -0.2355
 4036W        W20884  10.133   2.084  12.063  0.0883 -0.0085  0.3537
 4037W        W20885   2.955  15.224  11.535  0.2045  0.0765 -0.2285
 4038W        W20886   7.367  12.127  10.593 -0.0098 -0.0894 -0.2052
 4039W        W20887  16.748   5.921  13.704 -0.1601 -0.1177  0.2141
 4040W        W20888  12.563   9.047   0.049 -0.3182 -0.5891  0.1435
 4041W        W20889  15.083  10.236   4.274 -0.0058  0.0437 -0.0646
 4042W        W20890   4.159  10.494  11.416  0.2256 -0.0779 -0.0430
 4043W        W20891   6.944   5.090   0.759 -0.1878  0.0092 -0.1864
 4044W        W20892   4.337  17.614   0.670  0.0823  0.0557  0.0564
 4045W        W20893  17.523   9.118  15.057 -0.0229  0.2133  0.1863
 4046W        W20894   0.303   1.397  15.387  0.2357  0.2603 -0.0469
 4047W        W20895   3.603  17.016  15.579 -0.0313 -0.2937  0.0106
 4048W        W20896  10.816   6.903  12.908 -0.1357 -0.2416 -0.0427
 4049W        W20897   1.920  16.684  14.097 -0.1435 -0.0667  0.1330
 4050W        W20898  14.562   0.329  14.511 -0.1547  0.3282  0.1303
 4051W        W20899  17.738  16.438   3.280 -0.1397  0.1440 -0.0193
 4052W        W20900  12.910   2.920   1.634 -0.1558  0.0818 -0.1295
 4053W        W20901   8.103   3.047  15.669  0.1004  0.3905 -0.0623
 4054W        W20902   3.321   8.100  11.938 -0.0521 -0.0225  0.0251
 4055W        W20903   0.049  11.705   1.266  0.3293 -0.0125 -0.1424
 4056W        W20904   6.029   3.383  11.722  0.0912  0.0008 -0.4175
 4057W        W20905  14.936   3.193  15.733  0.0254  0.2743 -0.2159
 4058W        W20906   2.091   7.871   1.550  0.2280  0.0503 -0.0317
 4059W        W20907  16.554  13.871   4.498  0.0641 -0.2563 -0.0469
 4060W        W20908  14.591   6.083  11.235  0.2670 -0.1930 -0.0877
 4061W        W20909   5.589  17.230   4.498  0.1440 -0.1425 -0.0430
 4062W        W20910  14.844  14.794   0.051 -0.0060  0.2094  0.0439
 4063W        W20911   5.054   2.765  13.204 -0.1600  0.0160 -0.1374
 4064W        W20912   1.216   8.383   6.531 -0.2643  0.0421  0.0842
 4065W        W20913  11.022   5.682  14.518 -0.1543 -0.3447  0.0472
 4066W        W20914   1.300  12.846  15.101 -0.0177 -0.0986 -0.2291
 4067W        W20915  17.395  16.111  16.258 -0.2324 -0.0391  0.0490
 4068W        W20916   5.439  11.312  12.656  0.0456 -0.1854  0.1512
 4069W        W20917  14.118  16.484   3.032  0.1817 -0.3730 -0.0536
 4070W        W20918  15.399   4.578   2.469 -0.0454  0.2897 -0.4200
 4071W        W20919   3.585  12.895  11.927  0.1915  0.3182 -0.1618
 4072W        W20920   5.083  15.904   6.170 -0.0171 -0.1481 -0.3998
 4073W        W20921   4.270  10.617  14.224  0.3016  0.1146 -0.1245
 4074W        W20922  10.983   0.628   4.578 -0.0248  0.0923  0.0674
 4075W        W20923   6.265   8.163  14.589  0.2055 -0.3405  0.2239
 4076W        W20924  12.617   7.238  12.559  0.2225 -0.0149 -0.0920
 4077W        W20925  15.918  16.208   1.107 -0.0857  0.3305 -0.0269
 4078W        W20926  12.231  12.549   3.427 -0.0028  0.1326  0.0296
 4079W        W20927  11.136  17.829   0.303 -0.0667  0.1568  0.2442
 4080W        W20928   1.759   8.096   4.560  0.0380 -0.1250 -0.1508
 4081W        W20929   2.733  14.485  14.848 -0.0135 -0.2397  0.0850
 4082W        W20930   3.207  17.363   1.045  0.0764  0.1506 -0.1605
 4083W        W20931   4.705   8.510  10.540  0.1435  0.0752  0.0080
 4084W        W20932   1.326   6.938   2.279 -0.2105 -0.0394  0.1880
 4085W        W20933  11.450   9.111  11.576 -0.0084  0.1111 -0.2170
 4086W        W20934  13.229  15.889   3.928  0.0322  0.0558  0.0068
 4087W        W20935  12.261  11.206  15.254 -0.2303  0.0192  0.2440
 4088W        W20936  12.451  10.490  16.196  0.1929  0.0513  0.2437
 4089W        W20937   2.942   9.939  15.888  0.0754  0.0812  0.1236
 4090W        W20938   3.495   3.719  12.846  0.1399  0.0099 -0.1372
 4091W        W20939   7.107   3.179   1.208 -0.2009 -0.0732  0.1759
 4092W        W20940   9.038   5.038  12.799 -0.1744 -0.2213  0.1269
 4093W        W20941   1.018  10.072  14.469 -0.2647  0.2042 -0.4923
 4094W        W20942   2.811   0.586  12.235  0.1024  0.0440  0.0120
 4095W        W20943  17.322  15.498  11.595 -0.2920  0.1715 -0.0040
 4096W        W20944  12.104  10.706  15.409  0.0412  0.0332  0.2971
 4097W        W20945  15.379   6.845   2.467 -0.2551 -0.0035 -0.0789
 4098W        W20946  14.065  10.275   5.408 -0.3034 -0.1092  0.1755
 4099W        W20947  12.831  16.768  13.970  0.2334  0.0981  0.0621
 4100W        W20948   4.023   0.017  13.360 -0.1120  0.0468 -0.2499
 4101W        W20949   5.455   9.602  15.576  0.4470  0.1234 -0.0204
 4102W        W20950   4.432  14.647   0.274 -0.0998  0.1453 -0.0716
 4103W        W20951  14.389   2.487  15.676  0.2832  0.1206  0.0369
 4104W        W20952   2.505  11.192  11.563 -0.0585  0.1919  0.2954
 4105W        W20953   3.748   1.616   5.630  0.1781 -0.1521  0.0177
 4106W        W20954   4.238   1.376  12.500 -0.0177 -0.0191  0.2172
 4107W        W20955  17.002  15.963  12.990  0.0091 -0.2409 -0.1442
 4108W        W20956   0.543   0.261   0.586  0.2642 -0.2208  0.1715
 4109W        W20957  13.720  17.873   1.060  0.0362  0.0556  0.0159
 4110W        W20958  10.033  11.395  15.125  0.0532  0.2539 -0.0843
 4111W        W20959   9.984  15.619  12.773  0.0141  0.2595  0.1545
 4112W        W20960   0.386   2.820   3.326  0.1443  0.0225 -0.3155
 4113W        W20961  10.698  14.274  15.102 -0.0544 -0.3074  0.0096
 4114W        W20962  14.613  11.329  11.073  0.0765 -0.0545  0.0282
 4115W        W20963   7.636   7.522   4.569  0.4684  0.0152  0.1928
 4116W        W20964  11.080  15.966  13.344  0.1384 -0.0182 -0.0112
 4117W        W20965  15.232   1.395   0.444  0.0823 -0.0759 -0.0650
 4118W        W20966  13.565   6.704   0.371  0.1178 -0.1397 -0.0126
 4119W        W20967  17.276  17.826  12.645 -0.1324  0.0565 -0.2121
 4120W        W20968  10.344  15.027   0.760 -0.1631 -0.1639  0.1782
 4121W        W20969   9.210   6.197   3.330  0.5459 -0.0119 -0.2847
 4122W        W20970  10.028  10.481   2.984 -0.1560  0.0915 -0.2014
 4123W        W20971   6.131   3.810  12.345  0.1337 -0.2426 -0.2564
 4124W        W20972   0.676  14.711   1.168  0.2098  0.1028 -0.0511
 4125W        W20973   2.691   6.084  15.144  0.2691  0.0699 -0.1259
 4126W        W20974  13.886  13.376  15.970 -0.0011  0.0150 -0.1170
 4127W        W20975  14.846  11.377  13.214 -0.0367 -0.1711  0.1671
 4128W        W20976   1.040  15.075   4.590 -0.1938  0.1502  0.1545
 4129W        W20977  16.721   8.287  14.914 -0.0527  0.3586 -0.0246
 4130W        W20978  11.696  11.042   0.203 -0.1186  0.0172  0.0603
 4131W        W20979   1.836   7.286   4.606  0.2179 -0.0760 -0.1315
 4132W        W20980   4.909   0.612  13.235 -0.1168  0.0802  0.0463
 4133W        W20981   9.360   2.614  10.393  0.1183  0.0934  0.3114
 4134W        W20982   6.653   4.221  16.144 -0.3333 -0.0569 -0.2037
 4135W        W20983   4.403   1.042  11.621  0.2818 -0.1829 -0.2264
 4136W        W20984  11.021   1.062   0.248  0.1800  0.0548 -0.1689
 4137W        W20985  11.434  13.702   1.497  0.0678  0.1408 -0.0218
 4138W        W20986   5.732   5.216   2.342 -0.4388  0.1316  0.3587
 4139W        W20987  12.726  14.301  16.154 -0.0971 -0.1175  0.0047
 4140W        W20988   6.929  10.019  11.000  0.1232  0.2914  0.2746
 4141W        W20989   3.863   2.889   2.957  0.2179 -0.1541 -0.0623
 4142W        W20990   2.364   4.779   1.546 -0.2211  0.0604 -0.0991
 4143W        W20991   7.167   6.024  15.256 -0.3300 -0.1686 -0.0152
 4144W        W20992   1.552   3.547   0.044 -0.2136  0.2473  0.1474
 4145W        W20993  11.377   2.148   3.798 -0.1302 -0.2389 -0.3470
 4146W        W20994   8.852  10.728  14.734  0.1591 -0.3355  0.0805
 4147W        W20995   9.504  11.257   0.257 -0.1864 -0.0248  0.3097
 4148W        W20996   9.042  13.749  15.826  0.0224 -0.2815 -0.0774
 4149W        W20997   7.733   7.892   3.878  0.1137  0.0398  0.2225
 4150W        W20998   7.297   0.844  10.555  0.1342  0.0111 -0.2370
 4151W        W20999   3.236  10.972   4.546  0.0994  0.4544  0.2212
 4152W        W21000  15.727   6.188   0.633  0.0021 -0.0979 -0.0263
 4153W        W21001   2.461  11.464  11.085  0.5438  0.2652  0.2887
 4154W        W21002  17.122   3.820   5.256 -0.0444 -0.1446  0.0279
 4155W        W21003  12.639   7.060  11.834 -0.0264  0.1494  0.1828
 4156W        W21004   0.611   7.437   2.753  0.1284 -0.2205 -0.1547
 4157W        W21005  16.085  17.118   3.406  0.0146 -0.0899  0.1039
 4158W        W21006   3.408   2.176  15.644  0.0355 -0.0107 -0.1281
 4159W        W21007  15.699  12.077   2.808 -0.1109  0.0149  0.3551
 4160W        W21008   5.716   2.216  14.184  0.1273  0.0078 -0.0328
 4161W        W21009  12.209   1.372   4.556  0.3032 -0.2437  0.0235
 4162W        W21010   0.311  13.709  13.920  0.3991 -0.0081 -0.2701
 4163W        W21011   4.172   9.852  15.700  0.3707  0.2104 -0.2327
 4164W        W21012   8.089  17.677   3.120 -0.0341  0.0284  0.2321
 4165W        W21013   6.692   1.420  13.322  0.2470  0.0634 -0.1592
 4166W        W21014   2.312   0.373  13.950 -0.2733 -0.1496  0.2089
 4167W        W21015  16.913   5.794  15.680 -0.0465  0.1362  0.1969
 4168W        W21016   3.706   3.708   3.650 -0.2630  0.2714 -0.1392
 4169W        W21017  11.834   0.294  13.642  0.1417  0.3962 -0.2644
 4170W        W21018  11.599  10.663  12.478 -0.4297  0.0172  0.2200
 4171W        W21019   1.278  14.803  12.008  0.1179  0.0598 -0.2744
 4172W        W21020  16.106   7.634   3.519  0.1064  0.2891 -0.1184
 4173W        W21021   9.640  17.862   3.788 -0.5945  0.0205  0.3670
 4174W        W21022   3.269  13.815  11.749 -0.0187  0.3195 -0.2221
 4175W        W21023   8.437   4.478  12.982 -0.2415 -0.0758 -0.0175
 4176W        W21024   6.812   6.349  15.375  0.2041  0.0710  0.0274
 4177W        W21025  16.264  15.356   0.093 -0.0725  0.2517 -0.2398
 4178W        W21026   6.184  11.400  13.523  0.2807  0.0978  0.0892
 4179W        W21027  12.376   7.012   2.600  0.2228 -0.0659 -0.1338
 4180W        W21028  14.840  15.933   3.412 -0.1572  0.0979  0.1386
 4181W        W21029   8.112   7.754   0.271 -0.0255  0.0948  0.1084
 4182W        W21030  16.541   2.214  14.095 -0.0097 -0.1559  0.1529
 4183W        W21031  12.679  17.169   1.491  0.0767 -0.2595  0.0673
 4184W        W21032   5.062  13.470   1.640  0.3374  0.0937  0.1717
 4185W        W21033  11.004   1.041   5.421 -0.0306 -0.3796 -0.2757
 4186W        W21034   8.008  15.331  11.599 -0.0410  0.0271  0.0712
 4187W        W21035   3.089   1.824  16.107 -0.0049  0.0729  0.5248
 4188W        W21036   2.749   5.871  12.937 -0.0150 -0.0303 -0.2901
 4189W        W21037   7.583  17.755   2.268 -0.1054  0.2482  0.1915
 4190W        W21038   7.735   9.177   3.510  0.0681  0.3798  0.2153
 4191W        W21039   2.424   1.482  14.454 -0.0311  0.0737 -0.0960
 4192W        W21040   6.050   2.276   1.026 -0.0184 -0.0136  0.0521
 4193W        W21041   0.863   4.657   2.463  0.1378 -0.3195  0.0690
 4194W        W21042  11.986  12.437   3.869  0.1611  0.0063 -0.1585
 4195W        W21043   0.001  13.323  13.940  0.0062 -0.0614  0.0832
 4196W        W21044  14.258  12.571  13.787  0.1781 -0.0276  0.1571
 4197W        W21045  12.507   0.095  16.354 -0.0560  0.2490 -0.2032
 4198W        W21046  17.298   2.472   0.395  0.0197 -0.0718  0.0030
 4199W        W21047  13.750   0.558  11.539  0.1862  0.0092 -0.2955
 4200W        W21048   8.879   5.580   1.574  0.2325 -0.2243  0.1319
 4201W        W21049  17.266   3.857   3.511 -0.2380 -0.5229 -0.3143
 4202W        W21050  13.091   9.708  15.563  0.0235  0.1734  0.2069
 4203W        W21051   2.193  17.202   2.340 -0.1057 -0.0729  0.0002
 4204W        W21052  14.840  16.922   5.087 -0.3659 -0.1072  0.0769
 4205W        W21053   8.161  11.403  13.175 -0.3118  0.0683 -0.0905
 4206W        W21054  16.163  11.331  13.724  0.0120 -0.0018  0.1022
 4207W        W21055  13.756  15.454   5.834  0.1787  0.0526 -0.0036
 4208W        W21056  16.784  15.377  11.615  0.2348 -0.0977  0.4303
 4209W        W21057   4.625  14.560   2.128  0.2542 -0.0110 -0.0709
 4210W        W21058  17.554  12.004   2.256  0.0063 -0.2565  0.1508
 4211W        W21059   4.235   2.273   0.088  0.1053 -0.1535 -0.0153
 4212W        W21060  13.466   3.088  12.893 -0.1013 -0.0121  0.1585
 4213W        W21061  15.502   9.746  14.215  0.2638  0.1641 -0.0186
 4214W        W21062  17.501  14.985  14.562  0.1535 -0.2378  0.1246
 4215W        W21063  17.183   8.526   0.853 -0.1086  0.2952 -0.0456
 4216W        W21064  11.355   7.840  11.334 -0.3207 -0.0151 -0.3293
 4217W        W21065   5.334   1.484  11.938 -0.0893 -0.1142  0.1283
 4218W        W21066  15.342   1.654  14.244  0.1010 -0.1686 -0.1355
 4219W        W21067   4.803  14.907   0.041  0.2277 -0.1508 -0.2646
 4220W        W21068   6.839  14.589  13.071  0.2167  0.2456 -0.1295
 4221W        W21069   4.086   7.193   3.292 -0.3116  0.2932 -0.0687
 4222W        W21070   6.708   5.479  12.879 -0.1844 -0.0469  0.0557
 4223W        W21071   4.921   9.930  11.440  0.1270 -0.2741  0.0197
 4224W        W21072  15.897  12.608  13.645  0.1976 -0.0511 -0.0062
 4225W        W21073  16.533   9.655   2.663  0.1029 -0.0002  0.0285
 4226W        W21074   2.752  15.366  15.529 -0.0407 -0.1183 -0.1121
 4227W        W21075  10.414   8.361  14.254  0.0908  0.2033  0.1627
 4228W        W21076  16.872   2.535   2.603  0.3518  0.2369 -0.0642
 4229W        W21077   0.594   4.183   4.347 -0.1363 -0.1544  0.0473
 4230W        W21078   5.201   6.087  15.910 -0.0642 -0.0231  0.0338
 4231W        W21079  15.731  15.393  13.822  0.0068  0.1584  0.0205
 4232W        W21080  11.047   4.556   6.208  0.1365  0.0929 -0.2070
 4233W        W21081  12.727   7.288   3.757  0.0161 -0.0732 -0.2072
 4234W        W21082   4.649  10.016  11.041  0.1276 -0.2659 -0.1326
 4235W        W21083   5.341  13.539  12.255 -0.4801 -0.0629 -0.0167
 4236W        W21084  14.781   6.058   0.993  0.1765  0.2238  0.4982
 4237W        W21085   1.922   8.280  14.261  0.1138 -0.0151 -0.0546
 4238W        W21086   3.082   2.451   1.939 -0.0243 -0.0396 -0.0020
 4239W        W21087  14.002  12.392   2.027  0.0608  0.2291 -0.0174
 4240W        W21088  15.351  17.313  13.076 -0.0782 -0.0952 -0.0664
 4241W        W21089  12.617  17.307  12.343  0.3674  0.0885  0.0112
 4242W        W21090  14.751  16.724  14.558 -0.0719 -0.1536 -0.0142
 4243W        W21091  14.943   4.482   1.218  0.1304 -0.0508  0.0187
 4244W        W21092  17.472   5.110   0.447 -0.1672 -0.1838  0.2285
 4245W        W21093   8.006  16.950  15.923  0.1144 -0.1302  0.0863
 4246W        W21094  13.614  10.539   0.758 -0.3260  0.0456  0.0329
 4247W        W21095   3.094  17.560  14.209  0.0846  0.1678  0.1462
 4248W        W21096   9.056  12.846   0.322  0.0726  0.0339 -0.0840
 4249W        W21097   7.943   3.736  11.498 -0.1035 -0.0905  0.3425
 4250W        W21098  13.417  15.748  13.354 -0.2454  0.0948 -0.0553
 4251W        W21099   0.356   2.277   3.989  0.1825 -0.2171  0.1700
 4252W        W21100   6.369   7.491  13.925 -0.1266  0.1210  0.0383
 4253W        W21101   1.229  15.841   3.684  0.2088 -0.1014 -0.2189
 4254W        W21102   4.399  12.170  11.652 -0.0297 -0.0585 -0.1457
 4255W        W21103  12.891   6.986  15.270  0.1906  0.0052  0.1130
 4256W        W21104   1.687  10.232  16.310 -0.0741  0.0426  0.1481
 4257W        W21105   1.592   2.713   1.809 -0.0035 -0.0460 -0.6182
 4258W        W21106  11.798   8.733   4.357  0.0267  0.0365 -0.1443
 4259W        W21107   7.796  14.779   4.958 -0.1573 -0.0954 -0.1747
 4260W        W21108   5.951   8.649   0.175 -0.1073 -0.0051  0.2792
 4261W        W21109  15.688  14.494  15.547 -0.1967  0.2653  0.1501
 4262W        W21110   5.301  15.573   4.595 -0.3675  0.2738 -0.0739
 4263W        W21111  11.569   6.265   4.252  0.0144  0.1237  0.0063
 4264W        W21112   4.971   0.121   1.207  0.0927 -0.0314 -0.1703
 4265W        W21113   3.579  13.009  14.453  0.0316 -0.2164  0.3334
 4266W        W21114  17.281  12.722  13.601  0.0051 -0.0065 -0.0511
 4267W        W21115  15.706  15.805   4.116  0.1366 -0.0868  0.0498
 4268W        W21116  10.730  15.030   1.654 -0.0357  0.1682 -0.0518
 4269W        W21117  12.054   1.063   2.792  0.0814  0.2383 -0.1411
 4270W        W21118   6.323  11.207   5.620  0.0418 -0.4245 -0.2538
 4271W        W21119   4.969  14.909   1.355  0.0146  0.0275 -0.0101
 4272W        W21120  10.252   0.137   1.221  0.2137 -0.1651  0.1777
 4273W        W21121  14.822   9.723   2.939 -0.2644 -0.1087  0.2809
 4274W        W21122  10.703  13.517  12.151  0.1928 -0.1694 -0.1602
 4275W        W21123  13.791  15.573  12.915 -0.0506 -0.1008 -0.1942
 4276W        W21124   3.326  11.590   2.719 -0.0955 -0.0176  0.2174
 4277W        W21125  11.843   1.649  12.589  0.0536 -0.2308  0.2398
 4278W        W21126   2.810  12.329  14.444  0.1502 -0.0212 -0.0436
 4279W        W21127   0.117   8.470  16.075 -0.0660 -0.3624 -0.0835
 4280W        W21128   1.300  13.722   3.645  0.0553 -0.1978 -0.1078
 4281W        W21129   8.689   0.126   2.172  0.2231 -0.2409  0.1763
 4282W        W21130   3.103  16.312  13.018 -0.2392  0.0444  0.2381
 4283W        W21131  10.216  16.495   4.878 -0.1152  0.2620 -0.1216
 4284W        W21132  13.737  15.035  15.191 -0.2806  0.2092 -0.1785
 4285W        W21133  16.589   8.993  12.861  0.1918 -0.1227 -0.2756
 4286W        W21134  15.734   9.130  14.734  0.1246  0.2823  0.2279
 4287W        W21135  11.332   7.646   6.254 -0.0518  0.0111  0.3116
 4288W        W21136   2.655   4.639   2.875 -0.0210 -0.1124  0.2022
 4289W        W21137   3.871   7.237  12.903 -0.0152  0.1131 -0.0372
 4290W        W21138  16.498   9.269  11.361 -0.0218  0.0595  0.0301
 4291W        W21139   9.785   5.473  14.893  0.0241  0.0247  0.0951
 4292W        W21140  10.448  11.297  13.451 -0.3128  0.1435 -0.1117
 4293W        W21141   6.108  10.286  10.751  0.1903 -0.1420  0.0715
 4294W        W21142  11.414  14.015   4.525 -0.0749  0.2133  0.5203
 4295W        W21143   5.794   3.377   4.871  0.2928 -0.0062  0.3919
 4296W        W21144  13.614  10.773  12.275  0.0476  0.0376 -0.1997
 4297W        W21145  10.682   2.369   3.689  0.1386 -0.0990  0.2224
 4298W        W21146  12.009   0.727   0.863  0.0410 -0.2615 -0.2063
 4299W        W21147   9.189  15.018   3.278  0.1912  0.2428 -0.2329
 4300W        W21148   8.620  16.423  12.666 -0.1370  0.0893  0.3640
 4301W        W21149   3.568   2.909  14.849 -0.2005 -0.0730 -0.0762
 4302W        W21150   1.070   4.707  14.772  0.1095 -0.0693  0.0443
 4303W        W21151  15.231  15.953   4.107  0.1194 -0.0553  0.3858
 4304W        W21152  16.726  15.791  12.522 -0.0174  0.2193 -0.0408
 4305W        W21153  16.658  15.477   4.182 -0.2248 -0.1175  0.0908
 4306W        W21154  12.600   8.864  13.513  0.4395 -0.0409  0.0514
 4307W        W21155   3.454   0.267   4.537 -0.1663  0.0687 -0.1697
 4308W        W21156   1.496   0.481  12.822  0.2371 -0.1694 -0.2685
 4309W        W21157  13.120  13.603   5.806  0.1539  0.2950 -0.0776
 4310W        W21158   2.643   5.650  15.690  0.1956  0.1301 -0.0218
 4311W        W21159   5.672  15.300  13.621  0.0154 -0.4981  0.0495
 4312W        W21160   0.448   0.380   0.058 -0.0355 -0.1794 -0.0186
 4313W        W21161  13.313   7.091   4.006  0.1413  0.2796  0.2517
 4314W        W21162  13.993   1.520  13.631 -0.2244  0.2066 -0.0888
 4315W        W21163  11.716   3.579  15.210 -0.0832  0.1768 -0.0759
 4316W        W21164   0.513  15.665  15.100  0.1358 -0.1423  0.1021
 4317W        W21165   2.561  15.418   1.794 -0.2538  0.0414  0.0769
 4318W        W21166   0.212   3.230   4.061  0.1493 -0.3424  0.1070
 4319W        W21167   4.352  10.346   4.926 -0.1668 -0.0663  0.0946
 4320W        W21168   4.039   0.118  15.153  0.0113 -0.3219 -0.0154
 4321W        W21169   2.892  13.724   0.488 -0.0830 -0.2314  0.1684
 4322W        W21170  12.735  13.487  12.621 -0.0417 -0.2370  0.2109
 4323W        W21171   9.229   4.125   4.247 -0.1318 -0.0989 -0.1476
 4324W        W21172   1.604  15.124  16.068  0.3469  0.0286 -0.0132
 4325W        W21173   7.369  14.582  16.425  0.1148 -0.1819  0.0175
 4326W        W21174   6.102   8.993  15.497  0.1309  0.0448  0.0550
 4327W        W21175   7.184   1.185  11.188 -0.2822 -0.2020  0.0185
 4328W        W21176   9.309   6.552   0.400  0.0705  0.0788 -0.0212
 4329W        W21177  10.918   2.319   1.497 -0.0369  0.4826 -0.0242
 4330W        W21178   8.751  13.057  13.273  0.2246  0.0064  0.2308
 4331W        W21179  14.595   5.096   2.366 -0.0354  0.0657  0.2141
 4332W        W21180  12.740   8.032   1.178  0.1370  0.1258 -0.3288
 4333W        W21181   7.994   0.232  15.007 -0.1073  0.0898 -0.1400
 4334W        W21182  14.108  15.756  11.576 -0.1598 -0.1048  0.1673
 4335W        W21183  13.523   8.260   3.064  0.0687 -0.0487 -0.0113
 4336W        W21184   9.148  12.012  15.658 -0.0591 -0.2519  0.2832
 4337W        W21185  16.679   4.262  10.527  0.3678 -0.0550  0.0140
 4338W        W21186  10.106  17.478  11.102  0.2875 -0.2218  0.3872
 4339W        W21187   7.721   0.532  14.173 -0.0935 -0.1296  0.1526
 4340W        W21188   5.804  12.613   3.934  0.1638  0.3460  0.0294
 4341W        W21189   3.550   8.327   0.182  0.0132  0.0524 -0.3890
 4342W        W21190   5.580   0.040   1.182 -0.0660 -0.2220  0.0300
 4343W        W21191  10.981   3.013  14.746  0.0283  0.0598 -0.0103
 4344W        W21192   6.918  17.415   4.832  0.0347  0.4025  0.0322
 4345W        W21193   0.144   0.086  13.101 -0.2155  0.0475 -0.1682
 4346W        W21194   9.747  16.316  15.245  0.3199 -0.1727 -0.1966
 4347W        W21195   9.687   2.380   1.052  0.0845 -0.1030  0.2788
 4348W        W21196   6.990   0.874   0.733  0.0525 -0.0752  0.2088
 4349W        W21197  12.491   3.522   0.969 -0.0248  0.2244 -0.1268
 4350W        W21198   1.764   8.569  15.263 -0.0371  0.2751 -0.3535
 4351W        W21199  14.266  14.297  11.643 -0.0095 -0.2683  0.0187
 4352W        W21200  13.962  16.093  14.678 -0.0017 -0.5137 -0.2378
 4353W        W21201  15.506  11.117   2.077 -0.2957 -0.2379  0.3118
 4354W        W21202  17.526   4.021  13.542  0.0079  0.0301 -0.1711
 4355W        W21203   0.767   7.138   4.113  0.0726 -0.1366  0.2576
 4356W        W21204  11.254   2.487   2.973  0.0055  0.2693  0.0710
 4357W        W21205   8.446   5.293  15.295 -0.1255 -0.1012 -0.3989
 4358W        W21206  14.779  17.537  13.740  0.3236 -0.1611 -0.1382
 4359W        W21207   7.750  15.178  12.024 -0.0331  0.0126 -0.2142
 4360W        W21208  15.164   4.930   1.334  0.0388 -0.0984 -0.1337
 4361W        W21209   4.995   3.285  13.436  0.1773  0.1670  0.2229
 4362W        W21210   2.933   1.720   0.331 -0.0238 -0.0673 -0.0097
 4363W        W21211   6.485   2.230  15.496  0.0316  0.1825 -0.3065
 4364W        W21212   6.049  14.245   5.361  0.0497  0.2156  0.1179
 4365W        W21213   4.182  15.596  11.098  0.1858  0.2572 -0.1327
 4366W        W21214  10.834  11.776  12.630 -0.1552  0.2964  0.2664
 4367W        W21215   3.418  17.855   1.025 -0.2522 -0.1910 -0.1205
 4368W        W21216  11.563  16.702  15.705 -0.0282  0.0869  0.0042
 4369W        W21217   6.133   4.784  13.932  0.1940  0.0978  0.0394
 4370W        W21218  12.684  12.429  15.756 -0.0774  0.1287  0.1993
 4371W        W21219  13.098  16.652   2.017 -0.0309  0.0019 -0.0835
 4372W        W21220  13.449   7.460  16.006 -0.1404  0.0890 -0.1328
 4373W        W21221   5.519   3.236   2.581 -0.0252  0.0372  0.2597
 4374W        W21222   8.775   0.471   3.892  0.0994 -0.0294 -0.4318
 4375W        W21223   8.428   2.778   2.616 -0.0254  0.2727  0.0126
 4376W        W21224   1.217  10.346   1.458  0.0606 -0.0106 -0.2949
 4377W        W21225  11.858  11.592   2.099 -0.0972 -0.2334 -0.0968
 4378W        W21226  10.499   2.504  12.332 -0.2966  0.0490  0.0923
 4379W        W21227  12.174   6.126   5.082  0.3007  0.1192  0.0966
 4380W        W21228   1.892  12.600  14.340 -0.3294 -0.0563 -0.0621
 4381W        W21229   5.488   0.113  15.994  0.2464  0.0471  0.0419
 4382W        W21230   0.489  14.807  12.688 -0.0151 -0.0282 -0.2672
 4383W        W21231   5.536   8.498  15.800 -0.1085 -0.2755  0.1999
 4384W        W21232   5.418   7.477  13.541  0.2596 -0.1748 -0.0384
 4385W        W21233   3.261   4.261   2.352  0.1433  0.1669  0.0113
 4386W        W21234  16.584   9.947  16.229  0.0736  0.2788 -0.1677
 4387W        W21235  14.422   6.531  13.626  0.0164 -0.0348  0.0070
 4388W        W21236  11.788   9.918   1.884  0.0287  0.1434 -0.0200
 4389W        W21237  10.912   0.775   2.057 -0.2843 -0.0461  0.1220
 4390W        W21238   0.399   7.573  12.507  0.4387  0.3184  0.1406
 4391W        W21239   7.404   4.876   0.682  0.0239 -0.0456 -0.0203
 4392W        W21240  11.051   3.412  10.903  0.1471 -0.1649 -0.4198
 4393W        W21241  11.855  13.285   4.933  0.1899 -0.3199 -0.1713
 4394W        W21242  12.178   5.594  16.259  0.1626  0.1110 -0.1720
 4395W        W21243  14.601   0.950  15.196 -0.1777 -0.0499  0.2586
 4396W        W21244   0.349   0.382  15.380 -0.3389  0.2096 -0.1741
 4397W        W21245   3.248   2.625  12.766  0.0277  0.0707 -0.2783
 4398W        W21246  10.813  16.457  13.631 -0.2540  0.0387 -0.1226
 4399W        W21247  11.078   2.742   0.405 -0.1267 -0.1302 -0.0362
 4400W        W21248  14.676   6.947  16.105  0.2008 -0.2891 -0.1101
 4401W        W21249   1.885   0.823   2.656 -0.0783  0.2297  0.0419
 4402W        W21250  12.545   1.777   4.718 -0.3457  0.1481 -0.2467
 4403W        W21251  12.761   4.983   4.852  0.0878  0.2323  0.1820
 4404W        W21252   7.710   4.937   1.556 -0.0565 -0.0601 -0.4220
 4405W        W21253   5.969  12.018  15.630  0.1462  0.1564  0.3176
 4406W        W21254  10.494  12.026  15.534 -0.1478 -0.0201 -0.0388
 4407W        W21255  14.953   2.391   3.983  0.2324  0.0485  0.0746
 4408W        W21256   8.362  10.226   3.800  0.0001 -0.4827 -0.1350
 4409W        W21257   0.935  13.832   4.020 -0.2142  0.2077 -0.0296
 4410W        W21258   9.106   5.438   5.436  0.0906 -0.1184 -0.0169
 4411W        W21259  16.642  14.051  11.275  0.1592 -0.0789  0.3421
 4412W        W21260   7.264   2.353  15.525  0.0298 -0.0706 -0.1413
 4413W        W21261   0.711  10.699  15.906  0.6429  0.0313 -0.3067
 4414W        W21262   8.766  14.739   5.018  0.1470 -0.1645 -0.0716
 4415W        W21263  15.834  17.660  12.387  0.1298  0.0891  0.0320
 4416W        W21264  17.440  12.863  16.068  0.4464 -0.0387 -0.1064
 4417W        W21265  15.998  16.994   4.194 -0.0578 -0.2878 -0.1655
 4418W        W21266   4.767   0.876   3.755 -0.0110  0.1789  0.0692
 4419W        W21267  10.213   2.914   2.196 -0.1229 -0.0912 -0.1685
 4420W        W21268  13.466   1.040   0.658 -0.2916 -0.1252 -0.2188
 4421W        W21269   1.528   1.864  15.350 -0.3335  0.0371 -0.0055
 4422W        W21270  14.562   5.709   1.348 -0.2234 -0.2402  0.0839
 4423W        W21271  12.105  12.270  13.518  0.0145 -0.5802 -0.1241
 4424W        W21272   5.312   7.130  13.122 -0.0109 -0.0208  0.2825
 4425W        W21273   0.037   3.519   5.175 -0.1217  0.2851 -0.1033
 4426W        W21274  15.132  17.703  10.769  0.1918  0.2856  0.2536
 4427W        W21275   6.882   8.725   1.809  0.0441  0.5136 -0.1939
 4428W        W21276   7.576  15.454   4.334 -0.0226 -0.0972 -0.1194
 4429W        W21277   4.069  12.967  15.162 -0.0928  0.2609 -0.0635
 4430W        W21278   8.052   2.661   1.004  0.3459  0.0967 -0.0651
 4431W        W21279  16.288  16.272  14.146  0.1259  0.1632 -0.0147
 4432W        W21280   4.987   4.178  15.917  0.0057 -0.0712 -0.0163
 4433W        W21281   2.472  13.768   3.236 -0.3366  0.0285 -0.2152
 4434W        W21282  15.691  16.858  12.961 -0.0132  0.1320 -0.1523
 4435W        W21283   2.202  10.039   1.792  0.0062  0.0240 -0.0977
 4436W        W21284   8.691   5.605   2.726  0.1530 -0.2363  0.2758
 4437W        W21285  17.769   7.177   1.266 -0.1038  0.0974 -0.2258
 4438W        W21286  10.331  16.429   2.538 -0.0667 -0.0219 -0.1869
 4439W        W21287  10.006   5.901  14.610  0.2417 -0.0383 -0.3059
 4440W        W21288   0.305   7.020  13.225 -0.1758  0.1630  0.0426
 4441W        W21289   1.055   9.054  14.859  0.0718  0.0171 -0.4446
 4442W        W21290   0.368  17.692   0.385 -0.1562 -0.2565 -0.0099
 4443W        W21291  10.011   7.876   5.118  0.0252 -0.2676  0.0460
 4444W        W21292  17.544   5.183   4.633 -0.0107 -0.1671 -0.1425
 4445W        W21293   5.990  12.727   0.101 -0.0430 -0.0394 -0.2558
 4446W        W21294   2.985   6.433  15.498  0.1031  0.0187  0.1252
 4447W        W21295  15.521   7.699   6.243 -0.1890  0.0427  0.0905
 4448W        W21296  10.340  12.670  16.063  0.2465 -0.1518  0.2225
 4449W        W21297  14.103  11.973   2.747 -0.0457 -0.0334 -0.0820
 4450W        W21298  13.040  14.093   4.914  0.2939  0.1442  0.0628
 4451W        W21299   5.370  15.742   3.456  0.0392 -0.2183 -0.1491
 4452W        W21300  17.697   5.640  16.390 -0.1029  0.1319  0.1268
 4453W        W21301   7.822   6.341   5.489  0.3844 -0.0225  0.1075
 4454W        W21302  17.700  10.010  12.877 -0.0085  0.1492  0.0408
 4455W        W21303   2.482   2.906  11.403  0.1246  0.2307 -0.1360
 4456W        W21304   2.383  12.109  15.505 -0.0392  0.0549 -0.0832
 4457W        W21305   7.566   4.214  12.876 -0.0102 -0.1234 -0.3335
 4458W        W21306   5.583   3.714   4.441 -0.1009  0.1833 -0.1710
 4459W        W21307   5.843  14.033  15.884  0.2682  0.0932 -0.2422
 4460W        W21308   7.100   6.708   2.506 -0.0583 -0.2145  0.0506
 4461W        W21309  13.934   6.896  15.333  0.0704  0.0697 -0.2745
 4462W        W21310  13.983   4.885   3.885 -0.1507  0.0545 -0.0996
 4463W        W21311   1.176   7.305  15.608  0.2461  0.0828 -0.0364
 4464W        W21312   6.035  13.462   3.238 -0.1389  0.1626  0.2418
 4465W        W21313  11.833   0.755  12.341 -0.0493 -0.2198  0.2966
 4466W        W21314   9.629   0.367  11.978 -0.2283 -0.5277  0.0362
 4467W        W21315  10.663   4.860  14.432 -0.0586  0.0787 -0.1030
 4468W        W21316   5.916   7.883   1.664 -0.0460  0.1320 -0.1447
 4469W        W21317  12.218  16.097  11.903  0.1629  0.2580 -0.2534
 4470W        W21318  15.419   9.173  14.153 -0.2429 -0.0112  0.3834
 4471W        W21319  12.787  11.861   2.348 -0.1004 -0.0877 -0.3547
 4472W        W21320   1.634  17.192  11.606 -0.2039 -0.0512  0.4058
 4473W        W21321  10.231   6.902  12.996  0.1852  0.0515  0.0183
 4474W        W21322   4.782   3.009   1.262  0.0064  0.0072  0.0088
 4475W        W21323  12.323   9.996   0.467 -0.1331 -0.0537 -0.0477
 4476W        W21324   0.868   2.225   2.397  0.0577 -0.3763  0.2447
 4477W        W21325   0.692  16.186  10.111  0.3151  0.0702 -0.3092
 4478W        W21326   4.648   7.283  13.827 -0.1177 -0.1507 -0.0517
 4479W        W21327  12.622   1.491  11.451  0.1524  0.0270 -0.0077
 4480W        W21328  15.555   6.155  12.200  0.1070  0.3901  0.0432
 4481W        W21329   8.228   0.414   1.929  0.1309  0.1724  0.0644
 4482W        W21330   5.167  11.485  13.770  0.1184 -0.1550 -0.0447
 4483W        W21331   2.648  13.701  12.753 -0.0643  0.0513  0.0877
 4484W        W21332   1.898   2.453   0.748  0.2612 -0.0674 -0.1154
 4485W        W21333  15.207   6.278   2.332 -0.3653  0.0794 -0.2428
 4486W        W21334   0.979   2.341   0.304  0.0686  0.1043 -0.2059
 4487W        W21335   5.690   2.593   0.839 -0.3357 -0.3534  0.0039
 4488W        W21336  16.317  11.871   4.403 -0.0093  0.0261  0.1431
 4489W        W21337  17.353  14.817  13.757  0.2339  0.1100 -0.2400
 4490W        W21338  16.834   0.757  12.642  0.0043 -0.2180  0.0887
 4491W        W21339  15.605  17.412  15.403  0.4388  0.1765  0.4717
 4492W        W21340  12.551   8.849   2.007  0.2614  0.4928 -0.1276
 4493W        W21341   4.728  14.054   1.808  0.2028  0.0301  0.1858
 4494W        W21342   7.288   6.132  14.006 -0.1197 -0.0905 -0.0852
 4495W        W21343   2.466   0.306  13.089 -0.2175 -0.6042 -0.2747
 4496W        W21344  16.952  16.516   1.178 -0.1416  0.3177  0.1385
 4497W        W21345   2.287   7.347   2.369 -0.1430  0.1550  0.0217
 4498W        W21346  13.258  12.584   1.649  0.2765  0.0890  0.0552
 4499W        W21347  11.210  14.736  11.332 -0.0769 -0.3357 -0.3058
 4500W        W21348  13.471   7.220   3.091  0.3988  0.0675  0.4893
 4501W        W21349   3.960  16.223   2.461 -0.2118 -0.1946  0.2116
 4502W        W21350   1.697   8.838   2.343  0.0996 -0.2150  0.1059
 4503W        W21351  15.173   0.495   1.878 -0.1653 -0.1171  0.0792
 4504W        W21352  17.183   3.737   0.603  0.1077 -0.1405  0.1423
 4505W        W21353   8.310   4.312   5.475  0.1094 -0.2429 -0.0745
 4506W        W21354   0.501  15.443   0.503  0.1988 -0.0206  0.1453
 4507W        W21355   8.727  15.849  11.449  0.0509  0.0518 -0.4970
 4508W        W21356   7.222   3.943  15.057 -0.1535  0.2208 -0.1268
 4509W        W21357   5.205   2.596   5.495  0.1837 -0.0790 -0.3066
 4510W        W21358   4.499   4.880   5.399 -0.0845 -0.2119  0.0127
 4511W        W21359   6.459  14.869   4.790 -0.2250 -0.1423 -0.2364
 4512W        W21360   6.632  10.265  13.960 -0.0289  0.0963 -0.0908
 4513W        W21361  12.696  12.819  16.272 -0.1393  0.0020  0.2175
 4514W        W21362  12.544   5.495   3.494  0.2581  0.4179 -0.0163
 4515W        W21363   0.797  12.780   1.173 -0.4237  0.1457 -0.0361
 4516W        W21364   7.090  11.641  10.697 -0.3284  0.0165  0.2302
 4517W        W21365  17.186   2.967  11.770 -0.0608 -0.1633 -0.0421
 4518W        W21366   7.025  16.628  16.039 -0.1335 -0.1327  0.2317
 4519W        W21367   1.109  15.965  11.207  0.0621 -0.1342 -0.1470
 4520W        W21368  16.269   0.389   5.667  0.1115  0.0695 -0.0997
 4521W        W21369   3.694  13.614   5.483  0.0351 -0.2047  0.1392
 4522W        W21370  10.516  13.290  11.689  0.0269 -0.1147  0.0910
 4523W        W21371  10.997   7.295  12.653 -0.3284  0.2227  0.2573
 4524W        W21372  11.423   7.374   2.103 -0.0696 -0.0509 -0.0732
 4525W        W21373   8.236   7.701  11.706 -0.4631  0.1216  0.0018
 4526W        W21374   4.115   9.484   2.195 -0.1823  0.1309 -0.2387
 4527W        W21375  15.107   5.511  12.020 -0.1495  0.1857  0.3011
 4528W        W21376  13.678   4.780  11.510 -0.0470 -0.0032 -0.2943
 4529W        W21377   9.507  13.892  14.145 -0.0370  0.3162  0.1915
 4530W        W21378  12.924   4.735   1.517  0.1693 -0.1807  0.2867
 4531W        W21379   7.526   4.733  15.992 -0.1765 -0.2229  0.2745
 4532W        W21380   0.598  14.557  16.225  0.1003 -0.0260 -0.0831
 4533W        W21381  16.315   6.438   3.293 -0.2702 -0.0331  0.0804
 4534W        W21382   0.518   5.528   1.802  0.2415  0.1501 -0.0433
 4535W        W21383  14.786   8.786   0.468  0.0705  0.2940  0.0499
 4536W        W21384   1.087   4.839  11.923  0.0105  0.3097  0.2550
 4537W        W21385   9.991   5.444   0.414  0.0101 -0.4455  0.0643
 4538W        W21386  13.320  10.953   0.758  0.0793  0.1235 -0.0036
 4539W        W21387   6.634   8.027  15.846  0.0017  0.1093  0.2940
 4540W        W21388  13.999   0.413   1.145 -0.0010  0.1666 -0.4794
 4541W        W21389   8.252  13.728  12.822 -0.1233  0.1336 -0.0682
 4542W        W21390   4.380  17.624   4.656 -0.1434 -0.0950 -0.1870
 4543W        W21391   0.145   1.396   4.585  0.0342 -0.1591 -0.2437
 4544W        W21392  12.289  15.913   1.804  0.1341  0.2627 -0.0658
 4545W        W21393  17.791   8.416   2.233 -0.1937 -0.2200  0.3384
 4546W        W21394  12.068  11.771  13.453  0.0096 -0.1227 -0.0011
 4547W        W21395   2.007  14.973   3.101 -0.0467 -0.0649 -0.1160
 4548W        W21396  13.677   5.768  13.326  0.0138 -0.0717 -0.1585
 4549W        W21397   5.057   4.385   1.971  0.1769 -0.4307 -0.0846
 4550W        W21398   2.563  13.696   4.329 -0.1158  0.4187 -0.0411
 4551W        W21399   4.218   9.788  14.602 -0.0048 -0.0185 -0.0966
 4552W        W21400  17.505   7.303   4.230 -0.1297 -0.0806  0.1254
 4553W        W21401  11.454  17.829   2.343  0.2529 -0.1404 -0.0228
 4554W        W21402   2.185   1.620  11.822 -0.1408  0.1281 -0.1265
 4555W        W21403  17.521   1.963   3.681  0.3687  0.0461 -0.1855
 4556W        W21404   0.968   1.662  12.054  0.0663  0.0484 -0.0869
 4557W        W21405  14.943   2.083  14.588  0.0551 -0.1281  0.0186
 4558W        W21406  14.567  16.428   1.721 -0.1216 -0.0273  0.2171
 4559W        W21407   8.301  14.597  15.943  0.1503  0.3723  0.0246
 4560W        W21408   1.141  11.670   3.967 -0.0293  0.0757  0.0121
 4561W        W21409  13.692   4.994  13.802 -0.1076  0.1292  0.1648
 4562W        W21410   2.933  14.539  16.263  0.0003 -0.0786 -0.0223
 4563W        W21411   5.057  13.277   2.172 -0.0558  0.2917 -0.0194
 4564W        W21412  11.712   6.991  15.822  0.3576  0.1812  0.2584
 4565W        W21413   6.086  16.726   5.662 -0.0498 -0.3519  0.2017
 4566W        W21414   1.096  15.127   3.053 -0.0726 -0.0536 -0.1847
 4567W        W21415   2.941  12.099   1.080  0.1923 -0.0938  0.1045
 4568W        W21416   3.530   3.219  11.508  0.1161 -0.2706  0.2735
 4569W        W21417   3.146  10.365  11.482  0.1684 -0.0036  0.1037
 4570W        W21418   0.929   2.327  13.378  0.4892  0.2743 -0.1610
 4571W        W21419   5.928  13.020   1.980  0.0937 -0.0950  0.0070
 4572W        W21420   9.683  13.870   3.053 -0.2191 -0.0779  0.1261
 4573W        W21421   2.838  13.960   5.131  0.1382  0.0968 -0.1724
 4574W        W21422   3.348  16.516  12.667 -0.1382 -0.0989  0.0458
 4575W        W21423   8.034   7.246   0.145  0.2067 -0.0496 -0.3389
 4576W        W21424  12.421   6.201   4.591 -0.2417 -0.1046  0.0714
 4577W        W21425  15.950   8.281  16.046  0.1626  0.0448 -0.0456
 4578W        W21426   6.502   1.457   2.159  0.3733  0.0928  0.0579
 4579W        W21427  12.005  15.636   3.738  0.0580  0.1830  0.0980
 4580W        W21428  14.364   3.677   0.915 -0.1338  0.1262 -0.0013
 4581W        W21429  12.112  10.643  12.267 -0.0617  0.0977  0.1396
 4582W        W21430   2.775   4.934  16.135  0.1688  0.2590  0.1358
 4583W        W21431   1.445  14.601   1.239  0.2955  0.2027  0.1864
 4584W        W21432  17.771  17.780  12.490  0.3680 -0.0054 -0.1215
 4585W        W21433   3.546   7.724  13.065 -0.1012  0.1505 -0.0475
 4586W        W21434   9.326   3.090  11.090  0.3864  0.2032  0.0770
 4587W        W21435   3.749  14.922  14.594 -0.1987  0.1683 -0.0457
 4588W        W21436   3.956   8.458   2.779  0.0691  0.4809  0.0930
 4589W        W21437   5.399  17.281  15.292 -0.0455 -0.0672 -0.1909
 4590W        W21438  15.231  17.580  11.787  0.0175 -0.1427 -0.1705
 4591W        W21439   3.627   4.907   1.690 -0.1310  0.0814 -0.1446
 4592W        W21440  14.124  11.769  12.611  0.4640  0.0485 -0.3866
 4593W        W21441   7.081  16.939  15.574  0.1108  0.4222 -0.0786
 4594W        W21442   9.158   8.645   5.020  0.1189 -0.1860 -0.0413
 4595W        W21443   0.677   2.281  15.246 -0.1960 -0.1876  0.0906
 4596W        W21444  13.282   7.330   3.563 -0.5349 -0.1632 -0.0553
 4597W        W21445  17.154   1.548  16.368 -0.0194  0.1472  0.1258
 4598W        W21446   8.012   2.056   2.784  0.1823 -0.1885 -0.2365
 4599W        W21447  14.320   7.013  16.460  0.0982  0.1214 -0.2275
 4600W        W21448   3.575  11.371  13.012 -0.1037  0.0738 -0.2905
 4601W        W21449   8.620   0.629   2.282 -0.1603  0.3095 -0.2979
 4602W        W21450   7.300  17.885   1.825  0.3601  0.1418  0.0404
 4603W        W21451  14.738  17.232   3.365  0.0802 -0.1434  0.0244
 4604W        W21452   2.768   2.893   4.800 -0.4418 -0.2580 -0.3635
 4605W        W21453   3.415  12.943  13.493 -0.1883  0.1643  0.3507
 4606W        W21454   3.161  11.631  13.263 -0.4095 -0.2563 -0.0638
 4607W        W21455  10.173   6.396   1.787  0.2206  0.3301 -0.0974
 4608W        W21456  10.243   4.303   1.000 -0.3022 -0.0728  0.0758
 4609W        W21457   4.366  11.458  12.951  0.0459  0.3285 -0.2341
 4610W        W21458   9.031   2.904   4.888 -0.0805  0.0709  0.1606
 4611W        W21459   1.133  14.346  15.659 -0.1071 -0.0776 -0.0790
 4612W        W21460   0.602   8.241  11.546  0.1541 -0.2193  0.0203
 4613W        W21461   2.541  14.684   1.333 -0.0788 -0.0232  0.2108
 4614W        W21462  15.979  13.821  11.221  0.0807  0.2071  0.2153
 4615W        W21463   8.283   0.598  15.300 -0.1150  0.1713  0.0717
 4616W        W21464  11.024  12.581  11.645 -0.0392 -0.2203 -0.1148
 4617W        W21465  13.616   0.592   0.870  0.0567  0.1598  0.0660
 4618W        W21466   3.481   4.427   4.207  0.1190  0.2278 -0.3315
 4619W        W21467   9.760   7.376   0.967 -0.2386  0.2349  0.1712
 4620W        W21468   6.705  12.977   3.516 -0.3405  0.1955 -0.0449
 4621W        W21469   7.972   2.591  11.314 -0.1970 -0.1784  0.1375
 4622W        W21470   7.863   6.581   3.731 -0.0036 -0.1346 -0.2948
 4623W        W21471  16.100   3.140   5.021  0.0301 -0.1708  0.2177
 4624W        W21472  13.394   7.924  16.073 -0.0398 -0.2937  0.1658
 4625W        W21473   8.872   6.167   3.881 -0.0192  0.3392  0.4549
 4626W        W21474   9.250   9.296  13.753  0.2042  0.2756  0.0853
 4627W        W21475  16.722   7.515  13.446 -0.0947 -0.2405 -0.1049
 4628W        W21476   6.301   2.512  11.500 -0.1640 -0.0171 -0.1956
 4629W        W21477  12.865   0.950  12.445 -0.1494  0.0544  0.0573
 4630W        W21478   1.705   4.551  12.582  0.1602  0.1211  0.2876
 4631W        W21479  11.441   4.068   2.097 -0.0414  0.0783 -0.2396
 4632W        W21480   2.194   2.093  11.630 -0.0228 -0.1552  0.3375
 4633W        W21481   4.059  10.674  13.452  0.0450 -0.0442 -0.0662
 4634W        W21482   2.798  14.502   2.913 -0.0951 -0.2199 -0.6045
 4635W        W21483   2.445   5.777  11.855  0.0351  0.1788  0.1311
 4636W        W21484   0.650  17.069  12.460  0.3583 -0.0486  0.1473
 4637W        W21485  15.518   4.081  15.370 -0.1373  0.1330 -0.2093
 4638W        W21486   8.117  12.657  12.857  0.0706 -0.0576 -0.4145
 4639W        W21487  15.827  16.653   0.055  0.0653 -0.0352  0.1038
 4640W        W21488   6.769  14.942   1.410 -0.0710  0.0406 -0.0612
 4641W        W21489  16.500   3.275   1.757 -0.1163  0.1577  0.0347
 4642W        W21490   7.566   4.049  11.439  0.0742 -0.3129 -0.4829
 4643W        W21491   7.407   3.129  12.824  0.3621 -0.1026 -0.0596
 4644W        W21492   6.502  11.429  13.078 -0.0899 -0.0918 -0.1414
 4645W        W21493  16.260  17.013  12.877 -0.0390 -0.0544 -0.0294
 4646W        W21494  16.406   7.615   2.654  0.1052  0.1811 -0.1053
 4647W        W21495   1.218  10.812   4.415  0.1057  0.1675 -0.2985
 4648W        W21496   0.415   9.316  12.868  0.1416 -0.1225 -0.3052
 4649W        W21497   9.839   4.011   2.960  0.0298  0.1619 -0.1265
 4650W        W21498  17.440  12.458  15.108  0.3034  0.2272 -0.1396
 4651W        W21499  17.874   5.293   2.531  0.1050  0.2201 -0.0145
 4652W        W21500   4.035  12.946  14.223 -0.3253  0.2767 -0.1442
 4653W        W21501  16.385  14.364   2.490  0.0279  0.3521  0.1910
 4654W        W21502  10.919  14.214   4.407  0.1970 -0.0698  0.0308
 4655W        W21503   4.529  14.583   2.605  0.1598 -0.0106  0.2412
 4656W        W21504  17.590   3.893   5.181  0.3356  0.0680 -0.0546
 4657W        W21505   2.976   7.093   3.237 -0.0206  0.2724 -0.3852
 4658W        W21506  15.352  12.336  10.296  0.1994 -0.1727  0.0111
 4659W        W21507  16.541  14.243  14.415  0.2281  0.0012 -0.3468
 4660W        W21508  13.517  13.267  12.990  0.0879 -0.0508  0.1913
 4661W        W21509  14.946  12.011   3.251 -0.1155  0.2859  0.0408
 4662W        W21510  11.297   9.649   4.041 -0.0854  0.1947 -0.1236
 4663W        W21511  13.345  14.950   4.144 -0.0011 -0.1188 -0.0909
 4664W        W21512   8.145   1.265   2.600 -0.1745 -0.1394 -0.2180
 4665W        W21513   9.447   3.457   1.887 -0.1086 -0.2527 -0.3314
 4666W        W21514   5.945  10.814  15.551  0.3350  0.1874 -0.0982
 4667W        W21515  15.310  11.157  13.050 -0.1859 -0.0476 -0.1567
 4668W        W21516   6.112  13.426   0.720 -0.1670 -0.3118 -0.0213
 4669W        W21517   7.589  17.507  14.358 -0.1877  0.5455 -0.3682
 4670W        W21518  15.174  10.630   1.418  0.1571 -0.1173 -0.1920
 4671W        W21519  11.067  10.621   1.645  0.1982 -0.0009  0.0450
 4672W        W21520   0.484  17.170  11.317  0.0633 -0.3104  0.1754
 4673W        W21521   5.211  15.529  13.766  0.0479  0.0558  0.1819
 4674W        W21522   3.033   7.109   0.617  0.1897 -0.1729  0.1278
 4675W        W21523   0.276   8.128  11.996 -0.0969  0.0900  0.5221
 4676W        W21524  14.966   1.669  11.588 -0.2082 -0.1140  0.3498
 4677W        W21525   6.369   5.175   5.164  0.0060 -0.1630 -0.1374
 4678W        W21526  14.016  14.030  16.004  0.0881 -0.0271  0.4576
 4679W        W21527   5.272  16.764  12.717 -0.3146 -0.1782  0.1933
 4680W        W21528  12.956   3.139  11.901 -0.2221 -0.2526  0.2111
 4681W        W21529   7.952  12.827  14.713  0.0087 -0.0296 -0.1390
 4682W        W21530  14.847   4.129  11.982  0.1659 -0.1393 -0.0860
 4683W        W21531  16.511  17.289  15.779  0.0900 -0.0207 -0.0780
 4684W        W21532  14.469  16.217   2.799  0.1346 -0.1667 -0.1031
 4685W        W21533  11.630   0.752   2.812 -0.2185  0.0437 -0.0620
 4686W        W21534   4.994   0.251   1.724 -0.0396 -0.1953 -0.2201
 4687W        W21535   5.411   2.052   3.744  0.2613 -0.1694 -0.1339
 4688W        W21536   5.669   1.151  16.191  0.0088 -0.2163  0.1853
 4689W        W21537  13.784   4.664   3.439 -0.0990 -0.0769 -0.4181
 4690W        W21538   8.823   1.028   4.222 -0.2003 -0.0820 -0.0168
 4691W        W21539  12.732   5.204   2.249  0.0198  0.0533 -0.0623
 4692W        W21540   6.324   2.913   3.297 -0.1213  0.0171 -0.3209
 4693W        W21541   5.478  10.566  11.059 -0.0925 -0.1499  0.1098
 4694W        W21542  17.824  17.280  15.530 -0.0498 -0.1030  0.1215
 4695W        W21543   1.525   1.711   0.565 -0.0250 -0.2135 -0.0822
 4696W        W21544  17.751  13.290   4.962 -0.1251  0.1007  0.0732
 4697W        W21545   1.841   8.743  14.391  0.0274 -0.1723 -0.2049
 4698W        W21546  11.740  14.286  12.817  0.2200 -0.1965 -0.1931
 4699W        W21547  16.463  15.076   0.494 -0.1621 -0.1987 -0.2376
 4700W        W21548  13.951  12.432   3.153 -0.0925 -0.1007 -0.3602
 4701W        W21549   1.646  17.311   0.589 -0.1497 -0.0450 -0.0084
 4702W        W21550   5.119  17.123  12.294 -0.0573  0.0066  0.3535
 4703W        W21551  17.849  12.119  13.645  0.0632 -0.1152  0.1712
 4704W        W21552  12.600   8.506  11.989  0.1098  0.0696 -0.0043
 4705W        W21553   6.180  11.569   0.721 -0.3377 -0.2318  0.0234
 4706W        W21554  16.013   2.511   3.790  0.3864  0.1809 -0.0360
 4707W        W21555   6.301   5.258   3.240  0.0420  0.0613 -0.0844
 4708W        W21556   1.825  12.176  14.666 -0.0926 -0.1364 -0.0693
 4709W        W21557   0.057  16.539   2.779  0.1070 -0.0057  0.0495
 4710W        W21558   4.799   8.922   1.799 -0.1040 -0.0018 -0.0804
 4711W        W21559   8.871  17.717   5.471 -0.1069  0.0623  0.0176
 4712W        W21560  12.896  15.837  14.664 -0.0689 -0.2155  0.4881
 4713W        W21561  17.443  16.177   4.323 -0.2006  0.0577  0.1568
 4714W        W21562   8.116  12.520   3.628 -0.2695  0.0550 -0.2956
 4715W        W21563   6.468  17.166   3.931  0.1363  0.2989 -0.0511
 4716W        W21564   7.829  12.427   4.016  0.1893 -0.2191 -0.0897
 4717W        W21565   0.173   5.788  13.468  0.0384 -0.1303  0.0459
 4718W        W21566   2.870  14.826  15.255  0.2827 -0.0739 -0.3244
 4719W        W21567  12.519   2.878  12.656 -0.0070 -0.2325  0.1418
 4720W        W21568   6.509  14.324  11.445 -0.0235 -0.0734  0.0721
 4721W        W21569   3.247  15.951   1.421  0.1254  0.1071  0.1736
 4722W        W21570   4.499   8.892  16.381  0.1245 -0.0527  0.0559
 4723W        W21571   3.856   5.912   2.411  0.1538  0.0439  0.1507
 4724W        W21572   4.085   8.963  10.819 -0.2048  0.0773 -0.0829
 4725W        W21573  12.889  15.366   0.775  0.0351  0.1078  0.1481
 4726W        W21574   4.460  10.313  12.272 -0.0081  0.1098 -0.0599
 4727W        W21575   0.296  10.591   3.636 -0.2715 -0.0743  0.1552
 4728W        W21576   8.631   6.938  12.787 -0.1822 -0.0313 -0.3772
 4729W        W21577  15.048   9.192   4.669  0.1677 -0.0453  0.1826
 4730W        W21578   5.817  15.668  15.110 -0.1754 -0.1357 -0.1988
 4731W        W21579   2.348   3.093   5.050  0.0728 -0.0396  0.4050
 4732W        W21580   4.573   5.960   2.673 -0.0782 -0.1294  0.0241
 4733W        W21581   5.940   7.846  12.525 -0.3435  0.0089 -0.2055
 4734W        W21582  15.242   2.718  13.316 -0.3481 -0.1789  0.1952
 4735W        W21583  14.010  10.728   3.392  0.1153  0.0393  0.0031
 4736W        W21584   6.809  12.401   5.339  0.0723  0.0314 -0.0208
 4737W        W21585  17.793  12.520  11.829 -0.0519 -0.4696  0.2138
 4738W        W21586  14.635   4.657   2.626 -0.2077 -0.2562  0.3042
 4739W        W21587   7.489   8.857   0.245 -0.3204  0.1630 -0.0107
 4740W        W21588  16.327  15.759  14.858  0.0120  0.1379  0.1372
 4741W        W21589   4.204  12.108   3.144  0.0722  0.0509 -0.2325
 4742W        W21590  15.349  16.740   1.667  0.2974  0.2577 -0.0230
 4743W        W21591  16.302  13.228  10.464 -0.0238  0.1415 -0.0273
 4744W        W21592   8.719  13.434   2.005  0.0592  0.0363 -0.2023
 4745W        W21593   5.384   9.771  14.470  0.0261  0.3080 -0.1757
 4746W        W21594  11.252   5.351  14.193  0.2136  0.0263  0.0613
 4747W        W21595  13.119   7.142  15.683  0.0141  0.1241  0.1279
 4748W        W21596   9.244   1.763   5.442 -0.0954  0.2684  0.1821
 4749W        W21597   4.638   8.560  13.251  0.3583 -0.0346 -0.3265
 4750W        W21598  11.924  12.618  12.524 -0.1898 -0.2873 -0.1954
 4751W        W21599   3.401  11.383  15.889 -0.1430 -0.2858 -0.0238
 4752W        W21600  13.744  15.790   3.640 -0.2251 -0.1494 -0.3214
 4753W        W21601   7.912  14.152  13.538 -0.0298 -0.1222  0.2758
 4754W        W21602   9.610   1.948   3.050  0.0550 -0.1909 -0.0739
 4755W        W21603   3.611   9.856   1.010  0.2975  0.0282 -0.1294
 4756W        W21604   6.460  17.864   2.904  0.2780  0.2335  0.1909
 4757W        W21605   8.305   1.716  12.231 -0.2078  0.1505 -0.3535
 4758W        W21606   2.477   3.720  14.742 -0.1806 -0.2164 -0.0543
 4759W        W21607  10.621  13.510   5.594  0.1051 -0.1967  0.0355
 4760W        W21608   5.351  10.692   5.083 -0.0673  0.0631  0.2028
 4761W        W21609   0.276   9.718   1.680 -0.0732 -0.0947  0.2248
 4762W        W21610   2.170  12.840   4.107  0.0763  0.0883 -0.0363
 4763W        W21611   1.285   6.660   0.926  0.0154  0.1058  0.0812
 4764W        W21612   1.895   1.430  12.296  0.0679 -0.0116  0.1239
 4765W        W21613  10.996  16.814   0.660 -0.1191 -0.1583 -0.4077
 4766W        W21614   9.340  13.871  11.914 -0.0776 -0.0994  0.3224
 4767W        W21615   7.363  12.708   1.452 -0.2125 -0.0011  0.2194
 4768W        W21616   9.402  12.271   0.143  0.1115 -0.1831 -0.0950
 4769W        W21617   2.526  13.279  12.471  0.1706  0.2428  0.1197
 4770W        W21618  13.120   4.452  12.313  0.2297  0.0511 -0.1651
 4771W        W21619   2.726   8.152   5.853  0.1654 -0.2738  0.2362
 4772W        W21620  14.768   8.091  11.921 -0.0338  0.1302  0.1454
 4773W        W21621   1.372  11.788  15.554  0.0590  0.1478  0.0790
 4774W        W21622   2.275   2.167  12.724  0.0533 -0.1946  0.1656
 4775W        W21623  16.899  12.324  15.087  0.0111  0.1713  0.0975
 4776W        W21624  16.151   6.558  12.389  0.2394  0.2301 -0.0831
 4777W        W21625  15.170  13.719  13.198  0.1947 -0.1175  0.2800
 4778W        W21626   0.924   7.285   0.373 -0.0516 -0.1652  0.0562
 4779W        W21627  10.409  12.155   3.135  0.2433 -0.2026  0.0798
 4780W        W21628   4.982   1.785  15.405  0.0474 -0.2072  0.2169
 4781W        W21629   7.365   0.764  11.445 -0.1835 -0.0488  0.2220
 4782W        W21630   4.229   1.806   1.665 -0.1991  0.2917 -0.1509
 4783W        W21631  14.686  12.856  15.290  0.0960 -0.1079 -0.0558
 4784W        W21632   1.030   7.999  15.090  0.0280  0.0286  0.0745
 4785W        W21633   6.985  12.740  12.497 -0.2901 -0.0860  0.0931
 4786W        W21634  16.345   8.226   6.287 -0.0809  0.1640  0.1699
 4787W        W21635   6.346  11.310   1.130  0.1680 -0.0791  0.0633
 4788W        W21636   0.716  10.817  13.064  0.0412  0.4589  0.2058
 4789W        W21637   4.695   1.787   5.186  0.3480 -0.2952  0.0634
 4790W        W21638  10.928  16.614  10.853  0.3200 -0.0323  0.3417
 4791W        W21639  13.491  10.238   2.774  0.3280  0.1101 -0.1002
 4792W        W21640   4.974   3.958   5.114 -0.1233 -0.1586  0.0175
 4793W        W21641   7.667  15.727  15.542  0.0397  0.1051 -0.1938
 4794W        W21642   5.789   1.524  15.765  0.0050  0.2072 -0.0420
 4795W        W21643   6.409  16.537  14.390 -0.2037 -0.0393  0.2652
 4796W        W21644   2.061   6.010  14.491  0.0013  0.0249 -0.2570
 4797W        W21645   8.156  14.959   3.134 -0.0492  0.0718  0.2617
 4798W        W21646   4.581   5.149  11.518 -0.0552 -0.1534  0.0182
 4799W        W21647  12.565   0.967  14.613 -0.2757  0.1470  0.1103
 4800W        W21648  17.771   6.448   3.982 -0.2577 -0.0746 -0.0441
 4801W        W21649  11.452  14.321  16.350  0.1811  0.0973 -0.2698
 4802W        W21650   4.975  10.849  15.437 -0.0507  0.0193 -0.2144
 4803W        W21651  17.394   8.051  10.975  0.0614  0.1078  0.4072
 4804W        W21652   3.613  12.080   0.258 -0.0329 -0.4665  0.0113
 4805W        W21653  16.724  11.466   3.270  0.3184 -0.0339 -0.1838
 4806W        W21654   0.079  16.999   1.212  0.1543 -0.2397 -0.1250
 4807W        W21655  10.550   4.286  14.867  0.1164 -0.0363 -0.1823
 4808W        W21656  17.601   2.586  13.010  0.1561 -0.1117  0.3861
 4809W        W21657   5.581  14.375   5.453 -0.0372  0.1031  0.0882
 4810W        W21658   8.753   4.467   5.619 -0.2851 -0.3486 -0.3106
 4811W        W21659   7.907   2.090   1.446  0.0245  0.1998 -0.1121
 4812W        W21660   2.896  15.285  15.037 -0.1183  0.1595 -0.0834
 4813W        W21661   6.969  15.806   4.838  0.0188  0.3698  0.0197
 4814W        W21662   2.504   5.002   0.945 -0.2310 -0.0775  0.0598
 4815W        W21663   2.260  12.460   0.164 -0.1110  0.3025 -0.0591
 4816W        W21664   9.563  14.270   5.287  0.0496  0.1422  0.1607
 4817W        W21665  13.174   4.464   1.169  0.1270  0.0590  0.0476
 4818W        W21666   1.059   7.624  12.044  0.2272 -0.2923 -0.0960
 4819W        W21667   6.276   2.905  12.029  0.0389  0.1473  0.0815
 4820W        W21668  16.883  10.570   0.243 -0.2018  0.0909 -0.0131
 4821W        W21669  16.214  17.289  11.106 -0.2592  0.0555  0.2566
 4822W        W21670   5.997  14.114  12.104 -0.0511  0.0690 -0.1255
 4823W        W21671   5.113  14.705  16.126  0.1292  0.0449  0.1203
 4824W        W21672   2.502   3.611  15.494 -0.0388 -0.2096 -0.0231
 4825W        W21673   1.758  17.295  12.110 -0.0537  0.0467  0.1893
 4826W        W21674  10.510  17.626   0.892  0.2147 -0.0276 -0.1109
 4827W        W21675   2.417   0.139  15.065  0.1589  0.1321 -0.0086
 4828W        W21676  16.206   2.492  13.720  0.0908 -0.1476  0.0209
 4829W        W21677   1.673  16.359  12.330  0.0166 -0.0735  0.2250
 4830W        W21678   5.944   6.461  11.217  0.2133 -0.0041 -0.1620
 4831W        W21679  12.476  10.112   4.925  0.0738  0.2619 -0.0685
 4832W        W21680   7.550   3.213  15.590 -0.3674 -0.0751  0.1244
 4833W        W21681  11.536   7.010  13.384 -0.0951 -0.0045  0.2627
 4834W        W21682   8.301  11.409   2.179  0.3191  0.1458  0.1195
 4835W        W21683   9.762  13.357  12.493  0.0552 -0.1097  0.0590
 4836W        W21684  15.582   1.714  12.484 -0.1735  0.0295 -0.1117
 4837W        W21685  10.241  16.700   0.044 -0.0179  0.0296 -0.1291
 4838W        W21686  17.600   4.882  16.037 -0.0024  0.0428  0.3047
 4839W        W21687   1.987  16.489  15.793 -0.2977  0.3388 -0.1036
 4840W        W21688   9.134  11.195  12.784  0.0478 -0.3986 -0.1965
 4841W        W21689   6.408  11.989   3.171  0.2475  0.0183  0.1167
 4842W        W21690  13.083  16.392  15.159  0.2176 -0.1541 -0.3582
 4843W        W21691  11.118   2.298   2.112  0.4311  0.0996 -0.2016
 4844W        W21692  13.957   4.506  11.183  0.1462 -0.0729  0.4242
 4845W        W21693   7.898   2.619   1.481 -0.2572  0.1707  0.1622
 4846W        W21694   3.300  12.168   2.879  0.1064  0.0020  0.4495
 4847W        W21695   0.980   8.562   3.088 -0.0797 -0.0121 -0.0699
 4848W        W21696   3.450   6.141   1.217  0.1030 -0.1883 -0.1274
 4849W        W21697  15.294  13.699  15.703 -0.2455 -0.0743 -0.3631
 4850W        W21698  10.225  15.891   1.127  0.1228 -0.2509  0.2546
 4851W        W21699  15.151  12.258  13.316 -0.1444 -0.0383  0.2929
 4852W        W21700   0.670  17.479  14.868 -0.0142  0.0633  0.2555
 4853W        W21701  14.216   0.011  14.945  0.1218 -0.0876  0.1854
 4854W        W21702  12.754  14.321   2.351  0.0526 -0.2878  0.0451
 4855W        W21703   8.681   4.689  14.782 -0.0015  0.2012  0.2052
 4856W        W21704  14.895  10.740   4.696 -0.1600 -0.0377  0.1225
 4857W        W21705  13.680  12.428   4.478  0.0762 -0.0004 -0.1315
 4858W        W21706   6.656   9.383  14.676 -0.0575 -0.1814 -0.1513
 4859W        W21707   4.101  13.856   0.449 -0.1027  0.2426 -0.1583
 4860W        W21708  12.769  17.686   0.290 -0.1366  0.2489  0.1891
 4861W        W21709  13.247   2.146   2.829  0.0886  0.0099 -0.0588
 4862W        W21710  12.056  12.698   4.319  0.1121 -0.1089 -0.3117
 4863W        W21711   5.340   1.167   0.275 -0.0224 -0.1223  0.1288
 4864W        W21712   4.040   8.205   0.149  0.0912  0.2788  0.3123
 4865W        W21713  14.229  15.065   4.582 -0.0602 -0.2160 -0.0404
 4866W        W21714   9.082  15.071  12.707  0.0960  0.0774  0.2828
 4867W        W21715   3.550  13.400  11.756  0.0578 -0.0881 -0.2436
 4868W        W21716   3.657  15.916   1.150  0.2438  0.0413  0.2124
 4869W        W21717   1.545   3.783   0.491 -0.0344 -0.3076 -0.0743
 4870W        W21718   3.676   0.619   1.580 -0.0581 -0.1668  0.0040
 4871W        W21719  12.352   0.545   3.914  0.0912 -0.0551 -0.0504
 4872W        W21720  12.360   0.220  12.148  0.3582  0.0065  0.0219
 4873W        W21721   2.111   1.768   2.282 -0.0015  0.1162 -0.0867
 4874W        W21722  16.542   9.973   4.495 -0.1517  0.1699  0.0729
 4875W        W21723   5.302  15.250   0.853 -0.3699  0.0504  0.1198
 4876W        W21724  11.042  17.032  14.544 -0.2690 -0.0212  0.1285
 4877W        W21725   5.431  17.809  15.412 -0.0731  0.1401 -0.2837
 4878W        W21726   7.992  15.698  16.437 -0.3115  0.0777 -0.0905
 4879W        W21727   3.985   9.879   0.716  0.2775  0.0093  0.2169
 4880W        W21728   2.417   4.221   2.267  0.3270 -0.2600 -0.0435
 4881W        W21729   6.329   9.845   3.106 -0.0461 -0.3998  0.0755
 4882W        W21730   6.809  13.857   3.562 -0.0600  0.1273  0.3352
 4883W        W21731   3.720   6.006   3.217  0.2050 -0.0441 -0.1228
 4884W        W21732  14.378  14.483  13.958 -0.1228  0.2422 -0.1474
 4885W        W21733  16.459  12.788  11.870 -0.3844  0.1067 -0.0625
 4886W        W21734   5.070  16.652   0.939 -0.0284 -0.0837 -0.1746
 4887W        W21735   8.523   8.527   5.255  0.1736  0.2882  0.0565
 4888W        W21736  13.213  15.910  11.179 -0.2011 -0.1301 -0.1911
 4889W        W21737   6.001   3.689  15.033 -0.2761  0.0996  0.0796
 4890W        W21738  12.767  12.912  15.402  0.1408 -0.2667 -0.2955
 4891W        W21739  13.000   6.159   0.822  0.1154 -0.2962 -0.0517
 4892W        W21740   6.535   7.495   3.637  0.1355 -0.1846 -0.3202
 4893W        W21741   7.824  13.714  13.790 -0.0824 -0.0466 -0.1979
 4894W        W21742   9.795   9.332   2.130 -0.1864 -0.0966  0.1077
 4895W        W21743  11.499   2.000  14.235 -0.3126 -0.1061  0.0803
 4896W        W21744   6.669  13.645   3.968  0.1531  0.0477  0.2779
 4897W        W21745  15.842   2.461  14.661  0.2948 -0.0857  0.1002
 4898W        W21746  17.799   9.366   0.185 -0.0717  0.0648 -0.0135
 4899W        W21747  13.573  14.427   4.463  0.0223 -0.0814 -0.0592
 4900W        W21748  11.956   5.775  11.377  0.2103  0.1288 -0.1988
 4901W        W21749   9.380   1.340  16.050  0.2014  0.1122  0.1210
 4902W        W21750   7.626   3.397   1.834 -0.0947  0.1627  0.0979
 4903W        W21751  13.958   1.702   0.961  0.0018  0.1156 -0.1810
 4904W        W21752   9.005   1.585  13.818 -0.2808  0.0665  0.4584
 4905W        W21753   2.959  13.118   4.246  0.0909 -0.1947 -0.0864
 4906W        W21754   7.830   2.264  10.412 -0.1872 -0.3181  0.1627
 4907W        W21755   4.859   3.977  12.465  0.3122  0.0837  0.1386
 4908W        W21756   4.545   7.135  15.028 -0.2492 -0.0600  0.3025
 4909W        W21757  13.979  15.779   4.181  0.0131 -0.3060  0.1658
 4910W        W21758   0.455   4.805   0.134 -0.2256  0.2420 -0.1144
 4911W        W21759   4.022  10.142  11.753  0.0097  0.0597 -0.3389
 4912W        W21760  11.956  12.561   0.237 -0.1140 -0.2672  0.0276
 4913W        W21761   9.550  11.972  14.347 -0.0696 -0.0435  0.1728
 4914W        W21762  13.720   9.962  12.665 -0.2651 -0.1053  0.1518
 4915W        W21763  13.605  10.183  14.715  0.1210  0.1150 -0.5367
 4916W        W21764   2.571   6.771  12.578 -0.1735  0.0411 -0.0634
 4917W        W21765   9.729   4.955  13.869 -0.0688 -0.0931  0.0292
 4918W        W21766  12.022   7.988   0.908 -0.0886  0.2033 -0.2250
 4919W        W21767  13.987   4.602   2.238 -0.0904  0.0233 -0.2368
 4920W        W21768  14.797  15.539  12.738  0.0100 -0.0079  0.2406
 4921W        W21769   3.535   4.567  16.126  0.0284  0.2138  0.0398
 4922W        W21770   5.230   9.174   3.911  0.2738  0.0582 -0.1045
 4923W        W21771   0.940  13.123  15.927 -0.0031  0.0796  0.2148
 4924W        W21772  11.858   1.983  15.866  0.0784 -0.1431 -0.0928
 4925W        W21773   5.210  11.419   1.613 -0.0124 -0.0794  0.1039
 4926W        W21774   1.113   5.211   3.455 -0.0874 -0.1543 -0.2379
 4927W        W21775  11.632   7.961  12.857 -0.0358 -0.0099  0.0152
 4928W        W21776   2.988  15.288   2.104 -0.2810 -0.2425  0.3964
 4929W        W21777   5.635   1.204  12.242 -0.2905 -0.2742 -0.0281
 4930W        W21778   1.436  11.419  12.463 -0.2307 -0.0066 -0.0428
 4931W        W21779   8.497   8.824  14.833 -0.1317  0.0827  0.0381
 4932W        W21780   2.665  16.705  16.402 -0.2634  0.0246  0.1049
 4933W        W21781  13.696  13.993  15.202 -0.0536 -0.0395 -0.1114
 4934W        W21782   9.692   6.579  12.014  0.0299  0.2968 -0.2507
 4935W        W21783  12.504   4.640  12.115  0.3035 -0.2241 -0.1196
 4936W        W21784   7.088  16.934  11.585  0.1599  0.0844 -0.1152
 4937W        W21785   7.879   7.722   1.656  0.2759  0.2134 -0.3282
 4938W        W21786  16.259  12.722   2.310 -0.0556  0.0715  0.1613
 4939W        W21787  16.951  12.302  13.716 -0.1881 -0.0907  0.1792
 4940W        W21788   8.664  14.596  14.895  0.0713 -0.0841  0.2310
 4941W        W21789   9.735   0.180   5.107 -0.1691 -0.3918 -0.0610
 4942W        W21790   1.151   1.807   2.446  0.4142 -0.0667 -0.0081
 4943W        W21791   7.446   0.976   0.458  0.1092 -0.1596  0.2498
 4944W        W21792   2.740   2.880  16.161 -0.0111 -0.1912 -0.0954
 4945W        W21793  12.635   7.076   1.961  0.0391 -0.0879 -0.3064
 4946W        W21794   6.812   3.806  13.449 -0.1619  0.0087 -0.2132
 4947W        W21795   3.743  14.169  14.249  0.2338  0.1574  0.0702
 4948W        W21796  17.271  16.629   4.118  0.1954 -0.0052  0.0792
 4949W        W21797   6.918   2.591   0.330 -0.0810 -0.0999 -0.0216
 4950W        W21798  10.720   4.633  12.944 -0.0572  0.0730 -0.2533
 4951W        W21799   1.990  10.445  14.497  0.4526  0.1524 -0.0498
 4952W        W21800  12.449  10.133   4.189 -0.1272  0.3356 -0.1551
 4953W        W21801   9.413   6.510  13.188 -0.0098 -0.2913  0.1594
 4954W        W21802   2.534   1.609   4.030  0.0889 -0.0561  0.2866
 4955W        W21803   6.680  12.138  14.141 -0.0990 -0.0175 -0.1482
 4956W        W21804  17.829  11.166  11.707  0.3588 -0.3710  0.1543
 4957W        W21805   0.395   4.179   2.989  0.0860 -0.2524  0.2312
 4958W        W21806  13.346   9.292  15.771 -0.1221  0.2060  0.1742
 4959W        W21807  11.304   1.510  12.530 -0.1665  0.2200  0.3098
 4960W        W21808   3.213  12.638  12.105 -0.0802  0.1946 -0.0011
 4961W        W21809   0.923   5.648   3.357  0.1865 -0.5220  0.4193
 4962W        W21810  14.088   9.267   0.486 -0.1884  0.3510  0.3809
 4963W        W21811   4.736   3.613   2.296  0.1407 -0.1757  0.0779
 4964W        W21812  17.417   1.129   2.434 -0.2548  0.0464 -0.0216
 4965W        W21813  10.092   1.013   3.943  0.3605  0.2224  0.0004
 4966W        W21814  13.979   4.247  14.798 -0.1550  0.2416  0.0115
 4967W        W21815  13.974  10.803  15.707  0.0837  0.1725 -0.2707
 4968W        W21816   2.039   3.237  15.344  0.2322 -0.1874  0.0055
 4969W        W21817   2.125   9.964  14.224 -0.0190 -0.0529  0.2083
 4970W        W21818  16.878   7.783   2.375  0.0446 -0.2292  0.0895
 4971W        W21819   0.086  14.031   4.134 -0.2821 -0.0445 -0.0892
 4972W        W21820  16.102  10.366  15.095  0.1301 -0.3121 -0.0246
 4973W        W21821  13.578   9.954   0.530 -0.2239 -0.0903  0.0705
 4974W        W21822  16.186   2.022  13.756 -0.0420 -0.0634 -0.0323
 4975W        W21823   7.925  13.796  16.167  0.0641  0.2225  0.0665
 4976W        W21824  15.999   6.853   3.196 -0.1510 -0.1635  0.0249
 4977W        W21825  15.723   1.595   4.680 -0.1179 -0.1554 -0.1010
 4978W        W21826  14.034  11.025  12.447 -0.0207  0.0347  0.1343
 4979W        W21827  11.279   6.277  14.754  0.1627  0.2397  0.0347
 4980W        W21828  17.470  13.279   1.128  0.0198 -0.1204 -0.0084
 4981W        W21829   4.834   5.633  11.630  0.0847 -0.2810  0.0960
 4982W        W21830   8.660   7.438  15.323 -0.2418 -0.0381  0.2337
 4983W        W21831   3.739   6.603  13.472 -0.1980  0.1707 -0.0820
 4984W        W21832   8.035   8.922  13.082  0.0337  0.0453  0.0065
 4985W        W21833  16.774   1.028  15.664  0.1589  0.1270  0.1100
 4986W        W21834   7.650   5.071   3.449 -0.0730 -0.4838  0.0460
 4987W        W21835   1.196  15.763   3.244 -0.1708  0.2580  0.4432
 4988W        W21836   6.764  10.699  12.290  0.1273 -0.1086 -0.1515
 4989W        W21837   9.972   4.851  10.529  0.4227 -0.0097 -0.1438
 4990W        W21838   5.648  11.066  10.591  0.0056  0.0688 -0.0262
 4991W        W21839   8.978  12.865   3.733 -0.4376  0.1195  0.0765
 4992W        W21840  14.185   1.995  11.557 -0.0304 -0.1724  0.1427
 4993W        W21841   0.957  11.121  11.600  0.1277  0.2508  0.2043
 4994W        W21842  13.201   2.972   3.342  0.1448  0.1391  0.0325
 4995W        W21843   9.246  17.792   3.447  0.1023  0.2898  0.1643
 4996W        W21844  13.192  13.297   5.107  0.1242 -0.1317 -0.1498
 4997W        W21845   3.024  13.016   3.524  0.0332  0.0258 -0.2281
 4998W        W21846  17.042   1.728  13.749 -0.2271  0.0444  0.0157
 4999W        W21847  13.124  11.448  14.896 -0.1984 -0.0768 -0.2685
 5000W        W21848   9.858   7.268  15.998  0.1702 -0.1855  0.0384
 5001W        W21849   4.337  16.133  11.803 -0.1519  0.0014 -0.3463
 5002W        W21850   8.508   1.647  16.354  0.0466 -0.2231  0.2302
 5003W        W21851  16.187   7.462   4.763 -0.0149  0.1214  0.0750
 5004W        W21852   5.297  10.232  13.076  0.0297 -0.1365 -0.0463
 5005W        W21853  13.339   2.947   2.377 -0.0983 -0.1036 -0.5712
 5006W        W21854  16.224  16.341   0.240 -0.0961 -0.0441 -0.1339
 5007W        W21855  13.847   3.711  16.415  0.0926  0.1338  0.3302
 5008W        W21856  11.979   7.452  11.628  0.2093 -0.1714 -0.1690
 5009W        W21857  11.167   6.792   5.067  0.0620  0.0207 -0.2822
 5010W        W21858  16.267  16.505   1.406  0.1190 -0.1493 -0.1068
 5011W        W21859  12.556  10.846   0.148  0.3840  0.1498 -0.2796
 5012W        W21860  14.425   9.976   2.914  0.2913  0.0497  0.0117
 5013W        W21861   0.957   8.414   2.054  0.0665 -0.0731  0.0719
 5014W        W21862   4.137   6.951   3.979 -0.3234 -0.2343 -0.3044
 5015W        W21863   5.232  11.223   3.097 -0.0603  0.1754  0.1138
 5016W        W21864  17.512  11.087   1.755  0.1201  0.1382 -0.0454
 5017W        W21865   5.365   4.927   3.283 -0.2660 -0.1227 -0.0430
 5018W        W21866   1.789   7.744   0.459  0.3825 -0.1959  0.1131
 5019W        W21867   5.482   1.053   0.861  0.0714  0.2043  0.0058
 5020W        W21868  16.259   6.355  13.651  0.5229  0.1862  0.0125
 5021W        W21869  15.066   9.376   0.971  0.3689  0.2963  0.0733
 5022W        W21870  11.899  12.102   1.125  0.2984  0.5934  0.0549
 5023W        W21871  12.244   3.295   0.564 -0.0976  0.0566  0.1946
 5024W        W21872   0.193   6.103  15.740 -0.0561  0.1256 -0.1372
 5025W        W21873  16.056  13.182  12.073 -0.0098 -0.3652  0.3007
 5026W        W21874   1.953   7.335  16.083  0.2831  0.2119 -0.0978
 5027W        W21875   6.932   5.514   0.459 -0.2153  0.0936  0.2343
 5028W        W21876   6.399  14.502  16.050  0.1110  0.2401  0.1027
 5029W        W21877   5.101   8.195   0.201  0.0171  0.0367 -0.2907
 5030W        W21878   9.255   9.549   4.480  0.0652  0.0910  0.0476
 5031W        W21879   0.373  12.518  14.482  0.1977  0.0809  0.2788
 5032W        W21880   7.113   3.677  15.813 -0.1210 -0.1565  0.0909
 5033W        W21881  10.481   7.777   0.554 -0.4196  0.0970  0.0314
 5034W        W21882  10.645   7.007   0.071  0.1900 -0.4069  0.2359
 5035W        W21883   2.325  17.144   0.092  0.3668 -0.2183 -0.3341
 5036W        W21884  10.280  13.713  11.893  0.0125  0.2153 -0.0405
 5037W        W21885  14.689   3.238  12.368  0.1040 -0.1215  0.0169
 5038W        W21886  15.233   4.674  14.753  0.1057  0.2094  0.1424
 5039W        W21887  13.047  16.351  10.294  0.0973  0.0319 -0.1590
 5040W        W21888  14.435   8.086   1.987  0.0192 -0.0219 -0.0100
 5041W        W21889  17.629   1.669  13.378  0.0636  0.4800  0.0422
 5042W        W21890  11.989   2.171  15.054  0.3126  0.0008 -0.0455
 5043W        W21891   4.269  16.360  15.874 -0.2935  0.1457  0.0531
 5044W        W21892   6.733   7.204   4.057 -0.1773 -0.0351  0.0419
 5045W        W21893  10.786   9.722   3.023  0.0935  0.0464  0.1711
 5046W        W21894   1.101   8.054   0.366 -0.1620  0.0941 -0.0276
 5047W        W21895  10.385   0.703  14.046  0.2263  0.1595 -0.2914
 5048W        W21896   5.117  14.921   1.850  0.0358  0.2514 -0.1576
 5049W        W21897   8.393   7.216  11.529 -0.4802  0.3748  0.2155
 5050W        W21898  11.940  15.954   2.864 -0.4364  0.1751  0.1333
 5051W        W21899  13.736   2.177  11.714 -0.1220 -0.3052  0.0597
 5052W        W21900  15.013  11.281   4.787  0.1694  0.1350  0.1421
 5053W        W21901   6.725  11.710   4.411  0.0849 -0.3761  0.3011
 5054W        W21902   1.699  12.541   0.822  0.1190  0.3044  0.0994
 5055W        W21903  16.743  12.750  15.267 -0.0269  0.2405  0.0236
 5056W        W21904  12.313   9.943   2.913 -0.0325  0.1302  0.0850
 5057W        W21905  10.480   0.602   1.826 -0.0209  0.3993 -0.2166
 5058W        W21906   1.155  17.459   3.860 -0.1651 -0.2004 -0.0494
 5059W        W21907  13.858  10.620   4.514  0.3587 -0.0972  0.0967
 5060W        W21908  14.394  11.273   4.192 -0.1209  0.3246  0.1401
 5061W        W21909   7.276  13.356  15.689  0.1494  0.1396  0.1165
 5062W        W21910  15.456  10.409  11.100 -0.0357  0.0067 -0.2784
 5063W        W21911  11.880   5.810  13.254  0.0701  0.0887  0.0828
 5064W        W21912   1.267   7.218   1.429  0.0845 -0.0623 -0.0976
 5065W        W21913  11.359   3.465   1.393 -0.0195 -0.1488 -0.2325
 5066W        W21914   3.082   8.936  15.537  0.1468  0.2685  0.3692
 5067W        W21915  15.632   7.268   0.067  0.1985 -0.0515  0.1553
 5068W        W21916  13.014  11.962   0.896  0.0579  0.2107 -0.0866
 5069W        W21917   3.740   3.040  15.325  0.3197 -0.0270 -0.0052
 5070W        W21918   9.530  11.760   2.659  0.2531  0.2398  0.0855
 5071W        W21919   2.646  10.844   5.748 -0.2649  0.0437  0.1588
 5072W        W21920  14.434   7.586   3.410  0.1034  0.1276 -0.0447
 5073W        W21921  17.593   3.619   4.753 -0.1124 -0.3036 -0.3474
 5074W        W21922  14.931  14.678   1.469  0.0359 -0.1721  0.0521
 5075W        W21923   0.102  11.326  16.384 -0.0639  0.2325  0.3289
 5076W        W21924   9.466  17.117   4.849 -0.1366 -0.4620 -0.0118
 5077W        W21925   7.048  12.012   0.430  0.1021  0.0091  0.1799
 5078W        W21926   3.936   9.389   1.227  0.0416  0.0255 -0.2613
 5079W        W21927   9.292  17.179  12.662  0.1276 -0.1664 -0.0247
 5080W        W21928   7.494  14.499  12.446  0.0048  0.1374 -0.0559
 5081W        W21929   9.052   6.623   5.146 -0.2265 -0.1167  0.0843
 5082W        W21930   4.923  16.191   2.105  0.0258 -0.0835 -0.1508
 5083W        W21931  15.032   1.051  15.530 -0.0326 -0.0396  0.1754
 5084W        W21932   3.924  16.938   1.906  0.3158 -0.1934 -0.1475
 5085W        W21933  16.823  14.341   1.132  0.4538 -0.0970 -0.0908
 5086W        W21934  16.313  13.696   0.704  0.0880 -0.3257  0.1615
 5087W        W21935   1.593   9.884  12.470 -0.0207  0.0203  0.0430
 5088W        W21936   7.065   7.050   5.657  0.1434 -0.1065 -0.2835
 5089W        W21937   4.146  15.515  12.842  0.0118  0.0631  0.0451
 5090W        W21938   0.673   5.768  14.785 -0.1959  0.4901 -0.1754
 5091W        W21939   3.269  16.108  15.590 -0.1161 -0.0052 -0.2083
 5092W        W21940   9.748   2.886  13.144 -0.1416  0.1693  0.0022
 5093W        W21941   6.409   8.560  12.164 -0.0441 -0.2823  0.0431
 5094W        W21942  11.991   5.837   2.713 -0.2023 -0.1972 -0.0360
 5095W        W21943   8.532   3.454  13.047  0.0589 -0.0692 -0.1513
 5096W        W21944   6.424   0.777   4.379 -0.1831  0.0252 -0.0555
 5097W        W21945   3.302   5.654   3.639  0.0125  0.1470  0.0914
 5098W        W21946  11.697  13.671   1.900 -0.0336  0.2334 -0.1697
 5099W        W21947   1.101  16.898  11.597  0.0483  0.0332  0.0781
 5100W        W21948   7.205   1.856   0.474  0.2478 -0.1317 -0.1487
 5101W        W21949  14.377   0.796  12.380  0.1767  0.1655  0.0809
 5102W        W21950   9.048  16.062  15.167 -0.4037  0.0515  0.1081
 5103W        W21951   9.554   8.830  13.753  0.0532  0.1804  0.2176
 5104W        W21952   6.780  10.549   1.347 -0.2424  0.0397  0.0618
 5105W        W21953  13.938  15.809  15.124 -0.0651  0.0056  0.1022
 5106W        W21954  17.777   3.496   4.283  0.0091 -0.0964  0.1073
 5107W        W21955  11.257  16.155  15.866  0.0583 -0.0185  0.0424
 5108W        W21956   9.959  11.596  14.301  0.2899 -0.1841  0.3378
 5109W        W21957   2.696   5.688  10.818 -0.1418 -0.0866  0.0825
 5110W        W21958   1.564   3.237   2.955  0.0839 -0.2420 -0.4131
 5111W        W21959  11.773  15.978  12.216 -0.3871  0.0489  0.0806
 5112W        W21960  11.949   6.947   3.814  0.3561  0.3215 -0.1496
 5113W        W21961   1.727  12.491  11.577 -0.1578  0.0873  0.1508
 5114W        W21962  13.652   1.228   1.926 -0.1231 -0.1755  0.0483
 5115W        W21963  15.116  14.237  13.284  0.1354 -0.1570 -0.1249
 5116W        W21964   9.211   8.814   3.340 -0.0031  0.0688  0.0894
 5117W        W21965  17.163  15.842  13.872 -0.1852  0.1027  0.3590
 5118W        W21966  14.314   3.372  15.209  0.1702  0.0735 -0.0469
 5119W        W21967  16.284   0.668   0.920 -0.0186  0.0846  0.1827
 5120W        W21968   0.364   2.920   1.915 -0.0160  0.0053  0.0178
 5121W        W21969   6.490   3.059  16.393  0.0339  0.0714  0.0719
 5122W        W21970  16.664  12.898   0.107  0.3091 -0.0158 -0.2926
 5123W        W21971  14.448   2.181  11.943 -0.1765 -0.0819  0.2068
 5124W        W21972   5.165   4.819   2.210 -0.0325  0.1849  0.0382
 5125W        W21973   3.445  17.806   1.541 -0.1428  0.0827 -0.0446
 5126W        W21974   9.307   2.646   0.781  0.3062  0.0077 -0.0645
 5127W        W21975   6.941   9.485   2.266  0.3477  0.0366  0.2455
 5128W        W21976   8.420   6.745  15.800 -0.1445 -0.0384  0.1107
 5129W        W21977   2.664   0.742   0.030  0.0835  0.2588 -0.0250
 5130W        W21978  11.897  15.440   4.558 -0.2624  0.1283 -0.1763
 5131W        W21979  10.043   2.927   6.325 -0.1276  0.2039 -0.0276
 5132W        W21980  16.454   9.261   3.345  0.0757 -0.0866  0.0844
 5133W        W21981   5.656   6.362  13.682  0.4594  0.0568 -0.1776
 5134W        W21982   8.038   5.715  13.129  0.1709 -0.1449  0.0926
 5135W        W21983  16.510   6.187  13.277  0.0701 -0.1708 -0.3144
 5136W        W21984  12.444   6.914  16.279  0.2418 -0.0297  0.1696
 5137W        W21985  13.579  11.105  12.675 -0.2670  0.1098 -0.1920
 5138W        W21986   4.557   5.555  11.198  0.0852  0.1368  0.0587
 5139W        W21987  11.700  15.414  14.390 -0.2909 -0.1761  0.0950
 5140W        W21988   5.172  15.336   2.279 -0.1897 -0.2005 -0.3821
 5141W        W21989   9.552   8.647   3.704  0.1884  0.0606  0.0464
 5142W        W21990  14.217  10.883   2.843  0.3193  0.2028  0.0960
 5143W        W21991   1.010  10.788  12.521  0.3598  0.0809  0.0500
 5144W        W21992  10.840   0.855   2.571  0.3823 -0.0818  0.2875
 5145W        W21993   3.413   3.081   4.220  0.0528  0.5573 -0.3631
 5146W        W21994   4.980  12.669  11.870  0.2416 -0.0685  0.0278
 5147W        W21995   4.670  14.615   1.028 -0.0119  0.2232 -0.1845
 5148W        W21996   8.348  10.538  14.772  0.1960  0.0620  0.0294
 5149W        W21997   4.915  12.957  11.436 -0.2249  0.1446  0.0978
 5150W        W21998   1.337  10.166   0.267 -0.1236  0.2820 -0.1700
 5151W        W21999  11.386   7.429  15.767  0.2223 -0.2416 -0.0680
 5152W        W22000  12.940   0.333  15.056 -0.0157  0.3741 -0.0698
 5153W        W22001  16.556   9.242   1.127  0.2662  0.0785 -0.0316
 5154W        W22002   6.221  13.847  15.520 -0.0401  0.3641 -0.0648
 5155W        W22003   1.613   5.040  12.737 -0.0042  0.0999 -0.0493
 5156W        W22004   0.514  14.033   1.459  0.0549 -0.0176  0.1099
 5157W        W22005   0.798  17.190   3.049 -0.0788  0.1983  0.2934
 5158W        W22006  10.511  12.084   3.855 -0.2090  0.0277  0.2986
 5159W        W22007  16.851  17.054  13.281  0.1077 -0.4218  0.1492
 5160W        W22008  15.816  12.689  16.231  0.0111  0.1763  0.2215
 5161W        W22009   4.294   2.856   1.246 -0.1271  0.2358 -0.0391
 5162W        W22010   9.834  12.741   3.635 -0.3529 -0.0483  0.1903
 5163W        W22011  12.133  11.282  16.362 -0.2824  0.2310  0.0050
 5164W        W22012   2.622  13.457  11.947  0.2894  0.0696 -0.0470
 5165W        W22013   4.167   5.477   3.645  0.0085  0.2111 -0.3403
 5166W        W22014   1.984  15.624   0.709  0.0817 -0.1260  0.0823
 5167W        W22015  17.266  17.726  11.695  0.0306 -0.1447 -0.0264
 5168W        W22016   0.564   5.698  15.462 -0.0874 -0.0285 -0.0495
 5169W        W22017   0.417  11.205   2.814  0.1019  0.0454 -0.1003
 5170W        W22018   7.520   3.639  14.217  0.0864  0.0723  0.0827
 5171W        W22019   2.669   4.241   4.422  0.0838 -0.0546 -0.0515
 5172W        W22020   0.073   1.296   5.113  0.0030  0.0889  0.1784
 5173W        W22021  13.420   5.379  12.619 -0.0380 -0.0874 -0.2515
 5174W        W22022  13.342  15.596  12.530  0.1261 -0.0695  0.1195
 5175W        W22023  15.587   7.141   5.486 -0.0393 -0.2436 -0.0753
 5176W        W22024  16.786  10.157  12.352 -0.2419 -0.2036  0.4401
 5177W        W22025   9.405   5.727  12.891 -0.1267  0.0809  0.1073
 5178W        W22026  12.960  16.767  14.751  0.1451  0.1783  0.1178
 5179W        W22027   0.396   1.832  13.920  0.3186  0.0716  0.0861
 5180W        W22028   1.188   2.729  15.705 -0.0499  0.0721 -0.0378
 5181W        W22029  13.794   9.408   1.433 -0.1917 -0.1901 -0.0800
 5182W        W22030  14.111   3.470  12.016  0.1246 -0.1053  0.1787
 5183W        W22031   0.912  14.938  12.338 -0.0186 -0.2361 -0.3748
 5184W        W22032  10.893  15.295   0.807 -0.0510  0.0977  0.1501
 5185W        W22033   5.306  13.878   0.264  0.0094 -0.0406  0.0599
 5186W        W22034   8.064   3.432   2.071  0.0165 -0.1084 -0.2931
 5187W        W22035   9.635  17.034   2.422  0.0937 -0.2755  0.1476
 5188W        W22036   0.270   6.636   2.191 -0.4981 -0.2210 -0.3559
 5189W        W22037   8.651  15.079  15.258 -0.2166  0.1119  0.1388
 5190W        W22038   6.363  16.250   3.677 -0.1096 -0.1633  0.1033
 5191W        W22039  14.116   2.116   1.873  0.2228 -0.1644 -0.0336
 5192W        W22040   6.816  13.456  14.807  0.3223 -0.1232 -0.0130
 5193W        W22041  15.707  11.238  12.312 -0.1361 -0.0756  0.0248
 5194W        W22042   8.695  15.159   3.496 -0.1729 -0.0970  0.0686
 5195W        W22043  11.337   0.197  15.803 -0.1792 -0.1505 -0.0456
 5196W        W22044  15.450  13.562  12.817  0.1841  0.0910 -0.1866
 5197W        W22045  17.604   4.801  15.105  0.2334 -0.1146 -0.0392
 5198W        W22046  14.582  14.591  12.829  0.2781  0.0455  0.0293
 5199W        W22047   9.845  16.511  15.739  0.1072  0.2941  0.0660
 5200W        W22048  16.963   6.909  12.792 -0.0057  0.0396  0.0596
 5201W        W22049   7.003  13.922  15.078  0.2118 -0.0382 -0.1052
 5202W        W22050   5.699   3.542  12.615 -0.0986  0.1945 -0.0509
 5203W        W22051   3.689  16.476   2.046 -0.0646 -0.1834 -0.2132
 5204W        W22052   6.405   8.663   2.682 -0.1573 -0.0784 -0.1426
 5205W        W22053   5.600  13.445  14.796 -0.1869  0.1085 -0.2713
 5206W        W22054  14.224   9.683   3.871  0.0390  0.1178  0.2001
 5207W        W22055  17.293   4.249  11.310  0.0603  0.1730 -0.2509
 5208W        W22056   8.644   5.798  13.721  0.3504 -0.3925 -0.0789
 5209W        W22057   1.666  17.616   1.496 -0.0612 -0.0361  0.3416
 5210W        W22058   8.927  13.334   5.535  0.0486  0.1998 -0.2861
 5211W        W22059   1.925  16.445  11.868  0.1355  0.3960 -0.0620
 5212W        W22060  10.988   7.012   0.969  0.0226 -0.1789 -0.2236
 5213W        W22061  14.922   9.103  13.489 -0.1757 -0.2283 -0.1917
 5214W        W22062  11.333   6.939  12.881 -0.2222 -0.3443  0.1318
 5215W        W22063   8.762   2.356  13.823  0.0517  0.0120 -0.0352
 5216W        W22064  14.801  12.461   3.682 -0.2154 -0.1551 -0.0999
 5217W        W22065   3.846   5.383   1.547 -0.2316  0.2282 -0.0691
 5218W        W22066   6.608   6.194   3.067  0.2726  0.1755  0.1786
 5219W        W22067   3.099  11.588   5.464  0.3009 -0.0919  0.1586
 5220W        W22068   9.519  17.531   1.224  0.1114 -0.2228  0.1143
 5221W        W22069   1.878   0.002  14.624 -0.2300 -0.1019  0.1883
 5222W        W22070  11.662  14.646   4.924 -0.1544  0.1553  0.1263
 5223W        W22071   9.363   5.136   4.533  0.1148  0.1960  0.2683
 5224W        W22072  15.092   7.233  16.384  0.1038  0.0216 -0.0311
 5225W        W22073  16.587  15.239  12.697  0.0024  0.0134 -0.1529
 5226W        W22074   2.322  16.257  16.429 -0.2543 -0.0125  0.1194
 5227W        W22075  11.906  17.629  15.714  0.0000 -0.1812 -0.1143
 5228W        W22076  16.897  15.057  12.325 -0.1393  0.0947  0.3084
 5229W        W22077  17.843  12.024   2.707 -0.0978 -0.0589  0.2210
 5230W        W22078   3.463   0.132   3.964  0.1160  0.1104 -0.0540
 5231W        W22079   0.367   1.672   3.056  0.0889 -0.0249  0.1280
 5232W        W22080   5.551   9.683   2.343 -0.1560  0.0859  0.0458
 5233W        W22081  10.795  11.617  13.951  0.0414 -0.1216 -0.0620
 5234W        W22082  10.016   8.743   4.429 -0.3511  0.2398  0.4965
 5235W        W22083  15.040   8.899   1.545  0.4731  0.3688 -0.1532
 5236W        W22084  13.523  14.689   4.896 -0.2162  0.1434  0.0336
 5237W        W22085   5.516   3.786   5.254 -0.1208 -0.0525 -0.0673
 5238W        W22086   3.058   7.874   6.020  0.0831  0.0735  0.1023
 5239W        W22087  10.509   1.877   1.343  0.3813  0.1338 -0.3440
 5240W        W22088   7.559  13.533   2.524 -0.0922  0.1868  0.4071
 5241W        W22089  12.038   4.518  14.409  0.1523  0.0237  0.2945
 5242W        W22090   4.912   2.377  12.026 -0.2471  0.1997  0.3958
 5243W        W22091   7.156   1.277  11.864  0.1283  0.0232 -0.1773
 5244W        W22092  15.665  11.997   0.016 -0.1078  0.2412  0.1845
 5245W        W22093  17.784   3.882  12.571  0.1764  0.2105  0.0427
 5246W        W22094   9.143   6.673  12.810 -0.1289  0.3173 -0.0918
 5247W        W22095  14.809   8.058   3.247 -0.0156  0.1366 -0.2663
 5248W        W22096   8.519   8.239  13.190 -0.0956  0.2794 -0.0327
 5249W        W22097   8.348  10.559  13.041 -0.0108  0.3409 -0.0389
 5250W        W22098   3.480   3.927   0.608  0.1623  0.1341  0.2095
 5251W        W22099   1.498   6.820   4.792  0.0811 -0.1055  0.2371
 5252W        W22100  16.024   1.165   0.900  0.0203 -0.0865 -0.1111
 5253W        W22101  15.914   0.304  13.954  0.1573  0.1014 -0.2502
 5254W        W22102  16.661   4.938  11.951  0.2260 -0.0223  0.0649
 5255W        W22103   4.345  16.545  13.249 -0.2690  0.0296 -0.2529
 5256W        W22104   4.631  11.857  16.225 -0.0217  0.1113 -0.2395
 5257W        W22105  10.145  17.877   2.159 -0.3111 -0.1362 -0.1479
 5258W        W22106   8.553  17.031   4.080  0.2373 -0.2220 -0.0457
 5259W        W22107   6.879   0.097   0.120  0.0887  0.1128  0.0579
 5260W        W22108   7.887   0.759   4.006 -0.0463 -0.0267  0.0255
 5261W        W22109   6.378   1.255   6.051  0.5544  0.0147 -0.0577
 5262W        W22110   3.979  10.483   3.080 -0.0673 -0.0629  0.1155
 5263W        W22111  12.108   5.473   0.611  0.1972 -0.0487  0.2106
 5264W        W22112  14.511  15.973  14.036 -0.0482 -0.0138 -0.1123
 5265W        W22113  11.628   1.829   5.073  0.0902 -0.0374 -0.0034
 5266W        W22114  13.596  17.414   0.871 -0.2293  0.1530  0.0974
 5267W        W22115   4.419  13.348   1.146  0.0193 -0.1332 -0.2342
 5268W        W22116  10.358   4.716   0.682 -0.1823  0.1487  0.3036
 5269W        W22117  10.138  16.893  15.609  0.1176  0.2029  0.1819
 5270W        W22118  10.066  10.562   3.687 -0.3174  0.0419 -0.1299
 5271W        W22119   2.569  17.352   4.874 -0.1499 -0.0330 -0.0262
 5272W        W22120  16.055   0.244  14.456  0.1068 -0.2037 -0.0040
 5273W        W22121   9.698  13.554   0.180  0.3252 -0.1290  0.0403
 5274W        W22122   3.521   0.802   5.306 -0.0383  0.0502  0.1261
 5275W        W22123  16.752  15.040   4.360 -0.1198 -0.1653  0.0892
 5276W        W22124   0.783  13.268  11.778  0.1202 -0.0216 -0.0092
 5277W        W22125   6.819   0.394   4.456  0.0311  0.1146 -0.2266
 5278W        W22126   2.590   7.810   3.410  0.2426  0.3057  0.3308
 5279W        W22127  17.236  17.391  13.221  0.3259 -0.4654 -0.0378
 5280W        W22128  11.428  13.067  11.841  0.2790  0.0768  0.0097
 5281W        W22129  12.176   2.569  11.751 -0.0301  0.1336 -0.1554
 5282W        W22130   7.910   1.525   1.009  0.2338 -0.1524 -0.3106
 5283W        W22131  15.661   1.040   4.226 -0.3336  0.3703  0.0864
 5284W        W22132   6.042   1.216   2.734  0.5776 -0.1096 -0.0896
 5285W        W22133  14.897   8.134   4.275 -0.2008 -0.1638 -0.1993
 5286W        W22134  10.055   0.988  12.660 -0.2185  0.1596 -0.2100
 5287W        W22135  11.745   8.224  13.911  0.0793  0.0184 -0.0591
 5288W        W22136   0.441  14.352  15.742 -0.2649  0.2507  0.4495
 5289W        W22137   3.304   0.483  12.151  0.3602  0.2612  0.0402
 5290W        W22138  16.728  17.583   4.122 -0.0370 -0.1021  0.1171
 5291W        W22139  10.072   0.092  10.990 -0.1637 -0.2544  0.0419
 5292W        W22140  14.772  16.781   0.302 -0.3057 -0.1739  0.0054
 5293W        W22141   1.640  16.249  14.102  0.1183 -0.0415 -0.0202
 5294W        W22142   2.358   3.009   2.469  0.0279 -0.0999 -0.2073
 5295W        W22143   3.509   0.425   0.831 -0.0997  0.1041  0.0641
 5296W        W22144   7.555   1.820  13.669  0.0607 -0.1396  0.1300
 5297W        W22145   3.916   4.531  12.745 -0.2106  0.1878 -0.1548
 5298W        W22146   1.701   3.959   4.768  0.0940 -0.0515  0.2620
 5299W        W22147   3.927   7.570  15.079  0.0787 -0.0797 -0.1121
 5300W        W22148   3.277   5.410   3.161 -0.1296 -0.1807  0.1750
 5301W        W22149  12.570   4.985   3.540  0.1139 -0.0047  0.0152
 5302W        W22150   2.214  11.576  11.653  0.1828 -0.1959  0.0317
 5303W        W22151  15.554   3.037  16.248  0.2135  0.0079  0.2441
 5304W        W22152   8.921   5.649  14.091  0.0169 -0.0178 -0.0017
 5305W        W22153   5.637   4.277   5.034  0.2095  0.2097 -0.1358
 5306W        W22154   6.262   1.381   4.965 -0.0333  0.0794 -0.0819
 5307W        W22155   4.062  17.366   0.315  0.1133  0.0104  0.2656
 5308W        W22156  16.543   0.101   1.956 -0.0970 -0.1642 -0.3230
 5309W        W22157   1.404   1.183   0.877 -0.0508 -0.0693 -0.0044
 5310W        W22158   7.597  13.587   6.472 -0.2719  0.0200 -0.0526
 5311W        W22159   6.228  12.081   3.624  0.2027  0.1294  0.2000
 5312W        W22160  10.341   5.427   2.623 -0.0885  0.2788 -0.0577
 5313W        W22161  16.570  16.992   5.135  0.2084 -0.3529 -0.1463
 5314W        W22162   2.052   1.441   6.251 -0.1421 -0.0505 -0.2070
 5315W        W22163   7.747   9.101   4.138 -0.1903  0.3904  0.0533
 5316W        W22164  10.215  16.999   2.509  0.1386 -0.0617 -0.1313
 5317W        W22165  16.770   9.317   2.367  0.3376 -0.2514 -0.0396
 5318W        W22166  11.454  12.867  12.325 -0.0810 -0.0862  0.0521
 5319W        W22167   1.843  13.975   2.036 -0.0731  0.3550  0.0632
 5320W        W22168  16.224   1.487  16.287 -0.0515 -0.0425  0.3493
 5321W        W22169   7.735  12.634   4.465 -0.0520  0.2818 -0.1189
 5322W        W22170   0.707   5.640   1.316 -0.0195 -0.2189 -0.3602
 5323W        W22171  14.408   0.491   4.674  0.0848  0.0058 -0.2742
 5324W        W22172  17.866   4.022   5.605 -0.1143 -0.1215  0.0122
 5325W        W22173   4.026  10.032  15.090 -0.1750  0.0455 -0.1919
 5326W        W22174   8.844  16.687  11.785 -0.1385  0.0604 -0.1313
 5327W        W22175  16.485   2.174  15.222  0.2199 -0.0065  0.3277
 5328W        W22176  15.607   1.308   3.646  0.2278  0.2320  0.3923
 5329W        W22177   7.110  11.734  14.310  0.0382  0.2597 -0.2844
 5330W        W22178  17.192   2.498  12.777 -0.0398 -0.1650 -0.6359
 5331W        W22179   0.177  12.025  11.610  0.2243  0.0046 -0.0245
 5332W        W22180  13.132   4.142   1.511  0.0314  0.1268  0.0027
 5333W        W22181  11.233  13.683  12.257  0.0692 -0.1546  0.2670
 5334W        W22182   9.100   8.614   3.946  0.2764 -0.1056 -0.2551
 5335W        W22183   0.024  14.532   2.494  0.1031  0.3970  0.0672
 5336W        W22184   8.824   4.836  13.509 -0.0545 -0.1394  0.1698
 5337W        W22185  16.340   7.182  16.040 -0.0439  0.1523  0.0890
 5338W        W22186   2.123   1.350  13.165  0.1471 -0.1477 -0.3172
 5339W        W22187  13.134   2.599  13.620  0.0339 -0.2449  0.0122
 5340W        W22188   9.824  16.879  14.165 -0.2155 -0.2215  0.0774
 5341W        W22189  15.234  15.395   0.660  0.0657  0.1380  0.0854
 5342W        W22190  10.594  17.152   3.785 -0.0644 -0.1523  0.1891
 5343W        W22191   6.373   8.388  16.188  0.1923 -0.1028 -0.1087
 5344W        W22192  13.000   4.365  11.149  0.1217  0.2490 -0.0888
 5345W        W22193   8.557  15.241   1.204  0.0292  0.0074  0.0392
 5346W        W22194   0.471  10.329   4.866  0.0298 -0.2061 -0.2444
 5347W        W22195  13.379  12.252  13.836 -0.0156 -0.0142 -0.2651
 5348W        W22196   6.954   6.024   4.540  0.0099  0.2398  0.3064
 5349W        W22197   0.525  15.793   2.909  0.0615  0.0449 -0.4288
 5350W        W22198   5.020  16.519   4.743 -0.0443  0.3638 -0.2954
 5351W        W22199   2.749   5.527   3.204 -0.1593  0.1554  0.0375
 5352W        W22200  12.689   8.342   2.726 -0.1037  0.0888  0.0706
 5353W        W22201  10.163  17.167   0.844 -0.3302 -0.0310  0.0694
 5354W        W22202  12.081  16.342  12.316 -0.0417  0.0739  0.0512
 5355W        W22203   1.262  17.171  12.412  0.0612 -0.2508 -0.1567
 5356W        W22204  16.962  10.948  12.714  0.2296  0.0359 -0.1025
 5357W        W22205  14.012  14.996   4.095  0.2190 -0.2463 -0.3012
 5358W        W22206  10.039  17.576  12.318 -0.1358 -0.1701 -0.0130
 5359W        W22207  12.211   9.682   1.608 -0.2896  0.1642  0.1669
 5360W        W22208  15.228   4.720   4.101  0.3351 -0.0085 -0.0759
 5361W        W22209   7.687  14.640  13.689 -0.1146  0.0954 -0.1629
 5362W        W22210   3.991  11.155  12.784  0.0266  0.0341 -0.2140
 5363W        W22211  12.447   4.298  11.281  0.0126  0.2777  0.1556
 5364W        W22212  17.609  11.785  13.977  0.1362  0.2723  0.0065
 5365W        W22213  11.310   4.047   0.289 -0.2866 -0.0389 -0.1837
 5366W        W22214  11.706   5.994   3.824 -0.2800  0.1504 -0.1593
 5367W        W22215  10.579  16.319  14.079 -0.0201 -0.3630 -0.0696
 5368W        W22216   4.248  14.574  15.949 -0.1522  0.2029 -0.0281
 5369W        W22217  10.578   8.435  15.434  0.0477  0.2163 -0.0457
 5370W        W22218   5.924   4.797   0.039 -0.0905 -0.0630  0.2935
 5371W        W22219   1.546  17.030   2.635 -0.0455 -0.0747 -0.0850
 5372W        W22220  12.601   1.912   5.235 -0.0251  0.0548  0.0215
 5373W        W22221  12.161   1.955   3.812  0.0308  0.2984  0.2920
 5374W        W22222   0.395   6.696   4.086 -0.0763  0.2095 -0.1243
 5375W        W22223   6.615   8.336  12.583  0.0025  0.0117  0.3211
 5376W        W22224  17.096   5.731  14.582  0.1310 -0.6295 -0.0913
 5377W        W22225   4.749   7.773   1.634 -0.2630  0.3977  0.1216
 5378W        W22226   2.390   4.481   0.909 -0.1296 -0.1261  0.3748
 5379W        W22227   5.919   7.932   3.172  0.1721  0.0708  0.1107
 5380W        W22228   7.696   9.752  16.285 -0.0204 -0.2339 -0.1670
 5381W        W22229  13.526   3.262   3.573 -0.0871  0.2709 -0.1081
 5382W        W22230  16.972  13.054   4.145  0.1835  0.1559  0.0046
 5383W        W22231  14.400  15.504  14.933  0.1183  0.0789 -0.0974
 5384W        W22232  17.667  17.251  14.700 -0.0357  0.1801  0.0673
 5385W        W22233   7.808  16.843   0.826 -0.1798 -0.2755 -0.0680
 5386W        W22234   9.605  17.289   4.131  0.0956  0.0696  0.0827
 5387W        W22235   0.788   5.079   3.762  0.0220  0.3378  0.0013
 5388W        W22236   7.869   4.089  14.310  0.1989  0.0402 -0.2145
 5389W        W22237   7.443  14.445   5.158 -0.0105  0.2738 -0.4194
 5390W        W22238   1.613   1.636   3.557 -0.0774  0.1022  0.2104
 5391W        W22239   8.234  12.505   2.012 -0.0857  0.1633  0.1459
 5392W        W22240   0.805   6.818  14.617  0.2575 -0.0009  0.1389
 5393W        W22241  16.518  16.917   1.093 -0.0298  0.1861 -0.0533
 5394W        W22242  11.564  14.979   4.459 -0.0251  0.0621 -0.0216
 5395W        W22243  17.859  13.085   0.878 -0.2424 -0.2099  0.3030
 5396W        W22244   1.217  11.405   0.380  0.4467 -0.0444 -0.0248
 5397W        W22245   0.821   1.435  15.335  0.1147 -0.1973 -0.1151
 5398W        W22246  17.596  11.070  13.869  0.0639  0.0558  0.0256
 5399W        W22247  17.567   3.029   1.661 -0.0614 -0.0614 -0.1982
 5400W        W22248  15.441   7.446  12.818  0.1379 -0.1497 -0.0446
 5401W        W22249  15.845   2.818   4.505  0.0357  0.0819 -0.1795
 5402W        W22250  11.018   3.308   3.934 -0.0911 -0.2093  0.0904
 5403W        W22251   8.310  12.534  11.552 -0.1314 -0.0927  0.0264
 5404W        W22252  13.160  13.029  13.313  0.1775  0.0274 -0.1130
 5405W        W22253   9.360   0.283   0.243  0.0851 -0.1071  0.0641
 5406W        W22254  13.993  13.810  11.663  0.2514 -0.3000  0.2514
 5407W        W22255  16.687  17.416   5.372 -0.0676  0.2618 -0.1036
 5408W        W22256  16.382   7.413  12.271  0.1391 -0.0260  0.2281
 5409W        W22257   1.785  17.196  13.963  0.2249 -0.0335  0.0562
 5410W        W22258  10.161  17.518   1.779  0.1646 -0.2905  0.0038
 5411W        W22259  16.111  17.177   0.689 -0.3197  0.3479 -0.0856
 5412W        W22260   0.189   1.122  11.860 -0.2451 -0.0195  0.1740
 5413W        W22261  17.323   9.013  16.013 -0.0939  0.0903  0.1453
 5414W        W22262  17.721   5.822  14.259  0.0095 -0.0242  0.1298
 5415W        W22263   9.625   5.993  11.962  0.0352 -0.0979 -0.0099
 5416W        W22264   5.488  17.243  11.822 -0.1813  0.0709 -0.1456
 5417W        W22265   5.946   3.636   5.224 -0.0676 -0.1173  0.3858
 5418W        W22266   1.903  14.440   2.877  0.0484  0.2684 -0.1299
 5419W        W22267   6.560  16.184  11.472 -0.1872  0.0837  0.1631
 5420W        W22268  11.318   3.321  15.585 -0.2074 -0.1442  0.4688
 5421W        W22269  10.396   1.298  15.781 -0.0880  0.2668 -0.2528
 5422W        W22270  17.251  12.345   0.436  0.1604 -0.0271  0.0093
 5423W        W22271   2.942  13.156   1.900 -0.1331  0.0115  0.0703
 5424W        W22272   0.239   1.629  11.728 -0.0713  0.1152 -0.0105
 5425W        W22273   6.950  14.919  15.608 -0.0869  0.0178 -0.2853
 5426W        W22274  13.696   4.450  15.135  0.4504 -0.2291  0.2019
 5427W        W22275   5.695   8.128  15.418  0.2836 -0.0667  0.2146
 5428W        W22276   6.167   4.561   0.465 -0.3814 -0.2749 -0.2414
 5429W        W22277   6.218  13.011   3.330  0.1499  0.2856 -0.2142
 5430W        W22278  15.541   0.589   4.481  0.2731  0.2283  0.0726
 5431W        W22279   0.345   4.921  14.243 -0.1049 -0.1617  0.2479
 5432W        W22280   3.128  15.360   4.038 -0.2105 -0.0719 -0.1038
 5433W        W22281   3.677  14.986   4.802 -0.3131 -0.0306  0.0549
 5434W        W22282  15.303   7.444   3.193 -0.0107 -0.1646  0.0978
 5435W        W22283   9.152  13.172  16.186 -0.5378  0.2286  0.1143
 5436W        W22284   2.615   5.582  15.215  0.2595 -0.0298 -0.2771
 5437W        W22285   2.874   7.265   4.454  0.0848 -0.2540  0.0272
 5438W        W22286  10.615   6.642   2.035 -0.1647  0.0266  0.0236
 5439W        W22287   2.996   1.946  12.125  0.0136 -0.2617  0.1004
 5440W        W22288   9.447  11.922   4.775 -0.0109 -0.0034  0.3135
 5441W        W22289   9.707  16.342  11.640 -0.2778 -0.0786  0.0992
 5442W        W22290   2.851  14.484  11.501  0.0043  0.2214 -0.0089
 5443W        W22291  14.008   3.322   0.773 -0.0726 -0.0114  0.0068
 5444W        W22292  13.204  12.783   3.587 -0.1369  0.0399  0.0170
 5445W        W22293   1.790   2.197  14.958  0.1457 -0.0910  0.0353
 5446W        W22294   9.382  16.652  14.376 -0.0092 -0.3037  0.1124
 5447W        W22295  15.912  12.402  15.336  0.0444  0.0650 -0.2992
 5448W        W22296   7.258  14.091  10.892  0.1038 -0.0839  0.5829
 5449W        W22297   5.493   3.887  15.021  0.1618  0.1762 -0.1467
 5450W        W22298  13.098   5.255   4.171 -0.1031 -0.4589  0.1790
 5451W        W22299  14.041   9.060   3.197  0.2238  0.3325 -0.0005
 5452W        W22300  17.096   6.995   2.653 -0.0627 -0.0287 -0.0217
 5453W        W22301   6.484   4.124  12.219 -0.2366  0.2025  0.2407
 5454W        W22302  12.782   2.826  14.522  0.3193  0.0207 -0.0976
 5455W        W22303  13.163   0.332  15.887 -0.1575 -0.2896  0.0771
 5456W        W22304  16.848   7.419  15.284 -0.0338 -0.0467  0.1071
 5457W        W22305   6.012  10.631  14.651  0.0941 -0.1913 -0.3218
 5458W        W22306  11.798   5.239  13.881  0.1317  0.0031 -0.0240
 5459W        W22307   4.235   6.599   4.306 -0.0290  0.0214 -0.0591
 5460W        W22308   0.609   6.160   4.836 -0.1961 -0.0655 -0.1906
 5461W        W22309  10.814   9.883  13.893  0.0949 -0.1791  0.2685
 5462W        W22310  17.131  12.907  15.695 -0.2476 -0.3632  0.0866
 5463W        W22311   4.426  15.879   4.560 -0.2404 -0.4677  0.1854
 5464W        W22312   5.062  12.881   1.799 -0.4328  0.2123 -0.3273
 5465W        W22313  10.404  11.357  15.501 -0.1883  0.1309  0.1759
 5466W        W22314  14.311   8.432  13.820 -0.0559 -0.0002 -0.1662
 5467W        W22315  14.843   8.963   4.272 -0.0354  0.1824  0.2814
 5468W        W22316  14.924   0.593  14.943  0.2689 -0.0135 -0.1522
 5469W        W22317  16.414   1.229  15.332  0.0990 -0.0956 -0.1143
 5470W        W22318  14.028  12.056   3.815 -0.1667 -0.0642 -0.3170
 5471W        W22319   5.199   1.745   4.830  0.0582  0.1004  0.3457
 5472W        W22320   3.084   1.205  11.637 -0.1886 -0.3158 -0.0647
 5473W        W22321   6.215   3.431  16.103 -0.2009  0.1659  0.0701
 5474W        W22322  15.482   8.692   4.039 -0.7949 -0.1054  0.3009
 5475W        W22323   0.364  10.392  15.030  0.1564 -0.1376  0.0007
 5476W        W22324  11.170   1.059   0.737  0.2311 -0.1995 -0.1527
 5477W        W22325   2.059  10.879   0.198 -0.2203 -0.3022  0.0584
 5478W        W22326  14.873   6.733  13.796 -0.1163 -0.0468 -0.1127
 5479W        W22327   1.816   9.680  14.973 -0.1112  0.0469 -0.0813
 5480W        W22328   8.703  14.782   4.499  0.0287  0.0330  0.2365
 5481W        W22329  14.239   2.958  13.171  0.1260 -0.1963 -0.0837
 5482W        W22330   7.965  11.438   1.836  0.1680  0.0409 -0.0272
 5483W        W22331   3.858   3.969   5.826  0.1935  0.1425 -0.0641
 5484W        W22332  10.066  14.148   5.133 -0.2755  0.0129  0.2809
 5485W        W22333   8.380  15.566   4.822  0.0083  0.5149  0.0768
 5486W        W22334  10.448   2.366  12.855 -0.0618 -0.0632  0.0103
 5487W        W22335   0.178   7.068  12.462 -0.3694  0.2364 -0.0944
 5488W        W22336   4.940  13.069  16.287  0.0740  0.0635  0.2185
 5489W        W22337   1.284   2.086   1.288 -0.1184  0.1257  0.2029
 5490W        W22338  15.656   8.726   3.175 -0.2096 -0.2550 -0.1177
 5491W        W22339  12.653  12.307   0.980  0.2511  0.0096 -0.1883
 5492W        W22340  16.613  12.876  10.748 -0.3342  0.1104 -0.0319
 5493W        W22341   3.290   0.804   3.831  0.2172 -0.1186  0.3659
 5494W        W22342   7.620   6.539   2.377  0.2268 -0.0653  0.2383
 5495W        W22343  17.780   2.138   3.275 -0.1331 -0.0295 -0.1325
 5496W        W22344   0.958  14.990  13.431 -0.0752  0.2363 -0.0098
 5497W        W22345   2.685   3.496  12.330  0.0861 -0.1765 -0.2448
 5498W        W22346  16.955   9.914   4.143 -0.2538  0.0626  0.3025
 5499W        W22347   3.364  11.566   1.668 -0.0353 -0.1508  0.2061
 5500W        W22348   5.419  11.679   3.704 -0.0010  0.0391  0.0892
 5501W        W22349   4.401   8.736  14.155  0.2156 -0.0640  0.0629
 5502W        W22350   0.250  13.733  13.031  0.0889  0.3717 -0.0251
 5503W        W22351   5.063   3.521   2.682 -0.0407  0.1952 -0.0302
 5504W        W22352   8.733   3.773   2.397 -0.0613  0.0784  0.2600
 5505W        W22353  11.079  13.569  12.986  0.1903  0.2338  0.3681
 5506W        W22354   8.029   9.087  15.521 -0.2761  0.1412 -0.2043
 5507W        W22355  16.397  10.300   0.083  0.0636  0.2157 -0.0296
 5508W        W22356   6.833   1.747  15.582 -0.2101  0.1145 -0.1758
 5509W        W22357   6.142   2.982  12.540 -0.0114 -0.0283  0.0748
 5510W        W22358   0.576  13.762  11.742 -0.1429  0.1710  0.2284
 5511W        W22359  11.955   0.523   0.436  0.1975  0.0010 -0.2456
 5512W        W22360   3.272   3.213   2.412 -0.1261  0.0166 -0.2818
 5513W        W22361   4.565  13.690  15.825  0.2385  0.1990  0.1779
 5514W        W22362  14.826  12.833   0.288 -0.1997  0.0367 -0.0324
 5515W        W22363  10.696   3.848  14.268  0.0944  0.0800  0.1480
 5516W        W22364   7.065   3.261   4.312  0.1167 -0.2408 -0.1023
 5517W        W22365   6.477  14.708   5.281  0.1101 -0.0785  0.3364
 5518W        W22366   2.001   6.926  12.525 -0.1097  0.0712  0.0233
 5519W        W22367  16.239   0.941   1.428  0.3054  0.2115  0.2499
 5520W        W22368  15.234   4.111   1.015  0.0644 -0.2405 -0.0419
 5521W        W22369   8.199   0.070  16.014  0.1977 -0.0703 -0.2049
 5522W        W22370   8.890  11.697  12.659  0.1155  0.0829  0.0701
 5523W        W22371  13.589   9.363  13.807 -0.1380  0.3394  0.3735
 5524W        W22372  15.146   5.641  15.819  0.3826 -0.0616 -0.1254
 5525W        W22373   3.230   5.240   1.620 -0.1624 -0.1216 -0.3400
 5526W        W22374   2.682   1.610  11.746  0.2777  0.0014  0.2152
 5527W        W22375  10.558  15.705  14.701  0.1038  0.0445 -0.0783
 5528W        W22376  17.876  15.915  14.932 -0.4964 -0.2593 -0.2801
 5529W        W22377   0.387  17.883   1.352 -0.1744  0.1458  0.0606
 5530W        W22378   4.863   5.536  13.765  0.0102  0.0264  0.1007
 5531W        W22379  16.731  15.539   0.275  0.2622  0.1112 -0.2489
 5532W        W22380   5.101  10.827  14.889 -0.0824  0.1852 -0.2156
 5533W        W22381   8.656   6.437   1.717 -0.4375 -0.0742  0.1437
 5534W        W22382   6.974   8.771   3.394  0.0508 -0.3283 -0.1231
 5535W        W22383   7.715   9.861  13.230 -0.1128 -0.2468  0.1185
 5536W        W22384  14.170  14.105  12.859  0.1402  0.0252  0.2388
 5537W        W22385   2.700   8.432   1.047  0.1191 -0.1376  0.0704
 5538W        W22386  13.761  17.434  15.798  0.3501 -0.1900 -0.0707
 5539W        W22387  12.212   8.244   1.264  0.1157 -0.1364  0.0848
 5540W        W22388   8.191   1.568   4.463  0.1342 -0.0873 -0.3360
 5541W        W22389   2.208   9.280  11.324  0.1004  0.1166 -0.2326
 5542W        W22390   7.564   0.415  15.528  0.1407 -0.3570 -0.1094
 5543W        W22391   8.099   4.907  11.710  0.0781 -0.1073 -0.0576
 5544W        W22392   8.878  16.504   0.934  0.2525 -0.1743  0.1069
 5545W        W22393  17.183  11.932  15.289  0.1780  0.2470 -0.0395
 5546W        W22394   3.912   1.528   3.196  0.0037 -0.0806 -0.1977
 5547W        W22395  10.097  10.001  15.659 -0.0605  0.1174  0.0071
 5548W        W22396   8.227  17.012  11.817 -0.1990  0.1558 -0.1668
 5549W        W22397   2.910   3.934   2.143  0.0021  0.0256 -0.2579
 5550W        W22398   7.407  10.321  13.125 -0.2656 -0.0192 -0.0284
 5551W        W22399  13.277  13.092   1.601 -0.1331  0.0654  0.0588
 5552W        W22400   4.607  17.282   1.658  0.0978 -0.0625 -0.2609
 5553W        W22401  13.834   7.500   0.940  0.2543 -0.1307  0.2285
 5554W        W22402   8.048   1.147  12.300  0.2131  0.0031 -0.0149
 5555W        W22403  16.416  17.489   0.214 -0.1015  0.1460  0.2496
 5556W        W22404   9.932  14.841   2.343 -0.3058  0.2285 -0.0875
 5557W        W22405  16.555  12.566   0.834 -0.1707 -0.0464 -0.0291
 5558W        W22406  12.915   1.929  12.134 -0.0713 -0.1139  0.0068
 5559W        W22407  10.641  17.649   5.068  0.3094  0.0842  0.0562
 5560W        W22408   6.414  12.715  14.949  0.0873  0.0652  0.1092
 5561W        W22409   4.927  13.645   3.014 -0.4674 -0.2509 -0.1910
 5562W        W22410   0.152  14.341   5.260  0.0853 -0.1240 -0.0374
 5563W        W22411  16.740   4.047   0.579  0.0793  0.0096 -0.0384
 5564W        W22412   0.565   8.148   4.200 -0.1692  0.2645 -0.1511
 5565W        W22413  16.074  11.491   4.634 -0.1119 -0.1300  0.0987
 5566W        W22414  13.446  17.006   2.150  0.1462  0.1231  0.1246
 5567W        W22415  16.607   4.438  12.107 -0.2094 -0.1079 -0.1281
 5568W        W22416  15.536  14.136  13.513 -0.3647 -0.1351  0.4226
 5569W        W22417  16.927   5.335   3.257 -0.0933  0.3058 -0.3064
 5570W        W22418   9.582   6.228  14.719  0.2502  0.1773 -0.0086
 5571W        W22419  14.597  12.851   3.486  0.0001  0.3637 -0.1171
 5572W        W22420  15.511   8.031   2.128 -0.2102 -0.0346 -0.2162
 5573W        W22421  13.901  15.591  13.426 -0.1727 -0.1885  0.1161
 5574W        W22422  16.982  15.877  11.874 -0.0743 -0.0750  0.0534
 5575W        W22423  12.651  10.572  12.148  0.2703 -0.1588  0.1916
 5576W        W22424   5.508   2.616  12.798  0.2105  0.0199 -0.1295
 5577W        W22425  12.452  14.805   0.277  0.1471  0.3347 -0.0179
 5578W        W22426   4.727  15.452   3.881 -0.1279 -0.1192 -0.0815
 5579W        W22427  17.084  10.054  14.397  0.3433  0.2269 -0.3661
 5580W        W22428   7.806   5.884   2.193 -0.1959 -0.0541  0.2298
 5581W        W22429  12.166  11.069   5.188 -0.3167  0.0265  0.1102
 5582W        W22430   4.262   4.953   0.741 -0.0263 -0.0830  0.0410
 5583W        W22431  14.093  10.262  13.365 -0.2040  0.2132  0.1344
 5584W        W22432   3.107   4.366   0.944 -0.1304 -0.0575 -0.0359
 5585W        W22433   6.202   9.382  11.826 -0.3911  0.1375  0.3287
 5586W        W22434  17.773   8.381  10.839  0.3403 -0.2148  0.1658
 5587W        W22435  14.560   4.217   3.007 -0.5209  0.0311 -0.1519
 5588W        W22436   5.749  17.776  14.587  0.1082  0.3118  0.1076
 5589W        W22437   9.868   6.776  14.919  0.4103  0.0974 -0.0992
 5590W        W22438  12.537   8.295   1.665 -0.0402 -0.1485  0.0728
 5591W        W22439   3.615  13.716   3.537 -0.0640  0.1408  0.2315
 5592W        W22440   5.460  12.873   4.186 -0.0598 -0.1799 -0.1437
 5593W        W22441   1.403   2.880   3.301 -0.0776  0.0937  0.0784
 5594W        W22442   3.628   2.143  12.711 -0.1474  0.1075  0.1297
 5595W        W22443   2.490  13.605   0.778 -0.1693  0.0891 -0.0146
 5596W        W22444  15.448   6.887   1.577  0.2031  0.1009 -0.4127
 5597W        W22445  12.701   8.223  11.573  0.0450 -0.0012 -0.0142
 5598W        W22446   7.156   1.295   4.314 -0.1063  0.2813  0.2444
 5599W        W22447   7.647   5.073   0.079 -0.2105 -0.1048  0.1359
 5600W        W22448   1.104   3.144  11.037  0.0610  0.3041 -0.3860
 5601W        W22449   0.592  15.772   4.701  0.1821 -0.1698  0.0958
 5602W        W22450   2.251   0.980   3.545  0.1894  0.3450  0.2718
 5603W        W22451   0.416  17.331   0.661  0.2201  0.2128 -0.1676
 5604W        W22452  13.883  12.595   5.414 -0.2342 -0.2333 -0.0256
 5605W        W22453   7.984   2.929   1.847  0.0251  0.0602  0.2365
 5606W        W22454   1.540   9.092  13.355  0.0172 -0.0174 -0.1518
 5607W        W22455   2.643  13.041   2.870  0.0061 -0.0037 -0.1025
 5608W        W22456  15.458   7.284  16.041 -0.0882  0.1668  0.0044
 5609W        W22457  12.827  17.256   3.920  0.0672  0.2253 -0.0735
 5610W        W22458  15.634  17.392  13.703 -0.1522 -0.3303 -0.4144
 5611W        W22459  17.588  15.832   1.193 -0.4699  0.1613 -0.0479
 5612W        W22460   7.084   2.653   2.862  0.0680  0.0059  0.1975
 5613W        W22461   2.903  10.300   5.026  0.1724  0.0904  0.1153
 5614W        W22462  17.779  13.098  11.617 -0.3330  0.0266 -0.0630
 5615W        W22463  11.074  13.402   1.309  0.0578 -0.0360  0.0218
 5616W        W22464  11.933  17.513  15.223 -0.0131 -0.1251  0.0477
 5617W        W22465   1.852  17.258   1.045 -0.0288 -0.0787  0.2120
 5618W        W22466   9.457  14.945  12.060 -0.0046 -0.1453 -0.1216
 5619W        W22467  14.909   0.003   5.154 -0.0464 -0.1628  0.2174
 5620W        W22468   2.884   5.675   5.319 -0.2090  0.0258  0.3470
 5621W        W22469  10.608   7.700   3.203  0.0248  0.0907 -0.2876
 5622W        W22470   3.403   1.679   0.466  0.1907  0.2156  0.0261
 5623W        W22471   1.690   9.958  13.983 -0.1927  0.2195  0.0843
 5624W        W22472   8.390  13.985  13.480  0.2016  0.1888  0.0434
 5625W        W22473   3.711  15.208   1.609 -0.0636 -0.2931 -0.3252
 5626W        W22474   3.915   1.972   2.993 -0.1196 -0.2562  0.0191
 5627W        W22475   4.249   1.304   1.859  0.3148  0.0570  0.1867
 5628W        W22476  11.611   0.201   1.081 -0.0197 -0.2134  0.1073
 5629W        W22477  14.516   9.389   2.148  0.1924  0.0597  0.1785
 5630W        W22478   9.092   1.353   3.464  0.2892  0.1703  0.0992
 5631W        W22479  15.953   4.046  13.765 -0.1332  0.1267 -0.0848
 5632W        W22480   6.348   3.041  15.327  0.0443  0.1343  0.0702
 5633W        W22481   8.392   9.557  14.240 -0.0234  0.0930 -0.0844
 5634W        W22482  16.123  16.336  13.678 -0.2510 -0.0927  0.0156
 5635W        W22483   7.009   3.190  15.650  0.0190 -0.3021 -0.0160
 5636W        W22484   8.130  15.164   0.952  0.1539 -0.2219  0.0376
 5637W        W22485  13.974  13.089  13.041  0.2225  0.1882 -0.2102
 5638W        W22486  11.610   6.611  11.098  0.1497  0.2516 -0.3973
 5639W        W22487   9.233  16.613  13.399  0.0818  0.2186  0.2416
 5640W        W22488   4.722   6.965   0.373 -0.0324 -0.0087  0.1974
 5641W        W22489  15.509   1.856  11.437  0.2411 -0.0184  0.0212
 5642W        W22490   2.683   4.114  15.561 -0.1887 -0.0568  0.0727
 5643W        W22491  16.060  10.653   5.005  0.0204 -0.2128  0.0542
 5644W        W22492  17.058   6.045  13.316 -0.0955 -0.1030  0.1521
 5645W        W22493  12.111   6.690  15.587 -0.0399  0.0847 -0.1347
 5646W        W22494  10.243   4.978  14.174 -0.1269 -0.2062 -0.0719
 5647W        W22495   6.186   5.886   1.734  0.3247 -0.0774  0.2902
 5648W        W22496   2.944   0.006   0.193  0.0578 -0.0893 -0.0950
 5649W        W22497   8.429  14.573  15.388 -0.0820  0.3537  0.0740
 5650W        W22498   6.582   0.479  15.727 -0.1038 -0.1391  0.2386
 5651W        W22499   3.106   9.355  15.777  0.0298  0.1641 -0.1934
 5652W        W22500  11.230   8.781   3.864  0.1627 -0.0946  0.0457
 5653W        W22501   8.730   6.510  15.425  0.1086  0.0623  0.1181
 5654W        W22502  17.608   3.122   4.854 -0.0276  0.0575 -0.0472
 5655W        W22503  17.696   7.478  11.692 -0.0570 -0.4196 -0.1335
 5656W        W22504  13.546  17.059   3.028 -0.0484 -0.0468 -0.0676
 5657W        W22505   1.296  12.319  14.985  0.2409  0.1128  0.2803
 5658W        W22506   1.401   6.443   2.119 -0.0776 -0.0008  0.0061
 5659W        W22507   5.641   8.710  14.915 -0.0863  0.0131  0.1670
 5660W        W22508  16.995  11.486   5.552  0.2885 -0.0485 -0.1519
 5661W        W22509  15.628  10.133   3.404 -0.3061  0.1704 -0.1024
 5662W        W22510   1.210   0.274   5.091  0.1270 -0.0529  0.1749
 5663W        W22511   0.834   3.379  14.706  0.2027  0.0134 -0.1456
 5664W        W22512   0.903   7.854   0.821  0.5212 -0.0297 -0.1029
 5665W        W22513  17.463   9.417  13.813 -0.0328  0.3175  0.3702
 5666W        W22514  10.183  16.681   1.679 -0.0082 -0.1298 -0.0299
 5667W        W22515  10.259  11.715   1.245  0.0042  0.0525 -0.4025
 5668W        W22516  11.870   4.754  13.778  0.0263 -0.1066  0.1117
 5669W        W22517   7.333  11.415  16.030 -0.0533  0.0001 -0.0877
 5670W        W22518   3.680  17.835   3.558  0.0516  0.0175  0.3010
 5671W        W22519   9.518   8.986   5.133 -0.2472 -0.0678  0.0470
 5672W        W22520   3.775  10.098   4.958 -0.0758  0.3315 -0.0077
 5673W        W22521  15.655   6.529  14.509 -0.1417  0.2028 -0.1919
 5674W        W22522  16.597  11.241  12.428  0.0511  0.0663 -0.1232
 5675W        W22523   9.982   2.742   5.386  0.0970  0.1176 -0.4172
 5676W        W22524  11.013  13.685  14.369  0.0150 -0.0231  0.1713
 5677W        W22525  15.880   2.110  15.439  0.0311 -0.2653 -0.0248
 5678W        W22526  10.143  15.043  10.358 -0.1684  0.2041  0.1231
 5679W        W22527  17.693   5.143  15.469  0.2968 -0.0430 -0.1151
 5680W        W22528  15.989  12.818  10.218  0.0318  0.1816 -0.2590
 5681W        W22529   9.746   6.364   3.827 -0.1328  0.4319 -0.3786
 5682W        W22530   8.048   8.065  12.565 -0.0193  0.0709  0.0613
 5683W        W22531   1.037  10.274  13.430 -0.0125 -0.5412  0.0187
 5684W        W22532   8.075   9.989  11.646 -0.0161  0.0009 -0.1383
 5685W        W22533  11.230  12.689  13.291 -0.4519 -0.1936 -0.1894
 5686W        W22534   9.275   7.920  12.606 -0.0961 -0.0986  0.1188
 5687W        W22535   0.122   8.528   3.157 -0.0537 -0.0317  0.0957
 5688W        W22536   1.176  12.710   3.711  0.2635  0.0770  0.1404
 5689W        W22537  11.776  10.106   0.835 -0.1419 -0.1988 -0.0546
 5690W        W22538  17.690   9.710   1.386 -0.0167 -0.4045 -0.4573
 5691W        W22539   9.110   7.243   1.514 -0.0429  0.0497  0.2265
 5692W        W22540  10.353   7.584  11.950 -0.1349  0.0364  0.0216
 5693W        W22541   4.080   9.980   1.325  0.0688  0.1388 -0.1753
 5694W        W22542  12.706   8.612  11.201 -0.0055  0.0081  0.0362
 5695W        W22543   9.327  14.502  13.410 -0.0546 -0.1863  0.1070
 5696W        W22544  15.903   5.911   4.988 -0.3411  0.2238 -0.2141
 5697W        W22545  17.114  12.660  14.113 -0.0790 -0.1409 -0.1093
 5698W        W22546   8.058   9.540  11.879 -0.2914  0.1682  0.1523
 5699W        W22547   7.420   9.841  12.453  0.0644  0.1419  0.0982
 5700W        W22548  17.491   4.472  15.567  0.0088 -0.0671  0.1298
 5701W        W22549  11.021   8.096   1.605  0.0884 -0.1660 -0.0531
 5702W        W22550   6.964  14.692   4.018  0.1776 -0.2629 -0.0503
 5703W        W22551   1.393   2.479  13.655  0.1142  0.1050  0.0325
 5704W        W22552  14.006   2.351  13.036  0.3726 -0.0306 -0.1065
 5705W        W22553   5.811   2.633  12.366  0.3345 -0.2192  0.0346
 5706W        W22554  15.854  12.557  14.743 -0.1048 -0.0320 -0.0908
 5707W        W22555  17.860  12.955  12.144  0.1605 -0.3278  0.4278
 5708W        W22556   3.486  17.853  12.557  0.2194  0.1296 -0.0098
 5709W        W22557   7.547   6.229   1.900 -0.2019 -0.1781  0.2387
 5710W        W22558  11.854  16.151   1.311  0.0489 -0.0225  0.0583
 5711W        W22559   2.150  11.761   2.639  0.4129 -0.5158 -0.1166
 5712W        W22560   1.115  12.629   5.958 -0.0145 -0.2187 -0.2463
 5713W        W22561   6.614  12.642  12.211 -0.0650  0.1168 -0.1544
 5714W        W22562  15.513  13.838   3.616 -0.0597 -0.1262  0.1024
 5715W        W22563  11.410  16.970   3.887 -0.1898 -0.2773  0.0786
 5716W        W22564  13.989  12.973   0.802  0.1885  0.0360 -0.2333
 5717W        W22565  15.424   0.065   1.810 -0.5195 -0.3273  0.2007
 5718W        W22566  15.357  11.793   0.353  0.1011 -0.1636 -0.1166
 5719W        W22567   7.977   8.568   1.972  0.1183  0.0815  0.0976
 5720W        W22568  16.462  17.378  13.301  0.0965 -0.1239 -0.1762
 5721W        W22569  13.295   5.217  11.585  0.2202  0.3568  0.0970
 5722W        W22570  15.308  14.336   2.891 -0.1878 -0.1137 -0.0853
 5723W        W22571  13.410  17.033  13.369 -0.2041  0.0566 -0.0781
 5724W        W22572  10.743   0.232   5.224  0.2099 -0.1507 -0.1261
 5725W        W22573  11.728   9.834   1.396  0.2344  0.0331 -0.0016
 5726W        W22574   1.475   5.240   2.166 -0.2701  0.1380  0.0556
 5727W        W22575   7.433   4.606   0.046 -0.2399 -0.1304 -0.2674
 5728W        W22576  14.194   0.193   3.976  0.3309 -0.1047 -0.0779
 5729W        W22577  10.954   1.833   2.351  0.2881 -0.0383 -0.2208
 5730W        W22578  10.032  16.328  14.220 -0.1415  0.1972  0.0314
 5731W        W22579   8.065   4.174  12.923  0.4177  0.3016  0.4486
 5732W        W22580  11.022  17.016   2.881  0.2188  0.0461 -0.2838
 5733W        W22581   3.505  14.883   0.361  0.1639 -0.0865 -0.0289
 5734W        W22582   3.636  14.642   4.287  0.1114 -0.1192 -0.1516
 5735W        W22583   1.397  13.342  14.061  0.2027  0.3553 -0.0161
 5736W        W22584   6.935   5.313  11.736  0.2547  0.0446 -0.0028
 5737W        W22585   5.294   9.165  12.090  0.1107 -0.0212  0.0612
 5738W        W22586   0.029   1.725  15.729  0.1089  0.0177 -0.2590
 5739W        W22587   0.454  15.070  16.015  0.3136  0.0068  0.3183
 5740W        W22588  15.460  14.029   0.846  0.3096 -0.0368  0.2360
 5741W        W22589   4.598  14.155   1.264 -0.3141 -0.2237  0.0672
 5742W        W22590   5.829   8.392  14.450 -0.2950  0.0722 -0.0482
 5743W        W22591  14.491  10.785   2.235 -0.4329  0.2023  0.2227
 5744W        W22592  14.909  17.746  10.318  0.2880 -0.0043  0.0218
 5745W        W22593  17.693   2.624  15.761  0.1513  0.0130  0.0311
 5746W        W22594  16.805   1.387   1.372 -0.0157 -0.1246 -0.0956
 5747W        W22595   3.731  11.936   3.048 -0.1628  0.3566  0.3589
 5748W        W22596   8.442   0.015  12.448 -0.0883  0.4503  0.1365
 5749W        W22597  17.582  14.362  12.179  0.1803 -0.1202 -0.1980
 5750W        W22598  11.706  12.334   4.503  0.0219 -0.0480  0.0769
 5751W        W22599   4.050  10.383  14.699 -0.4358 -0.3054  0.2843
 5752W        W22600   7.345   6.607  12.064 -0.3189  0.2109  0.3160
 5753W        W22601   9.931  10.765  12.370  0.2212 -0.1366  0.0036
 5754W        W22602  17.858   1.642   3.395  0.3288  0.1578  0.1543
 5755W        W22603   0.604   7.792  11.809 -0.2208  0.1063  0.0624
 5756W        W22604  11.238  11.262   0.501  0.0563 -0.2505 -0.0445
 5757W        W22605   6.390   2.562   0.705  0.0611 -0.0322 -0.0147
 5758W        W22606   5.222  15.358  12.366  0.0416 -0.0875 -0.1420
 5759W        W22607   4.155  16.604   0.362  0.2819  0.2545 -0.2362
 5760W        W22608   7.822   7.719   3.117 -0.1120  0.1229  0.1358
 5761W        W22609  13.569   8.268  11.258  0.0104 -0.1236 -0.0963
 5762W        W22610   3.179   4.249  15.542  0.0959 -0.2638 -0.2081
 5763W        W22611  14.860  14.265   2.821 -0.1446 -0.1246 -0.0376
 5764W        W22612  11.457   8.265  15.567  0.1343  0.0870 -0.0218
 5765W        W22613  10.850   6.863  10.765 -0.0619  0.3761  0.2292
 5766W        W22614   3.615  13.248   1.158  0.0833 -0.2374  0.1116
 5767W        W22615   9.143  15.227   3.759  0.2860  0.0475  0.3841
 5768W        W22616   3.801  13.194   6.249 -0.0666  0.3895  0.2535
 5769W        W22617   1.614  10.167   0.718  0.1159  0.1413  0.1087
 5770W        W22618   0.744   0.654  15.216 -0.0122 -0.0381  0.1115
 5771W        W22619  13.821   7.723  14.028 -0.3911  0.3407 -0.3034
 5772W        W22620   4.335   5.080   2.445 -0.1517 -0.0236  0.2892
 5773W        W22621   9.776   1.860   3.838  0.0680 -0.1321 -0.0895
 5774W        W22622   9.858   1.347   0.033 -0.0225  0.0252  0.1015
 5775W        W22623  16.415   2.640   2.412  0.0594 -0.2918 -0.0493
 5776W        W22624   4.977  15.539   4.951 -0.1651  0.1487  0.1766
 5777W        W22625  11.729   3.138   4.753 -0.1440 -0.1011 -0.1549
 5778W        W22626   4.508  12.749  11.669 -0.1880 -0.2766 -0.1998
 5779W        W22627   0.765  10.155   1.097 -0.0831  0.1207 -0.0496
 5780W        W22628   0.473   3.982  14.634  0.3665 -0.0787  0.3463
 5781W        W22629   5.475   0.361  14.181  0.4016 -0.2036 -0.2451
 5782W        W22630  16.097  15.792  14.367  0.1024 -0.0317 -0.0548
 5783W        W22631  17.609   4.431  12.229  0.0372  0.3482 -0.0880
 5784W        W22632  12.287  14.198   4.441  0.0525 -0.0013  0.0850
 5785W        W22633   9.303  14.607   5.020 -0.2876 -0.2689  0.2737
 5786W        W22634  10.545  12.241  16.011 -0.1114  0.3653 -0.0487
 5787W        W22635  12.513  11.539  12.005  0.0404 -0.1201  0.2067
 5788W        W22636  12.919   8.488   1.377 -0.0187 -0.3864 -0.3428
 5789W        W22637   8.177  14.117  15.639 -0.2259  0.0438 -0.1480
 5790W        W22638   8.849   8.318  12.787 -0.1705  0.3023  0.1238
 5791W        W22639  16.370  13.137  13.169  0.1093 -0.1840  0.1748
 5792W        W22640  13.148  17.131  11.097  0.1923 -0.0927  0.3924
 5793W        W22641  15.220  12.306  11.389  0.0853 -0.2650 -0.2545
 5794W        W22642   4.125  12.802  14.685  0.0751  0.1436  0.1289
 5795W        W22643   3.910   2.548   5.263  0.1719  0.1162 -0.1998
 5796W        W22644   6.544   4.051  11.457  0.1438  0.1944  0.1843
 5797W        W22645  17.729   1.726   5.256  0.1307  0.1323  0.2628
 5798W        W22646  13.708   9.926  16.393 -0.1414  0.3247  0.0782
 5799W        W22647   8.946   8.240  12.253  0.0081  0.1396 -0.0700
 5800W        W22648   1.738   0.116  11.367  0.2012 -0.4264  0.2853
 5801W        W22649   9.571   7.410   2.519 -0.1470 -0.3678  0.0498
 5802W        W22650  17.085  13.249   3.628 -0.1222  0.0974 -0.2919
 5803W        W22651   4.139  14.264  11.733 -0.0614 -0.1644 -0.2443
 5804W        W22652  16.171   1.518  13.593  0.0164 -0.1033 -0.1224
 5805W        W22653   3.834   8.181   0.589  0.0692  0.0001  0.0578
 5806W        W22654   4.126   5.469   2.896  0.2179 -0.5909  0.0959
 5807W        W22655  11.538  17.853  15.375  0.2402 -0.1988  0.2253
 5808W        W22656   4.979  16.933  13.980  0.0694  0.2537 -0.1842
 5809W        W22657   1.853   9.407   5.212  0.1001  0.3909  0.2989
 5810W        W22658   3.502   6.707  16.051 -0.0994  0.1198  0.0726
 5811W        W22659  15.304  12.299  15.489 -0.1664 -0.0563  0.0570
 5812W        W22660  15.783   4.129   2.020  0.0449  0.0353  0.4116
 5813W        W22661   3.913  10.681   2.585 -0.0272  0.1351  0.1605
 5814W        W22662   6.518  12.893  12.616  0.7110  0.0340  0.0572
 5815W        W22663  15.407   5.659   1.297 -0.0788 -0.0191 -0.2333
 5816W        W22664  15.151   0.232  12.578 -0.1816  0.0109 -0.1420
 5817W        W22665   1.622   9.737   4.436  0.0505  0.0279 -0.1955
 5818W        W22666  13.658  13.500   2.574 -0.1345  0.1496 -0.0239
 5819W        W22667  10.092   0.023   3.518  0.2439 -0.1378  0.0628
 5820W        W22668  10.343   8.106  12.513  0.1365 -0.0859 -0.1552
 5821W        W22669   8.523  13.057   3.821  0.3727  0.0814 -0.2808
 5822W        W22670  11.366  13.098   4.935  0.3182  0.0040 -0.3557
 5823W        W22671  10.590  13.195   1.275 -0.1702 -0.0440 -0.0961
 5824W        W22672  13.147  13.206   0.808  0.0199 -0.5411  0.0413
 5825W        W22673  10.663  11.144   2.076  0.1325 -0.1479  0.1747
 5826W        W22674   3.623   1.065   4.905 -0.3362  0.0685  0.0747
 5827W        W22675   2.386  11.846   3.274 -0.0567  0.1541  0.2144
 5828W        W22676  12.663   2.232  12.407  0.1007  0.2033  0.2479
 5829W        W22677  10.578  11.672   4.181  0.3316  0.1348  0.0564
 5830W        W22678  12.401  13.135   6.096  0.3430 -0.2638 -0.2724
 5831W        W22679   0.293   9.115   4.093  0.0315 -0.0898 -0.1400
 5832W        W22680   2.550  10.704  15.649  0.4018  0.1847 -0.1517
 5833W        W22681   1.404   9.564   5.301 -0.2914 -0.2630  0.0522
 5834W        W22682  17.165   2.837  13.689  0.0347 -0.2615 -0.1176
 5835W        W22683  16.182  17.752  14.086 -0.0989 -0.0365 -0.1878
 5836W        W22684   7.236  17.424  13.427 -0.0085  0.0585 -0.1567
 5837W        W22685  13.137  16.246   1.516  0.2946 -0.0409  0.1589
 5838W        W22686   5.607  14.466   6.306  0.0938  0.1555 -0.0050
 5839W        W22687   9.039   6.086  13.023  0.0919  0.1793  0.0103
 5840W        W22688  11.494   9.093  10.629  0.1337 -0.1191  0.0892
 5841W        W22689  12.810   5.198   1.786  0.0210 -0.0377  0.1261
 5842W        W22690   0.879   6.198  13.784  0.1477  0.0645 -0.1313
 5843W        W22691   0.545   7.301  15.646 -0.0873  0.2526 -0.0041
 5844W        W22692  14.712  16.767  12.761 -0.0002 -0.0252  0.0553
 5845W        W22693   9.951  13.862  12.365 -0.0850 -0.2029  0.0666
 5846W        W22694  11.235  10.169  14.626  0.5344 -0.0232 -0.1033
 5847W        W22695   6.127  17.015  15.880  0.2596  0.0664  0.0258
 5848W        W22696  12.436  16.951   4.064  0.3641  0.0589  0.0938
 5849W        W22697   6.261   8.779  12.595  0.0089  0.3281  0.3379
 5850W        W22698   7.403   3.156  12.259 -0.1282 -0.0475  0.0713
 5851W        W22699   8.156   9.010  13.567  0.0097 -0.3539 -0.0581
 5852W        W22700   3.947  12.158   1.539 -0.1962 -0.1755 -0.0616
 5853W        W22701   6.271   7.872  13.370 -0.0174 -0.1232  0.1285
 5854W        W22702  14.298  17.553  12.211  0.0216  0.2330  0.1146
 5855W        W22703  17.385   5.267   4.165  0.1057  0.0284 -0.0053
 5856W        W22704  10.861  15.349  14.402 -0.0835 -0.2535  0.1375
 5857W        W22705  14.358  16.476  15.836 -0.3603  0.3474 -0.0311
 5858W        W22706   1.133   4.217   3.755 -0.0618  0.0052 -0.1142
 5859W        W22707  10.994   2.877  15.784  0.2130  0.0998 -0.2523
 5860W        W22708   7.333  13.244  11.368 -0.2363 -0.1188  0.0621
 5861W        W22709   4.664  12.600   1.905 -0.1548  0.0549  0.0446
 5862W        W22710  15.151   5.754  14.843 -0.0127  0.1624 -0.1444
 5863W        W22711  14.249  12.122  15.528  0.2579  0.1562 -0.4691
 5864W        W22712   3.340   0.477  14.855  0.1529 -0.0580  0.1050
 5865W        W22713   8.179   8.231  14.133  0.1419  0.0797 -0.1108
 5866W        W22714   8.428  10.945  13.401 -0.1151 -0.3049  0.0249
 5867W        W22715   2.499   7.156   4.885  0.0233  0.0367  0.2482
 5868W        W22716  10.535   1.832  13.847  0.0380  0.1039 -0.0396
 5869W        W22717   8.103  10.605  14.304  0.0020  0.0502  0.0698
 5870W        W22718  16.943   0.073   0.115  0.0780 -0.2540 -0.1676
 5871W        W22719  15.815   1.812  16.319  0.3113 -0.1666  0.0052
 5872W        W22720  13.612  16.528   3.119  0.1152  0.0285 -0.1695
 5873W        W22721  15.771   6.246  12.680 -0.2728  0.2272  0.1315
 5874W        W22722  13.133  15.345   3.959  0.3258  0.0383 -0.0063
 5875W        W22723  11.065  12.864   4.376  0.1256  0.3995 -0.1925
 5876W        W22724   5.325   5.174   3.821  0.0279  0.1627 -0.1017
 5877W        W22725   8.582  13.338  15.300 -0.0577 -0.0822  0.1491
 5878W        W22726   8.224  10.737   2.426  0.0300  0.0390 -0.0046
 5879W        W22727   7.013   2.547   1.782 -0.3038  0.0153  0.0478
 5880W        W22728  13.553  17.500  14.852 -0.0159 -0.0058 -0.0998
 5881W        W22729  10.310  14.998  10.925 -0.2137  0.2655  0.2216
 5882W        W22730   0.954  12.688  14.752 -0.0316 -0.2259  0.0039
 5883W        W22731   0.401   6.371  13.980 -0.4615 -0.0356 -0.0880
 5884W        W22732  10.383  17.876   4.699 -0.2626 -0.3117 -0.0622
 5885W        W22733  13.304   0.276  11.271  0.0050 -0.0152 -0.3282
 5886W        W22734   4.662  13.174  11.899 -0.2197 -0.4051 -0.3280
 5887W        W22735   3.291  14.195   3.551 -0.1066  0.2853 -0.1909
 5888W        W22736   6.368   6.640   1.152  0.2151 -0.0041  0.0238
 5889W        W22737   8.678  15.001  13.856 -0.0144  0.1934  0.0636
 5890W        W22738   3.251  15.268   3.101  0.1352  0.1699 -0.0697
 5891W        W22739  10.216   3.380   5.605  0.0260  0.0395 -0.1789
 5892W        W22740   7.810  13.750   2.905 -0.0481  0.3096  0.1331
 5893W        W22741  16.718  13.395   3.913 -0.1417  0.2009 -0.0390
 5894W        W22742  17.605  17.316  12.686  0.1393 -0.0538  0.0122
 5895W        W22743  15.393   9.846   4.925 -0.2338 -0.0278  0.0363
 5896W        W22744   8.208  10.138  12.515  0.1278  0.3010 -0.0438
 5897W        W22745   7.078  13.677  13.643  0.2752 -0.1516 -0.3143
 5898W        W22746  16.766   5.598  13.306  0.1261 -0.0254  0.0676
 5899W        W22747   1.819   4.011   3.513 -0.3359 -0.1753 -0.1677
 5900W        W22748  16.030  12.223  16.239 -0.1568  0.1522  0.1597
 5901W        W22749  16.202  10.579   2.435  0.1905  0.0197  0.2008
 5902W        W22750  12.494   7.647   0.973 -0.0353  0.3583 -0.1528
 5903W        W22751  17.252  12.247  12.326 -0.1861  0.3003 -0.1162
 5904W        W22752   0.182  15.384   3.139 -0.2281 -0.0745  0.0777
 5905W        W22753  16.802  16.892  12.751 -0.0726 -0.0297  0.0887
 5906W        W22754  10.521  14.096  13.128 -0.0482  0.2628  0.0700
 5907W        W22755  15.326   0.600  14.604  0.0764 -0.0338 -0.0101
 5908W        W22756   1.753  17.806   4.946 -0.1706 -0.0377 -0.0626
 5909W        W22757  13.669   9.893  15.714  0.0706  0.1972  0.0156
 5910W        W22758   9.786   9.550  15.469  0.1685 -0.1850 -0.0904
 5911W        W22759  16.653   5.115   0.032 -0.2118 -0.2207 -0.0870
 5912W        W22760   4.586  17.805  15.680  0.0485 -0.1596  0.2507
 5913W        W22761  17.106   1.890   4.554  0.3082 -0.1156 -0.0523
 5914W        W22762  17.719   6.829   4.856  0.1555 -0.0546  0.2031
 5915W        W22763   1.809   7.169  10.812  0.0033  0.1820  0.0074
 5916W        W22764   4.568   0.361   4.417 -0.2225 -0.1835 -0.1222
 5917W        W22765   3.635   0.756   3.464 -0.0546 -0.0334  0.0049
 5918W        W22766  14.601   3.397  14.759 -0.2708  0.1353 -0.4562
 5919W        W22767   7.165  11.857   5.423 -0.0214  0.2583  0.0199
 5920W        W22768   9.069   2.830  14.460  0.0145  0.0670  0.1213
 5921W        W22769   4.110  14.704  15.384  0.0355  0.1571 -0.2389
 5922W        W22770  13.093  17.245   0.198  0.5563 -0.0744 -0.0597
 5923W        W22771   2.174   6.602   1.744 -0.2247  0.1707 -0.0493
 5924W        W22772   4.875  14.566  10.469 -0.1047 -0.3832 -0.1743
 5925W        W22773  16.460  10.095  13.362  0.2928 -0.3675 -0.2101
 5926W        W22774  11.029   0.586   0.426  0.3089  0.1451 -0.0343
 5927W        W22775   7.544   5.795  13.040 -0.0535 -0.1020  0.0614
 5928W        W22776  13.472  16.350   0.443  0.0265  0.2903 -0.1696
 5929W        W22777   0.175   8.473   5.450  0.4148  0.2322 -0.1126
 5930W        W22778  15.233   5.980   2.725  0.0159  0.0847  0.1803
 5931W        W22779   3.739  13.108   1.897  0.1073  0.2424 -0.1842
 5932W        W22780  11.136   0.751  12.982 -0.1841  0.0791  0.1276
 5933W        W22781  13.144  16.984   1.611  0.1299  0.0204  0.1269
 5934W        W22782   8.055  10.625  12.635 -0.0060  0.1279  0.1777
 5935W        W22783   2.432  10.154  15.708  0.0911 -0.0080  0.2349
 5936W        W22784   1.442   9.901  13.469  0.0297  0.1554  0.2284
 5937W        W22785  10.961   7.362  14.942  0.3526  0.1177  0.1821
 5938W        W22786  10.950  16.751   3.725 -0.2586 -0.2383 -0.1123
 5939W        W22787   0.986  12.873  14.251  0.0032 -0.2341  0.2058
 5940W        W22788  10.996  12.861  15.434 -0.2125  0.1440  0.2219
 5941W        W22789  12.379   3.880  11.551  0.2031 -0.0030  0.0951
 5942W        W22790   2.491   7.755  13.201 -0.2310  0.1078  0.0741
 5943W        W22791   8.815   7.670   3.649  0.0067  0.2819  0.2368
 5944W        W22792   1.263   5.923  13.001  0.0898  0.0259 -0.0686
 5945W        W22793   9.293   7.457   0.138  0.2911 -0.0814 -0.2207
 5946W        W22794  13.947   5.349   0.027 -0.0269  0.2686 -0.2037
 5947W        W22795  14.841  16.387   3.255  0.1181  0.0698  0.1449
 5948W        W22796  15.198  15.564  12.394 -0.2789  0.2607  0.2101
 5949W        W22797   3.369   8.422   2.222 -0.2115 -0.1800  0.0468
 5950W        W22798  15.819  13.796   1.779  0.0286 -0.0763 -0.0699
 5951W        W22799   9.340   3.035  12.802  0.1293 -0.1788 -0.1044
 5952W        W22800   9.222  17.349   0.878 -0.3094 -0.1432 -0.0629
 5953W        W22801   3.178   6.660   1.690  0.3303  0.2091  0.2760
 5954W        W22802  15.955   3.336   3.640  0.1946 -0.1879 -0.1068
 5955W        W22803  17.194  11.919  11.913 -0.0570 -0.1001  0.0629
 5956W        W22804  12.555  17.677   1.513  0.2167  0.0894  0.0669
 5957W        W22805  13.466  15.609   0.878 -0.0500  0.1291 -0.1664
 5958W        W22806   6.457   8.722   0.145  0.1520  0.0836 -0.0787
 5959W        W22807  15.534  14.134  14.634  0.0156  0.1829 -0.1355
 5960W        W22808  10.220  14.425  16.448  0.1122  0.0603  0.2040
 5961W        W22809   5.860   6.643   3.981  0.0452 -0.2624  0.2419
 5962W        W22810  11.194   4.566  12.854 -0.1639  0.3060 -0.1631
 5963W        W22811  13.084   8.978  13.741  0.1417  0.0587  0.1554
 5964W        W22812   4.821   2.046  13.741  0.1537 -0.1156  0.3266
 5965W        W22813   5.545   6.117  14.308 -0.0464  0.1407  0.1182
 5966W        W22814   2.227  11.090   3.765  0.0312 -0.2961 -0.0981
 5967W        W22815  12.819   0.207  12.129  0.3598 -0.1392  0.3276
 5968W        W22816   8.531  16.861   0.910  0.0980  0.2769  0.2366
 5969W        W22817  11.715   8.755   0.600 -0.0696 -0.1420 -0.0189
 5970W        W22818   1.293   3.685  11.676  0.0869  0.2506 -0.0914
 5971W        W22819  10.758  14.963   1.145 -0.0274  0.0006 -0.0508
 5972W        W22820  12.712   7.419   0.042 -0.3665 -0.3145  0.0500
 5973W        W22821   4.507   3.314  15.645  0.1108  0.1906 -0.2308
 5974W        W22822   8.087  11.746   0.439  0.3013 -0.1496  0.0421
 5975W        W22823   5.067  17.531  15.809 -0.1134  0.1817  0.3409
 5976W        W22824  16.163   0.667  16.399  0.1095 -0.5114 -0.0456
 5977W        W22825  15.683   7.700   2.971 -0.0345 -0.2784  0.0218
 5978W        W22826   1.297   4.536   0.150  0.0987 -0.1236 -0.0892
 5979W        W22827  13.305  11.118   5.104  0.1269  0.1383  0.0624
 5980W        W22828  10.995   8.147  11.153  0.3932  0.0143  0.1719
 5981W        W22829   9.064   3.890   4.998 -0.0888  0.1647 -0.1875
 5982W        W22830   4.309  16.410  14.342 -0.1252  0.0195  0.1804
 5983W        W22831  15.210   0.169  12.028 -0.1680  0.0686 -0.4932
 5984W        W22832   6.168  14.834   1.318 -0.0017 -0.2742  0.0312
 5985W        W22833   2.408   5.512   2.087 -0.0298  0.0896 -0.0361
 5986W        W22834   3.489   4.143   0.072  0.1125  0.0961  0.2903
 5987W        W22835   1.624   0.553  11.119  0.4737  0.1034 -0.1359
 5988W        W22836  17.733   1.678   1.496  0.2268 -0.1055 -0.1360
 5989W        W22837   5.903   5.232   4.966  0.0191  0.2141  0.4028
 5990W        W22838  14.278  11.197   5.007  0.0039 -0.3357  0.0580
 5991W        W22839  16.008  16.812   1.084  0.2351  0.0409 -0.2360
 5992W        W22840  17.761   0.415  11.227  0.0150  0.1085 -0.0831
 5993W        W22841   1.910   0.467   0.548  0.0836  0.0368  0.1697
 5994W        W22842   6.479  16.550  15.145  0.2839 -0.0527  0.0256
 5995W        W22843   9.322  12.043  13.601  0.0480 -0.1300 -0.0097
 5996W        W22844  11.213   3.156   0.689 -0.0579 -0.1318 -0.0445
 5997W        W22845  12.075  10.888  12.808  0.2504 -0.2866 -0.1182
 5998W        W22846   4.433   8.246   4.642 -0.1871  0.2337  0.0651
 5999W        W22847  12.237  16.545  13.313 -0.2090 -0.1725 -0.2371
 6000W        W22848  17.353  14.037   1.015  0.0553  0.3332 -0.1242
 6001W        W22849   3.463  15.842  15.159  0.0191  0.0740 -0.0078
 6002W        W22850   4.868  10.407  15.710 -0.0634  0.0321 -0.0474
 6003W        W22851  16.626  17.527  10.974 -0.1429 -0.0038 -0.0343
 6004W        W22852  11.098   7.693  15.374 -0.1632  0.1782  0.0548
 6005W        W22853   2.912   9.787   2.245  0.0075  0.0143 -0.0775
 6006W        W22854  17.364   4.349   1.766  0.0664  0.1245 -0.0566
 6007W        W22855   5.098  10.006  16.151  0.0717 -0.7403  0.0676
 6008W        W22856   8.289  13.540  13.693  0.2204 -0.1656 -0.2217
 6009W        W22857   2.824   0.800   4.812 -0.0289 -0.0022  0.1896
 6010W        W22858   0.523  11.019  16.330 -0.2944 -0.0656  0.1060
 6011W        W22859   1.435   2.364  13.178  0.0886  0.0812 -0.0991
 6012W        W22860   8.339   7.653  14.312  0.1518  0.0771 -0.1800
 6013W        W22861   5.759   2.559  11.669  0.0579  0.3156 -0.1129
 6014W        W22862   6.647   6.112   4.106  0.0340 -0.0272 -0.1811
 6015W        W22863   2.886  15.030   1.024 -0.1306 -0.1205 -0.0344
 6016W        W22864  17.614  16.074   1.605  0.1767  0.1873 -0.0117
 6017W        W22865  12.464   2.265  15.014 -0.3533  0.3716  0.1756
 6018W        W22866  17.703   4.145   3.061  0.1118 -0.0038 -0.0845
 6019W        W22867   5.170   0.259  14.659  0.0975 -0.2135  0.0450
 6020W        W22868   9.995  13.987  16.235  0.1638 -0.2141  0.1710
 6021W        W22869  16.539  12.737  11.219  0.0121 -0.0034  0.0411
 6022W        W22870   1.605   2.506   1.124  0.0367 -0.1571  0.3234
 6023W        W22871  17.689   8.339  14.362  0.0195  0.2809 -0.1775
 6024W        W22872   1.133   9.145   3.961 -0.1617 -0.1991  0.1196
 6025W        W22873  13.757   7.219  13.416  0.3095  0.0505  0.1945
 6026W        W22874  17.132  15.933   0.384  0.1353  0.1740  0.1214
 6027W        W22875   7.568  16.714  10.855  0.1188  0.0545 -0.2759
 6028W        W22876   5.068   6.624  16.056  0.0760  0.0361 -0.2113
 6029W        W22877  15.140  15.731  14.623  0.1018 -0.0356  0.0498
 6030W        W22878  11.315   4.419  16.414  0.0832 -0.0741  0.0750
 6031W        W22879  14.357  17.216  15.259  0.1722  0.1149  0.1235
 6032W        W22880   4.150  12.911  12.134  0.2297  0.0376 -0.1549
 6033W        W22881  12.179   3.751  12.036  0.0904 -0.0621 -0.1480
 6034W        W22882   6.376  12.621   4.712 -0.0331 -0.1106  0.2988
 6035W        W22883  15.960   3.817   2.814  0.2976 -0.1815  0.1878
 6036W        W22884  17.678   8.316  12.134  0.1953  0.0810  0.2705
 6037W        W22885   4.604  14.917  11.744 -0.1872  0.2506 -0.5422
 6038W        W22886   0.116   2.509   2.518 -0.2240  0.0486  0.0219
 6039W        W22887   7.578  10.088   4.947 -0.1496  0.1360 -0.0372
 6040W        W22888   0.694   2.411   0.778  0.3202 -0.0606  0.3362
 6041W        W22889   0.654   2.972  10.798  0.1115  0.0620  0.2643
 6042W        W22890  16.203  10.887  10.704  0.0856  0.2028 -0.1005
 6043W        W22891  10.046  14.720  15.449  0.0211 -0.0064 -0.1323
 6044W        W22892  11.214  13.041  10.930 -0.1259  0.0044 -0.2051
 6045W        W22893  16.069   1.403   2.425 -0.0842  0.0292 -0.0313
 6046W        W22894  17.762   9.528  14.854 -0.1728 -0.3608  0.0069
 6047W        W22895  14.561   6.863   0.650 -0.1083 -0.3304  0.0376
 6048W        W22896   4.817  16.507  13.505 -0.1499 -0.2219 -0.1162
 6049W        W22897  17.317   5.999  15.498  0.1526  0.1809  0.1997
 6050W        W22898  17.496   8.006  11.585  0.1635  0.0345  0.1635
 6051W        W22899  15.484   2.753  14.888 -0.3390  0.1140  0.2972
 6052W        W22900   6.929   1.013   0.233  0.2721  0.3468  0.2094
 6053W        W22901   5.860   2.973  13.712 -0.1174 -0.2331  0.0663
 6054W        W22902   8.267   4.941  12.746  0.2268 -0.0696 -0.1941
 6055W        W22903   7.589   1.343  12.107  0.0946  0.1003 -0.2595
 6056W        W22904   6.860   9.713  14.278 -0.2390  0.2859 -0.0252
 6057W        W22905  14.169   0.934   4.794 -0.0303 -0.0075  0.0177
 6058W        W22906   9.748   3.195  13.779  0.0154  0.1013  0.2313
 6059W        W22907   6.882  13.545  11.361  0.0752 -0.1167  0.2088
 6060W        W22908   8.650   1.405  14.165  0.3230  0.0941  0.1334
 6061W        W22909   2.102  16.272  13.877  0.0216  0.1606 -0.0457
 6062W        W22910   1.465   9.381   0.543  0.0492 -0.1750  0.2659
 6063W        W22911   1.362   9.973   3.360  0.0868  0.1609 -0.0618
 6064W        W22912   9.405  12.221   1.789 -0.3263 -0.1875  0.0574
 6065W        W22913   6.975   4.553   5.047  0.3957  0.2101  0.0137
 6066W        W22914   9.572  13.203   4.397  0.3415 -0.0031  0.0954
 6067W        W22915   1.067  17.549   6.236 -0.2090 -0.3908 -0.1470
 6068W        W22916   3.902  17.056  15.086 -0.1070 -0.1338 -0.0405
 6069W        W22917   9.559  13.765   4.574  0.0582 -0.2356 -0.1962
 6070W        W22918   6.184   2.539   3.690  0.2522  0.3624  0.3336
 6071W        W22919   6.789   2.215  14.171  0.4127 -0.0070  0.1530
 6072W        W22920  13.597  12.073   1.044  0.0002  0.2524  0.0791
 6073W        W22921   3.467  16.669  13.763 -0.2484 -0.0021  0.0232
 6074W        W22922   2.151   9.277   0.916  0.1847 -0.0195  0.4457
 6075W        W22923  15.497   9.302   0.351  0.0714  0.2109 -0.0417
 6076W        W22924   5.080  11.073  11.427  0.2195  0.2297  0.1397
 6077W        W22925   9.524   8.457   2.110  0.1551 -0.0668 -0.0919
 6078W        W22926  16.213  10.477  12.291 -0.1372 -0.1343  0.1593
 6079W        W22927   2.884  14.052   0.082  0.0553 -0.0454  0.1398
 6080W        W22928   7.203  14.101  12.532 -0.1339 -0.0815  0.2203
 6081W        W22929   5.683  11.007   2.694  0.0669  0.0436  0.1901
 6082W        W22930   9.904  11.232   4.783 -0.0654  0.1533 -0.0014
 6083W        W22931   2.400   1.328   2.327 -0.1248  0.0904 -0.0822
 6084W        W22932  12.694   4.288  13.136 -0.1470 -0.3050 -0.4318
 6085W        W22933   8.358  13.790   1.300  0.1928  0.1950 -0.1351
 6086W        W22934   9.229   2.468   2.267  0.1223 -0.2203 -0.3257
 6087W        W22935  14.469   4.380  11.829 -0.0850 -0.0182  0.1455
 6088W        W22936   1.608   9.252  15.182  0.0870 -0.0646 -0.2617
 6089W        W22937   7.791  17.334   0.995  0.1296  0.1517  0.1534
 6090W        W22938   9.372   4.923  14.602 -0.0101  0.0171 -0.1465
 6091W        W22939   3.892   0.035  13.848 -0.1809 -0.1752  0.0824
 6092W        W22940   3.950  10.141  16.021  0.1588  0.0107 -0.3383
 6093W        W22941  16.544  10.723   3.248 -0.3178 -0.0547  0.1369
 6094W        W22942   9.743  17.272  15.590 -0.1745 -0.0971 -0.3332
 6095W        W22943  12.413  10.090   1.410 -0.0813  0.0296 -0.3697
 6096W        W22944   7.602   1.983   4.993  0.3129 -0.0853 -0.4298
 6097W        W22945   6.322   5.041  13.115 -0.0433 -0.2671 -0.1745
 6098W        W22946  12.243   3.199   3.719  0.0305 -0.0751  0.1427
 6099W        W22947   9.678  12.307  14.018  0.0820 -0.2772  0.0042
 6100W        W22948   7.348  16.908  15.107  0.3510  0.0826 -0.4314
 6101W        W22949   8.829  10.947   0.430 -0.0258 -0.3801  0.1763
 6102W        W22950  16.705   8.328   5.136 -0.2672  0.0703 -0.1207
 6103W        W22951   0.223   2.744   3.868  0.1281  0.0514  0.2094
 6104W        W22952  17.852   6.993   2.085  0.1558 -0.1304  0.2839
 6105W        W22953   7.775  16.808  12.837 -0.1496  0.2685 -0.1270
 6106W        W22954  14.725   8.253   0.512  0.0109 -0.0961 -0.0793
 6107W        W22955  17.688  11.979  15.082  0.2885 -0.1314  0.1261
 6108W        W22956  11.691   1.172  12.727  0.4207  0.0260 -0.0432
 6109W        W22957  10.523  10.922   2.470 -0.3041  0.0226 -0.2949
 6110W        W22958   8.531  17.046   6.454  0.4100 -0.0625  0.0042
 6111W        W22959  16.291   9.122   3.905  0.2710  0.1403  0.1785
 6112W        W22960   3.963  14.948   1.241 -0.1476 -0.2470 -0.2148
 6113W        W22961   2.469  14.221  14.456  0.1876 -0.0848  0.1201
 6114W        W22962  16.892   8.154  12.563 -0.1392  0.1249  0.3373
 6115W        W22963   4.781  14.698  12.152  0.0336  0.4660 -0.0877
 6116W        W22964   8.553  16.028   2.015 -0.0160  0.3589 -0.2140
 6117W        W22965   8.122   0.834   0.191 -0.0369  0.0492  0.0169
 6118W        W22966   2.537  16.715   4.492  0.3156 -0.5716 -0.1189
 6119W        W22967   3.240  12.624  12.611 -0.0679 -0.1379 -0.3447
 6120W        W22968   4.515  13.015  14.907 -0.0752  0.4507  0.1928
 6121W        W22969   1.513   1.429  13.764 -0.1794  0.2679  0.0781
 6122W        W22970  11.062   7.582   0.752  0.1169  0.0916  0.0880
 6123W        W22971  13.627  16.052  12.829 -0.0383  0.2522 -0.0136
 6124W        W22972   4.595   1.410   5.509  0.1929 -0.0732  0.1761
 6125W        W22973  16.364   0.649  12.445 -0.0918  0.1407  0.2091
 6126W        W22974   3.828  12.012  16.235  0.0075 -0.0235 -0.5087
 6127W        W22975  16.701   9.803   5.111  0.5209  0.0177  0.2443
 6128W        W22976   7.472   2.879  14.683 -0.2208 -0.3534  0.0795
 6129W        W22977  11.451   6.397   0.183 -0.0996 -0.3405  0.2763
 6130W        W22978   5.777  12.282  12.689  0.1896 -0.0313  0.1239
 6131W        W22979  12.293  11.613  15.617 -0.2561 -0.0730 -0.1576
 6132W        W22980  14.149  17.336  16.185  0.1388 -0.0945  0.1486
 6133W        W22981   5.376  14.498  13.455 -0.0102 -0.1655 -0.3731
 6134W        W22982   4.774  12.309  15.989 -0.1049  0.2486  0.0637
 6135W        W22983  13.600   5.239  13.391  0.0225  0.4406 -0.1002
 6136W        W22984   9.325   4.780  13.557  0.1101  0.2307  0.1071
 6137W        W22985  10.582  15.523  15.791 -0.1146 -0.5520 -0.1137
 6138W        W22986  12.192  15.985   0.338 -0.0880 -0.1355  0.0220
 6139W        W22987  13.032  10.489   3.009  0.2338 -0.0530  0.4453
 6140W        W22988   9.340  10.237   0.275  0.2433  0.0873  0.0112
 6141W        W22989  16.315  10.689  11.621 -0.1401  0.0951 -0.0043
 6142W        W22990  15.162   5.964  13.347 -0.0032 -0.0301  0.0245
 6143W        W22991  11.316  16.293  13.686 -0.2643 -0.1515 -0.0816
 6144W        W22992  12.356  15.543  14.252 -0.0938 -0.1783 -0.3196
 6145W        W22993   1.860   0.572   3.427  0.0442  0.1103 -0.1941
 6146W        W22994  10.197  12.351  16.393  0.3289  0.0359 -0.0698
 6147W        W22995   8.394   1.034   5.112  0.1692  0.0837 -0.1788
 6148W        W22996   1.907   3.095   3.352  0.1920  0.0193 -0.3701
 6149W        W22997   0.736   6.320   3.196  0.1455  0.0182  0.1538
 6150W        W22998   5.247  12.585  12.783 -0.0287  0.2521 -0.0080
 6151W        W22999  16.615   5.969  10.579 -0.2066 -0.0210  0.3076
 6152W        W23000   0.145  17.867  16.421  0.1168 -0.1556  0.0648
 6153W        W23001   0.710   9.687  14.203 -0.2075 -0.0484 -0.2828
 6154W        W23002   5.653   0.657  16.008  0.2596 -0.2014  0.2504
 6155W        W23003   8.620   5.145   0.243 -0.0022 -0.0074 -0.0602
 6156W        W23004  16.705   2.112  12.328  0.0514 -0.1258 -0.1502
 6157W        W23005  14.245   8.579   1.767 -0.0860 -0.0185  0.2851
 6158W        W23006   0.504  15.618  13.129 -0.0012 -0.0754  0.1179
 6159W        W23007  16.274   3.542   4.044  0.0801  0.0085 -0.0207
 6160W        W23008   4.808  10.290   4.720 -0.1855  0.0730 -0.1753
 6161W        W23009   8.027  10.457  11.704 -0.0799 -0.2418  0.0721
 6162W        W23010   0.364  11.110   2.244 -0.1862  0.0397 -0.0915
 6163W        W23011   2.061   1.827   3.762 -0.2518 -0.0394  0.1696
 6164W        W23012  10.594   1.308   2.830 -0.1447 -0.2178 -0.1531
 6165W        W23013   4.963  14.268  13.140 -0.2761 -0.1867 -0.2436
 6166W        W23014   2.196   7.492   3.422  0.0913  0.0507  0.0848
 6167W        W23015  13.403  14.051   1.028  0.0445  0.0328 -0.1613
 6168W        W23016   7.696   0.231   4.831 -0.3029  0.1672  0.2005
 6169W        W23017   9.204   7.731   4.868 -0.0339 -0.0190  0.0708
 6170W        W23018  17.458   7.794   5.397  0.0751  0.0738  0.0638
 6171W        W23019   0.957  16.116   1.193  0.1410  0.0674  0.0535
 6172W        W23020   9.790  15.304   2.110 -0.4113 -0.0671 -0.1437
 6173W        W23021   3.287  12.108  11.410  0.1630 -0.0445 -0.0877
 6174W        W23022  11.931   4.678   3.115 -0.1061  0.2202  0.0051
 6175W        W23023   8.284   0.794  13.501 -0.0253 -0.0259 -0.2758
 6176W        W23024   4.450   0.911   5.222  0.1926  0.1561 -0.3216
 6177W        W23025   2.364   0.678  15.143  0.2147  0.0681  0.1983
 6178W        W23026   3.327  11.559  11.692  0.1550  0.2322  0.0469
 6179W        W23027   5.856   6.945   1.409 -0.1199 -0.1222  0.4274
 6180W        W23028  16.567   1.615  12.153 -0.1066 -0.3195 -0.0525
 6181W        W23029  12.544   8.106   4.051 -0.0999 -0.3428 -0.0785
 6182W        W23030   4.439  11.902   0.585 -0.0949 -0.0229  0.1331
 6183W        W23031   9.485   2.439  11.832  0.0754 -0.2228  0.2180
 6184W        W23032   2.310  16.325   2.889  0.1495 -0.2140 -0.1469
 6185W        W23033   6.931   2.691  15.746 -0.1031  0.0554  0.0182
 6186W        W23034   6.374   3.905   3.317 -0.1123 -0.1378 -0.0109
 6187W        W23035   9.218  17.756  16.418 -0.2584 -0.0206  0.0095
 6188W        W23036  13.375  17.355  16.129  0.0443  0.0721 -0.2454
 6189W        W23037  11.873  11.684   1.597 -0.0101  0.0884  0.0942
 6190W        W23038  17.392  16.997   2.115 -0.3039 -0.1200 -0.2460
 6191W        W23039   7.156   7.878   2.371 -0.2142  0.0825  0.3195
 6192W        W23040   9.251  13.652   5.366  0.3386 -0.0151 -0.1388
 6193W        W23041   9.792   5.939  16.055 -0.3952  0.1272 -0.1547
 6194W        W23042  15.578  16.620  15.217  0.0322 -0.0689  0.4543
 6195W        W23043   6.043   0.959  13.246  0.0663  0.1218  0.1926
 6196W        W23044   7.192   8.224  16.371  0.1587 -0.1952  0.1176
 6197W        W23045  13.280   0.777   0.223  0.0415 -0.3608 -0.2226
 6198W        W23046   7.950   1.822  12.916  0.1488 -0.3346 -0.6050
 6199W        W23047  16.565   9.657  12.742  0.0396  0.0021  0.2699
 6200W        W23048  11.869   3.581   5.699 -0.1023 -0.1830 -0.2049
 6201W        W23049   5.098  16.805  14.441  0.0426 -0.4029  0.2279
 6202W        W23050   4.740  17.846  14.707  0.0399 -0.3054  0.3349
 6203W        W23051   0.034   1.542  12.146  0.1073 -0.1839 -0.3370
 6204W        W23052  11.007  13.215  16.040  0.0977 -0.0094  0.1429
 6205W        W23053  14.403   3.686   5.424 -0.0702  0.0601  0.2316
 6206W        W23054  13.627  16.867  14.228  0.1387  0.3906 -0.0834
 6207W        W23055   4.130  13.911   4.172  0.1976 -0.0150  0.3342
 6208W        W23056  14.794  15.427  10.983 -0.0913 -0.1759 -0.3111
 6209W        W23057   6.883   3.018  12.170 -0.0344 -0.1419 -0.1921
 6210W        W23058   5.345   8.479   0.674 -0.0680  0.2728  0.0862
 6211W        W23059   1.867   6.343  13.595  0.1205  0.4462  0.2225
 6212W        W23060   9.997  16.670   2.243 -0.0263  0.1110 -0.2994
 6213W        W23061   1.660  10.756   0.758 -0.0472 -0.3079  0.0878
 6214W        W23062   9.530   4.174  12.894 -0.0536 -0.0208  0.0116
 6215W        W23063  14.244   3.857  12.790 -0.0129 -0.1444  0.0733
 6216W        W23064   1.229   3.713  14.994  0.1003  0.0430  0.0355
 6217W        W23065   3.178   0.958  16.070  0.1732 -0.0451 -0.0352
 6218W        W23066  15.005  15.759  11.364 -0.0308  0.1795  0.2483
 6219W        W23067  16.227  15.564   0.594  0.1323  0.1453 -0.2249
 6220W        W23068  10.518   6.786  16.073 -0.0141 -0.0267  0.1288
 6221W        W23069  16.584   0.210  15.437  0.0890  0.0545 -0.0301
 6222W        W23070   2.122   5.338  16.467  0.5128 -0.1476  0.0150
 6223W        W23071   7.718  14.844   5.429  0.0318 -0.3631 -0.2145
 6224W        W23072   8.212  11.735   5.500 -0.3184 -0.0790 -0.3925
 6225W        W23073   9.056  16.073  12.772  0.1005  0.0072  0.1148
 6226W        W23074  13.868  12.851  14.555 -0.0877 -0.1206 -0.0456
 6227W        W23075   7.913  16.622   3.385  0.0431  0.0579  0.3093
 6228W        W23076   6.832  12.971  13.015 -0.0815  0.1309  0.0599
 6229W        W23077  15.476   7.197  10.260  0.0825 -0.1340  0.1255
 6230W        W23078   8.224   8.635   1.439  0.3324 -0.0040  0.0482
 6231W        W23079  12.780   2.554  15.373  0.0844  0.1479 -0.1132
 6232W        W23080   2.638  12.032  15.920  0.0894 -0.1944 -0.1045
 6233W        W23081  12.529   7.489   2.336  0.2477 -0.0213  0.0615
 6234W        W23082   4.427   3.573   6.318  0.1545  0.1405  0.1114
 6235W        W23083   7.274  14.718  13.287 -0.1888 -0.0071 -0.0745
 6236W        W23084   9.519   0.804   3.693  0.3202 -0.0382 -0.1304
 6237W        W23085   2.539   8.940   0.969  0.0226  0.0865 -0.0093
 6238W        W23086   2.071  11.661   3.593 -0.0623 -0.3191  0.0052
 6239W        W23087   5.870   1.013  15.730  0.0681 -0.1608 -0.0466
 6240W        W23088   8.881   9.342   6.267  0.0276 -0.0105  0.1139
 6241W        W23089  11.170  10.676  15.307 -0.2062  0.1342  0.0510
 6242W        W23090   0.510   7.324  12.061 -0.2674 -0.0414  0.1478
 6243W        W23091   6.586  14.550   4.381 -0.3606  0.1913 -0.4229
 6244W        W23092   2.382   1.947   4.921 -0.1552  0.2243 -0.3020
 6245W        W23093   4.717  10.270   0.807  0.0655  0.2231  0.1549
 6246W        W23094   6.363   4.109  13.555  0.2197 -0.0428 -0.3384
 6247W        W23095  16.783   3.814   3.699 -0.2738  0.0260  0.0803
 6248W        W23096   4.733   0.076   2.714 -0.0947  0.2140  0.1295
 6249W        W23097  17.461  11.074   0.969 -0.0148 -0.1649  0.4180
 6250W        W23098  12.531  15.680   3.678  0.3529  0.0652  0.1000
 6251W        W23099  12.315   3.121  15.651  0.0773 -0.1514 -0.1770
 6252W        W23100  10.277  11.335   0.844 -0.1263 -0.2638  0.2015
 6253W        W23101   4.622  16.751  14.248  0.1441 -0.5098  0.0398
 6254W        W23102  12.943   8.082   3.172  0.2551 -0.1757 -0.0609
 6255W        W23103  10.541   3.229   1.956 -0.2073 -0.5190  0.1777
 6256W        W23104  17.544   5.707   3.988  0.1500  0.0684  0.1270
 6257W        W23105   0.040  16.266   2.001  0.1849 -0.0415 -0.0773
 6258W        W23106   8.886   0.834  11.858  0.3417  0.0189  0.0410
 6259W        W23107   1.274   1.338   3.330  0.1148 -0.0394 -0.3884
 6260W        W23108  12.088   9.133   0.148 -0.0518  0.1336 -0.2106
 6261W        W23109   9.134  14.718   0.640 -0.1932 -0.1403 -0.0722
 6262W        W23110  15.577   2.407  15.203  0.1580  0.2860 -0.0464
 6263W        W23111   2.095   6.997   1.026  0.0886  0.2532 -0.1437
 6264W        W23112   8.480   6.214  15.739 -0.2253  0.2613  0.1778
 6265W        W23113   6.580   1.436  12.592 -0.0810 -0.1950 -0.2156
 6266W        W23114   6.018   0.319   3.020  0.0074  0.1334  0.0552
 6267W        W23115   0.091   9.394  15.301  0.2034 -0.1023 -0.0093
 6268W        W23116   9.700   2.455  13.643 -0.1603  0.1605 -0.2004
 6269W        W23117   7.306  10.202   0.100 -0.0405 -0.0829  0.0967
 6270W        W23118  14.855   4.249  13.695 -0.0821 -0.0052 -0.0638
 6271W        W23119  14.004   3.463   4.301 -0.1015  0.2672  0.3279
 6272W        W23120   5.288  11.566  15.561  0.1859  0.1631  0.0091
 6273W        W23121   5.837  10.464  11.792  0.0463  0.0086 -0.1898
 6274W        W23122   4.066   8.639   5.009 -0.2539 -0.0670 -0.0968
 6275W        W23123   2.682   4.983  15.279 -0.1684 -0.2643  0.2289
 6276W        W23124   9.595   8.301   2.715 -0.1277 -0.2010  0.2171
 6277W        W23125   5.646  17.712   4.794 -0.0498 -0.0050 -0.0896
 6278W        W23126   6.809   3.015   6.232  0.2113 -0.1176  0.1374
 6279W        W23127  11.316  11.475  14.635  0.0141  0.1540 -0.3526
 6280W        W23128  10.828   5.992  16.267  0.0411 -0.2103 -0.1200
 6281W        W23129   2.198  10.031   2.799 -0.0995 -0.2834  0.2906
 6282W        W23130   1.340   1.026  12.723 -0.3518  0.0755 -0.0355
 6283W        W23131  10.571  16.567  11.241  0.0189  0.1875  0.1081
 6284W        W23132  15.933   7.465   0.366  0.0600  0.1321 -0.3479
 6285W        W23133   9.589   9.605  13.044 -0.1910  0.0355  0.0596
 6286W        W23134  10.249   0.074   5.148  0.2688 -0.3488  0.0503
 6287W        W23135   8.165   5.260  11.329  0.3314  0.1422  0.0244
 6288W        W23136  14.189   5.811  12.102 -0.0268 -0.0383  0.1191
 6289W        W23137   7.549  14.481   4.616 -0.1116 -0.1307 -0.1457
 6290W        W23138  14.312   4.749  14.409  0.3538 -0.3100  0.1003
 6291W        W23139   1.020  10.564   3.248  0.0945 -0.0066  0.1864
 6292W        W23140   7.295  15.010   5.147 -0.3449 -0.0726  0.2558
 6293W        W23141  13.669  10.587  13.442  0.1388  0.1379 -0.0145
 6294W        W23142  17.410  13.287   4.550  0.0883 -0.1826 -0.1279
 6295W        W23143  16.364   6.369   1.222  0.1773 -0.1177 -0.1354
 6296W        W23144   6.824  17.000  13.246 -0.1327 -0.3279 -0.2295
 6297W        W23145  15.284  16.184  13.814  0.1205  0.1427  0.2108
 6298W        W23146  12.728  10.894   1.772  0.1158 -0.3613  0.1527
 6299W        W23147   4.793   2.911  12.272  0.1392  0.1144  0.0194
 6300W        W23148   0.247   9.370   1.242  0.0745  0.0386 -0.0987
 6301W        W23149  10.336   9.673   2.241  0.3399 -0.0309 -0.2727
 6302W        W23150   6.728   8.880   2.352 -0.0550 -0.0939  0.1094
 6303W        W23151  16.202  16.055   0.747 -0.0519 -0.0443 -0.1586
 6304W        W23152   9.398   4.420   3.329 -0.1272 -0.2084 -0.0398
 6305W        W23153   6.275  14.525   3.033 -0.0126 -0.0375 -0.1347
 6306W        W23154   9.139   3.801  15.060  0.0703 -0.1063 -0.1587
 6307W        W23155   6.844   0.498  12.222  0.1368  0.0072 -0.0489
 6308W        W23156   5.466  10.200  13.674 -0.0763  0.0108  0.3428
 6309W        W23157  13.518   1.873   5.630  0.1579 -0.0439 -0.2492
 6310W        W23158  12.614   0.547  14.368  0.2027 -0.1402 -0.0040
 6311W        W23159   9.701   5.643   1.561  0.3941 -0.1926  0.0582
 6312W        W23160   7.033  11.587   1.663 -0.1200  0.1154  0.0816
 6313W        W23161  17.873   9.869   0.208 -0.2610  0.0727 -0.4445
 6314W        W23162  10.580  13.325   1.873 -0.0695 -0.0780  0.0225
 6315W        W23163   6.109   3.428   4.045 -0.0208  0.0524  0.0367
 6316W        W23164   9.656  12.893  14.433 -0.1685 -0.2308 -0.0874
 6317W        W23165   4.629   2.001  10.791  0.0172  0.1012  0.3348
 6318W        W23166   9.290  17.093   1.418  0.2716 -0.0622 -0.0267
 6319W        W23167   5.482   9.683   0.353 -0.2102  0.2804  0.2083
 6320W        W23168  12.250   9.505   3.985 -0.0109  0.0208  0.1237
 6321W        W23169  10.835   4.208  13.711  0.0505 -0.1622 -0.2361
 6322W        W23170   3.372  10.537  16.262  0.1185 -0.0690  0.1166
 6323W        W23171  14.937   3.853   3.666  0.2222  0.1594  0.2045
 6324W        W23172   2.615   8.679   2.625  0.1033 -0.2078  0.2287
 6325W        W23173  13.333  15.185   0.502  0.0406 -0.1558  0.0924
 6326W        W23174  11.365   8.468   1.725  0.0844 -0.1195 -0.1760
 6327W        W23175  10.435   3.780  14.717 -0.1233  0.0283  0.1367
 6328W        W23176   1.147   4.047  12.120  0.2115  0.0229 -0.1171
 6329W        W23177   9.611   1.231   4.510 -0.1370  0.0518 -0.0639
 6330W        W23178  15.114  11.186  16.074 -0.2773  0.0720 -0.4799
 6331W        W23179  10.953   0.698  14.913  0.2112 -0.0474  0.0293
 6332W        W23180  17.123   1.450  14.855 -0.3238  0.0715 -0.0329
 6333W        W23181  11.541   4.926  11.098 -0.2150 -0.2694  0.2248
 6334W        W23182   5.544  14.734   4.948  0.0313  0.1292 -0.0399
 6335W        W23183   9.406  14.165   2.749  0.1828 -0.0478 -0.0492
 6336W        W23184   6.984  12.017   4.155  0.1717 -0.3070 -0.1716
 6337W        W23185   0.428  12.107   4.469  0.1136  0.0063  0.2229
 6338W        W23186   5.068   8.912   0.897 -0.2081 -0.2146  0.1670
 6339W        W23187  16.709   9.347   3.828 -0.2081 -0.4269  0.2804
 6340W        W23188   0.933  11.135  16.032 -0.1255  0.0137 -0.0370
 6341W        W23189  17.672  12.969   2.695 -0.0419  0.0537  0.2264
 6342W        W23190  13.552  11.117   3.247  0.0531 -0.0841  0.2780
 6343W        W23191   5.087  12.622   0.854  0.1715  0.2069  0.1342
 6344W        W23192   6.526  13.457  16.044 -0.1462 -0.5043  0.1191
 6345W        W23193   8.697  17.299   5.232  0.1552  0.1871 -0.0614
 6346W        W23194  11.837  16.713  12.529  0.1946  0.0067 -0.0085
 6347W        W23195  16.911   3.985   4.147 -0.0216  0.0077  0.2749
 6348W        W23196   9.055  10.386   4.502 -0.0042 -0.2607 -0.0641
 6349W        W23197   1.118   9.442   2.019  0.0897 -0.0453  0.1434
 6350W        W23198   4.517   7.982   3.482 -0.0053 -0.2202  0.2672
 6351W        W23199  11.052  10.490  16.169 -0.0230  0.2295  0.4388
 6352W        W23200  14.384   2.842  14.186  0.2672  0.2850 -0.0414
 6353W        W23201  12.626   0.050  14.022 -0.0020  0.1156 -0.0050
 6354W        W23202  10.372  17.393   4.703  0.0380 -0.3545 -0.3039
 6355W        W23203   7.976   1.410   3.364  0.1587  0.1457 -0.1993
 6356W        W23204   1.941  11.212   1.461 -0.0563 -0.0572 -0.0330
 6357W        W23205  11.850   0.886   2.345 -0.2251 -0.0275 -0.1884
 6358W        W23206   0.989   5.739   1.922  0.4812 -0.0466 -0.2322
 6359W        W23207   7.393  16.501   3.415  0.0633 -0.3318  0.0261
 6360W        W23208  13.486  12.830   0.692 -0.2200 -0.4627  0.1130
 6361W        W23209   8.704   9.000   5.095 -0.4203 -0.2849  0.2090
 6362W        W23210  13.261   8.664   3.294 -0.1647 -0.1011  0.0123
 6363W        W23211   3.140   8.492  15.310 -0.1331  0.2802 -0.0086
 6364W        W23212  10.855   5.765  13.536  0.1106 -0.1479  0.0411
 6365W        W23213   0.291  16.193   0.220  0.1341  0.2487  0.1630
 6366W        W23214  15.118   7.398   0.437  0.0505  0.1774  0.2540
 6367W        W23215   0.337   9.897  14.042 -0.0767  0.0208  0.2405
 6368W        W23216   8.564   9.301   4.053  0.0455 -0.4273 -0.1519
 6369W        W23217   2.209   9.513   0.450 -0.1626 -0.3454 -0.0254
 6370W        W23218  16.383  11.128   1.022 -0.0190  0.0897  0.2653
 6371W        W23219  17.735   4.453  11.421  0.0062  0.0002 -0.2088
 6372W        W23220  13.919   5.472  11.713 -0.2300 -0.1709  0.0429
 6373W        W23221  13.499  11.550  13.564 -0.0728  0.1427  0.2079
 6374W        W23222  16.925   9.216  15.503 -0.0614 -0.1239  0.2046
 6375W        W23223   6.603  14.851  11.520  0.0759 -0.0367 -0.3128
 6376W        W23224   4.354   3.009  11.499  0.0411  0.0450 -0.1522
 6377W        W23225   4.090   1.090  14.845  0.1146 -0.1387  0.1899
 6378W        W23226   1.786   6.739   3.831 -0.1121 -0.1019  0.1797
 6379W        W23227  13.204   1.638  16.305 -0.3832  0.0675  0.0369
 6380W        W23228  14.604  15.883  15.852  0.2852 -0.1340 -0.2708
 6381W        W23229   3.943   2.032  10.195 -0.2344 -0.1643 -0.0881
 6382W        W23230   3.204  11.032   3.191 -0.0481 -0.0009  0.1143
 6383W        W23231   3.140   7.396  10.775 -0.0046 -0.0361  0.1327
 6384W        W23232  14.973   5.005  12.482  0.1125  0.1391 -0.2988
 6385W        W23233   0.087   6.378   4.829 -0.1591  0.0965 -0.2279
 6386W        W23234   9.562   8.418   3.225  0.1615  0.0746 -0.1503
 6387W        W23235   3.647   4.422  12.314  0.0104  0.3843 -0.2556
 6388W        W23236  13.832   9.805   5.340  0.1361  0.0843 -0.1806
 6389W        W23237  17.074   9.265   3.429 -0.0879 -0.0800  0.1213
 6390W        W23238  12.596  13.945  13.876  0.1894  0.1271 -0.2870
 6391W        W23239   5.312  11.239   0.836 -0.0440 -0.0562 -0.0610
 6392W        W23240   9.919   9.424   3.197 -0.2176  0.1365 -0.1358
 6393W        W23241   4.681   1.531  12.568  0.2830 -0.1156  0.1481
 6394W        W23242   3.954   9.433   1.730  0.2700  0.1915  0.1159
 6395W        W23243   7.605  12.840  15.762 -0.1998 -0.2313  0.0724
 6396W        W23244   7.732   8.497   2.778  0.2192 -0.0594 -0.1505
 6397W        W23245  17.114   3.047  16.473 -0.0378  0.3152 -0.0198
 6398W        W23246   3.051  17.252  15.512 -0.2321  0.0841  0.3918
 6399W        W23247  17.449  13.642  11.434  0.1789  0.1607  0.0483
 6400W        W23248   8.603   2.886   0.220  0.1800 -0.0254 -0.0610
 6401W        W23249   3.124   7.801   5.446 -0.3683  0.0610 -0.5265
 6402W        W23250  15.807  13.024  15.049 -0.0181 -0.0333 -0.0310
 6403W        W23251   3.547  17.271   1.683 -0.3357  0.0620  0.2442
 6404W        W23252  10.815  12.665  16.006  0.0557 -0.3709 -0.0803
 6405W        W23253   6.279   4.854   2.929 -0.2878  0.2550  0.0067
 6406W        W23254   3.443  16.458   3.683 -0.2412  0.0481  0.0695
 6407W        W23255  16.082   0.638   5.181 -0.0372  0.0502 -0.2545
 6408W        W23256   0.506  14.242  11.919  0.0442 -0.2256  0.1250
 6409W        W23257   4.567  12.489  14.630  0.2320  0.2162 -0.2464
 6410W        W23258   2.060   4.516  14.620 -0.0457 -0.0706 -0.0137
 6411W        W23259   3.426   3.356   0.086 -0.2465 -0.0635  0.0224
 6412W        W23260  16.472   2.718  14.138  0.0292 -0.0870  0.1708
 6413W        W23261  12.919  12.552  12.520 -0.0081 -0.0476  0.1482
 6414W        W23262  13.782   6.239   2.427  0.1582 -0.1856  0.1572
 6415W        W23263  13.562   6.539   1.986  0.1540  0.0261  0.0951
 6416W        W23264  16.914   1.528  14.319  0.2152 -0.0338 -0.0929
 6417W        W23265   8.207   1.955  11.152  0.0148 -0.1768  0.1122
 6418W        W23266   0.778  12.543  15.218  0.1249  0.0437 -0.0692
 6419W        W23267  17.666   3.043  11.790  0.1316 -0.0080  0.3356
 6420W        W23268  12.912  12.623  12.014 -0.2024  0.1351  0.0387
 6421W        W23269  12.598   7.144  10.897  0.1467  0.1332 -0.3507
 6422W        W23270  13.518  15.012  16.067 -0.2029 -0.2006  0.2467
 6423W        W23271   8.995  13.502   1.252  0.1496 -0.0484 -0.3771
 6424W        W23272  17.597  17.689  12.988  0.1652  0.2297 -0.1389
 6425W        W23273   8.076   4.700   4.320  0.1449  0.0205  0.2035
 6426W        W23274   1.505   1.762   3.014  0.2303  0.1166 -0.3129
 6427W        W23275  16.177   7.470   3.042  0.1869 -0.0557 -0.0923
 6428W        W23276   8.529   9.092   0.033  0.2674 -0.0240 -0.0430
 6429W        W23277   5.810   0.335   4.097  0.2544  0.2346  0.0961
 6430W        W23278  15.406   0.889  15.148  0.2509  0.2983 -0.0303
 6431W        W23279  12.910   0.386   3.490  0.0530 -0.0445  0.0988
 6432W        W23280   5.177  11.443   2.167  0.1024 -0.1660  0.1102
 6433W        W23281   9.311   7.080  13.140  0.1664  0.0307 -0.0627
 6434W        W23282  11.418   4.173   5.126 -0.3734  0.0462  0.0943
 6435W        W23283  17.564  10.488   3.716  0.2590 -0.0290  0.3329
 6436W        W23284   2.303  13.586   5.954  0.0862  0.0240 -0.1271
 6437W        W23285   4.161  11.432  13.858  0.2634  0.0339 -0.0820
 6438W        W23286  17.339   5.096   0.918  0.2518 -0.1061  0.0622
 6439W        W23287  15.696  12.920   3.680  0.0914 -0.1064  0.0105
 6440W        W23288  13.429   6.437   1.329  0.0033 -0.3110  0.2670
 6441W        W23289   4.895  11.873   2.415  0.4086  0.0284 -0.2598
 6442W        W23290   1.117  13.101  11.371  0.0602  0.0381  0.1100
 6443W        W23291   0.641  11.939   2.221 -0.1173 -0.2605 -0.3043
 6444W        W23292  13.334   8.542   4.351  0.0294 -0.0884  0.2458
 6445W        W23293   4.217   9.909  12.141 -0.0815 -0.1600  0.0361
 6446W        W23294  10.618  17.882   2.020  0.0993  0.0731 -0.1073
 6447W        W23295  14.245  14.610   4.348  0.0845 -0.0220  0.1973
 6448W        W23296  17.495   9.227   3.165 -0.0186  0.0109 -0.1176
 6449W        W23297  13.327   4.592   1.747  0.0139 -0.1102  0.0133
 6450W        W23298  12.563  16.613   0.644 -0.0342 -0.0602 -0.0407
 6451W        W23299  13.928   2.019  12.642  0.3199 -0.1077  0.1703
 6452W        W23300   9.485   9.428   1.665 -0.2092 -0.2364  0.0443
 6453W        W23301  14.766  10.511   0.670  0.1779 -0.0111  0.2902
 6454W        W23302  11.092   2.248   0.132  0.1046 -0.1615 -0.2036
 6455W        W23303  12.105   6.452  14.153  0.3076 -0.0535 -0.0634
 6456W        W23304   3.613   1.642  11.733  0.2983 -0.2140  0.1797
 6457W        W23305   3.016  10.815   4.929  0.1840  0.2167 -0.1365
 6458W        W23306   6.241  11.477  14.547 -0.2246 -0.1111 -0.2172
 6459W        W23307   5.456  13.426   0.279  0.0592 -0.0563 -0.0597
 6460W        W23308  16.200   4.645  11.729  0.0145 -0.2085  0.0354
 6461W        W23309  11.312  16.626   2.836 -0.1003  0.0916 -0.2141
 6462W        W23310   0.271  13.807  16.420  0.0794  0.0614 -0.0282
 6463W        W23311  10.202  15.272   0.114  0.1027  0.1259 -0.0422
 6464W        W23312   7.922  14.397   5.435  0.2243  0.0036 -0.1367
 6465W        W23313   7.571   2.298   2.881 -0.0158 -0.0362  0.0728
 6466W        W23314  16.879   4.554   0.534  0.0456 -0.2873  0.0382
 6467W        W23315  14.486  13.021   2.651 -0.3256 -0.1303 -0.3973
 6468W        W23316   8.468  11.558  12.246 -0.0124  0.1066 -0.1227
 6469W        W23317  11.522  15.893  14.262 -0.0107 -0.2738 -0.1232
 6470W        W23318  13.297   8.101  13.261  0.2102 -0.1211  0.1460
 6471W        W23319  10.400   7.219   4.603  0.0148 -0.0942 -0.2227
 6472W        W23320  11.955  10.300  11.448 -0.1249  0.4342  0.4509
 6473W        W23321   3.151  12.932   2.979  0.1874  0.0287 -0.3769
 6474W        W23322  17.107   6.613  14.236 -0.3277 -0.2466 -0.2462
 6475W        W23323  10.118   7.391  13.147 -0.2272  0.0569 -0.1704
 6476W        W23324  12.875   1.491   1.785  0.1928 -0.1449 -0.1607
 6477W        W23325  13.376  11.114  14.377 -0.0175 -0.3305  0.0142
 6478W        W23326  11.081  12.952  12.724 -0.3070  0.1834  0.0273
 6479W        W23327   5.189  10.860   1.561  0.0144  0.1740 -0.1726
 6480W        W23328   5.229   2.910  13.742  0.3150 -0.0520  0.2535
 6481W        W23329   4.084  11.805   5.311 -0.0441 -0.0292  0.1886
 6482W        W23330  10.712   4.378   3.082 -0.2589  0.1955  0.2364
 6483W        W23331  12.048   6.704  15.060  0.0447 -0.1872  0.0036
 6484W        W23332  13.682  15.837   0.457 -0.1643 -0.0735  0.0619
 6485W        W23333  10.539  13.662   0.589  0.0009 -0.0582 -0.1233
 6486W        W23334   9.786  17.464   0.108 -0.0418 -0.3616 -0.0682
 6487W        W23335  12.290   0.979   0.044 -0.1729  0.0570 -0.3096
 6488W        W23336   8.615   3.723   3.712 -0.2741 -0.2070 -0.1183
 6489W        W23337  10.987   5.723   1.435 -0.1161  0.0665 -0.2156
 6490W        W23338   0.950   2.523   4.081 -0.1621 -0.0045 -0.1237
 6491W        W23339  10.659   3.648  12.574  0.0909  0.2020  0.0203
 6492W        W23340  10.453   0.863   3.096 -0.2574  0.2521 -0.1579
 6493W        W23341   4.990   1.379   4.045 -0.0922 -0.0819  0.1330
 6494W        W23342   1.239  11.347   1.473  0.3513 -0.0987  0.0075
 6495W        W23343   8.987   2.043  11.281  0.1832 -0.2203  0.2189
 6496W        W23344   7.473  11.442  14.168  0.0842 -0.2067  0.1744
 6497W        W23345   7.755   6.802   0.868  0.0896  0.0122 -0.0945
 6498W        W23346   0.765   2.213  14.000 -0.0698 -0.1284 -0.3651
 6499W        W23347  10.914   6.240   2.236 -0.0268  0.1636 -0.1351
 6500W        W23348   4.376   3.210   4.416 -0.0970  0.1684  0.2729
 6501W        W23349  13.614   0.594  14.799  0.1940  0.2375  0.1019
 6502W        W23350   8.450   5.534   4.419 -0.3757 -0.2246 -0.2119
 6503W        W23351  10.055   3.659   2.447  0.0812 -0.1443 -0.2301
 6504W        W23352  12.271  10.116   1.908  0.2578  0.0626 -0.2835
 6505W        W23353   7.017   5.965   0.343  0.1149 -0.1733  0.0491
 6506W        W23354   9.433   9.207   2.944  0.1674 -0.0048  0.3105
 6507W        W23355   8.382   1.429   0.750 -0.3127  0.0393 -0.0435
 6508W        W23356   6.783  11.771  12.308 -0.1499  0.0124 -0.3020
 6509W        W23357   2.018  16.308   3.910  0.0719  0.5316 -0.1295
 6510W        W23358   7.762   1.950   5.983 -0.0303  0.1965  0.0813
 6511W        W23359  13.149   7.522   4.053  0.0075 -0.0558 -0.1387
 6512W        W23360   9.779   3.163   3.732 -0.0014  0.0957 -0.1316
 6513W        W23361  13.433   1.542   0.535 -0.1368 -0.0611 -0.0830
 6514W        W23362   6.375   7.769   0.910  0.2901 -0.4458 -0.0522
 6515W        W23363   2.434  16.875   5.056  0.1396  0.1500  0.0281
 6516W        W23364  14.401  10.181   1.029 -0.3948  0.1576 -0.0285
 6517W        W23365   4.752  14.617  15.688  0.1625 -0.0640 -0.1160
 6518W        W23366   8.403   1.756   2.722  0.2997 -0.2877 -0.0894
 6519W        W23367   2.914  14.951   1.709 -0.0463  0.0044 -0.1246
 6520W        W23368   6.734   6.652   4.065 -0.2187  0.0785 -0.0568
 6521W        W23369  10.084  12.740   2.422  0.2818 -0.0160  0.0121
 6522W        W23370  10.053  11.040   3.774 -0.1991  0.1738  0.0166
 6523W        W23371   3.471  15.748  12.012 -0.2293 -0.2687 -0.3489
 6524W        W23372   0.942   3.877  14.500  0.0676  0.0220 -0.0210
 6525W        W23373  11.432   0.084   2.840 -0.2264  0.0877 -0.0928
 6526W        W23374   7.381  14.871   4.256 -0.0438  0.1669  0.1572
 6527W        W23375   9.639  15.180  13.895 -0.0594 -0.0930 -0.1423
 6528W        W23376  12.361  11.072  11.166 -0.0678 -0.1593  0.1694
 6529W        W23377  13.417  15.301  13.126 -0.0446 -0.0170  0.1454
 6530W        W23378   7.160  17.508   0.884  0.0539 -0.0116 -0.0879
 6531W        W23379   1.919  14.183  15.105  0.2785 -0.3471 -0.1403
 6532W        W23380   6.463  14.014   5.257 -0.2637 -0.0977 -0.2558
 6533W        W23381  14.727  17.228   4.060 -0.1062 -0.0007 -0.1663
 6534W        W23382   9.555  16.160  14.347  0.2487 -0.3220  0.0339
 6535W        W23383  13.694   8.916   0.363  0.3071 -0.3436  0.0544
 6536W        W23384  14.374   2.463  11.527  0.0886  0.1593  0.1657
 6537W        W23385   8.090   9.320   3.877 -0.0084  0.0571 -0.0426
 6538W        W23386  13.278  12.098   1.664  0.4510 -0.0737  0.2246
 6539W        W23387  10.103   2.964   0.289 -0.0963 -0.1870 -0.2902
 6540W        W23388  12.142  15.766  15.083 -0.0609 -0.1652  0.0142
 6541W        W23389  12.135   5.878   6.404 -0.0983  0.2041 -0.3060
 6542W        W23390   1.086  17.508   2.779 -0.1315  0.0989 -0.2766
 6543W        W23391  14.760   5.238   3.552 -0.0491  0.0755  0.1161
 6544W        W23392   5.372   8.494   3.671  0.0498 -0.2657  0.0658
 6545W        W23393   4.475   5.102  12.666 -0.0286  0.2874 -0.1508
 6546W        W23394   7.388   0.282   2.966 -0.3015  0.2058 -0.0341
 6547W        W23395  16.257  13.542   3.084 -0.1550  0.0679  0.2095
 6548W        W23396   2.549   7.799  14.051 -0.0489  0.1658 -0.1779
 6549W        W23397   8.302   1.770  15.526 -0.0535  0.0526  0.0450
 6550W        W23398   3.211   4.466  11.890  0.0768  0.0888 -0.0750
 6551W        W23399   8.963  16.785  13.919 -0.2770 -0.1150  0.3597
 6552W        W23400   0.550   7.127   3.160  0.2161 -0.1296  0.1954
 6553W        W23401   2.565  17.642   1.661  0.0071 -0.0091 -0.1167
 6554W        W23402   1.977  15.634  13.204  0.1294 -0.1407  0.1819
 6555W        W23403   5.939  16.031   4.669 -0.1319  0.0741 -0.3241
 6556W        W23404  10.050  17.051   4.384  0.0583  0.0640 -0.0469
 6557W        W23405   3.628   4.748   5.227  0.4238  0.0672 -0.1749
 6558W        W23406   4.685  16.738   2.053 -0.2523  0.2338  0.1710
 6559W        W23407  12.346   6.636   2.287 -0.1358 -0.0785 -0.0381
 6560W        W23408   3.264   6.255  14.145  0.0051  0.0670  0.0463
 6561W        W23409  16.923  13.713  13.624  0.0142  0.3035  0.2973
 6562W        W23410  13.759  17.028   1.263  0.3023  0.2100  0.1005
 6563W        W23411   3.919   3.650   2.849 -0.0023  0.0195  0.2450
 6564W        W23412   0.113  16.063   2.937 -0.1798  0.1011  0.2513
 6565W        W23413  12.833   2.603  13.256  0.0975 -0.2912  0.4325
 6566W        W23414   9.258  16.372  14.821 -0.1225 -0.0105  0.2915
 6567W        W23415  14.137  10.300  16.305  0.0448  0.2972 -0.2263
 6568W        W23416  10.084  10.105   5.305 -0.0660 -0.0140 -0.3077
 6569W        W23417   3.706   8.394   3.210 -0.1354 -0.0243 -0.0233
 6570W        W23418  16.576   7.866   4.354  0.0696  0.0401  0.0316
 6571W        W23419   0.754  17.422  14.345  0.0739 -0.1366  0.0439
 6572W        W23420   0.729   5.361  11.827 -0.1043  0.1553  0.1999
 6573W        W23421   2.664   5.984   1.911  0.1281 -0.1941  0.3285
 6574W        W23422  10.881   8.869  15.525 -0.1804 -0.2331  0.0314
 6575W        W23423  16.358  11.815  11.117  0.3975  0.0372 -0.2012
 6576W        W23424  15.717  16.410   0.587 -0.2145 -0.2597  0.1040
 6577W        W23425   8.431  14.213  14.613  0.0128  0.4181 -0.0128
 6578W        W23426   3.855  13.417  13.625  0.2607 -0.0408  0.0308
 6579W        W23427   5.362   8.351  14.232 -0.1703  0.0856  0.1643
 6580W        W23428   2.853  16.044   1.110 -0.0157 -0.1421 -0.1362
 6581W        W23429   4.496  10.104  14.893 -0.0981 -0.2733 -0.0665
 6582W        W23430   6.661   7.074  15.838 -0.0542  0.2539  0.6864
 6583W        W23431  17.207   9.127   1.146 -0.0584 -0.1362 -0.0737
 6584W        W23432  16.469  17.620   3.497  0.0076  0.1962 -0.1410
 6585W        W23433   4.623   8.560  14.835 -0.0418 -0.0322  0.0290
 6586W        W23434   4.539   9.015   0.942 -0.3521  0.2373 -0.0685
 6587W        W23435   4.129  13.167  12.568 -0.3126  0.0448 -0.0823
 6588W        W23436   2.499   3.912  15.951  0.1234  0.2126  0.1954
 6589W        W23437   6.995  12.253  14.668  0.1884  0.1523  0.0034
 6590W        W23438   9.634   4.272  12.396 -0.4340 -0.0025  0.2686
 6591W        W23439  17.076  13.998  11.679  0.0561 -0.0172 -0.3076
 6592W        W23440  16.091   2.394  12.904 -0.1013  0.2077 -0.0376
 6593W        W23441   8.875   6.964  15.120 -0.1462  0.0822 -0.2893
 6594W        W23442  17.717   4.724   1.736  0.1475 -0.0354 -0.3258
 6595W        W23443   5.233  15.024  13.503  0.3213  0.2661  0.0451
 6596W        W23444   7.735   0.040  13.117  0.3017 -0.0797 -0.2128
 6597W        W23445   1.374   2.204  14.676  0.1181 -0.0708 -0.1975
 6598W        W23446   7.162   0.996   3.567  0.2388 -0.1374  0.1360
 6599W        W23447   5.714   6.672   5.180  0.1103 -0.2319 -0.1452
 6600W        W23448  10.355   4.059   2.360 -0.2086  0.1204 -0.2592
 6601W        W23449  13.850  17.285  12.263 -0.2689 -0.1245 -0.0988
 6602W        W23450   6.831  10.009  16.307 -0.0688  0.2536  0.0262
 6603W        W23451   1.607  10.546  15.912 -0.2046  0.4487 -0.3925
 6604W        W23452   1.522   1.343  14.578  0.0149  0.2623  0.0732
 6605W        W23453   1.123  11.603  11.748 -0.1881  0.1899  0.1152
 6606W        W23454   6.257  11.268   0.319 -0.1289  0.1168  0.0387
 6607W        W23455   1.813  12.430   2.015 -0.0136 -0.1946  0.1427
 6608W        W23456  13.989  11.418   3.469 -0.1338 -0.1091  0.0475
 6609W        W23457  13.448  14.035  11.660  0.0936 -0.0949  0.1363
 6610W        W23458  10.262   9.522   5.508 -0.0663  0.2457 -0.2409
 6611W        W23459  11.852   6.076   1.404 -0.1950 -0.0579  0.1898
 6612W        W23460   5.168  14.220  10.567  0.0677  0.4714 -0.0255
 6613W        W23461   4.309  12.246   1.880  0.1841 -0.4131 -0.0308
 6614W        W23462   7.128   2.235   0.896  0.1066  0.0263  0.1549
 6615W        W23463  11.270  16.585  14.292 -0.3357  0.3004 -0.1107
 6616W        W23464   6.834   3.136  15.209  0.0657  0.2262  0.1925
 6617W        W23465  12.546   8.909  14.100  0.1316  0.1832 -0.0174
 6618W        W23466   6.332   1.915   2.230 -0.0429 -0.1767 -0.1073
 6619W        W23467   2.374   2.404  13.396  0.1105  0.1037 -0.1247
 6620W        W23468   7.971  13.885   4.066 -0.0275 -0.3325 -0.1556
 6621W        W23469  13.297   4.504   3.261  0.3162  0.1991  0.1390
 6622W        W23470   8.631   1.871  14.724 -0.0257  0.1006  0.2295
 6623W        W23471   5.996   8.120   0.998 -0.1225 -0.1531 -0.1657
 6624W        W23472   2.358   8.725   3.239  0.1050 -0.3403 -0.1814
 6625W        W23473   5.819  16.171   5.810 -0.0802 -0.0264 -0.2876
 6626W        W23474  17.326   3.391   2.718 -0.1746  0.1698 -0.1095
 6627W        W23475   0.688   3.927   3.890 -0.1545  0.4084 -0.1188
 6628W        W23476   2.962   7.800   3.815  0.0856 -0.0431  0.0150
 6629W        W23477   5.982  10.824   3.285  0.0056  0.1403 -0.0326
 6630W        W23478   5.583   5.868  13.464 -0.2598 -0.1794  0.2472
 6631W        W23479  13.608  14.904  13.380 -0.2921  0.0935 -0.2056
 6632W        W23480   0.124   1.727   1.916  0.4341 -0.0356 -0.1110
 6633W        W23481   2.449  10.104   1.256  0.0584 -0.0031 -0.0965
 6634W        W23482  12.800   2.124   4.417  0.1552  0.1372  0.6506
 6635W        W23483   4.823   3.712  15.681  0.2613 -0.0186  0.2665
 6636W        W23484   2.452   3.980  12.263 -0.1714  0.0797  0.0052
 6637W        W23485  15.298  17.881   0.867  0.4298 -0.0945 -0.0874
 6638W        W23486   7.388  12.845  14.166  0.2794 -0.1130  0.0027
 6639W        W23487  13.373   8.663  12.010  0.1047  0.4455 -0.0570
 6640W        W23488   4.588   9.573  15.663  0.3593  0.2056  0.2950
 6641W        W23489  14.369   0.544   2.287 -0.1737  0.1124 -0.1162
 6642W        W23490  17.744  10.547  11.776 -0.0796 -0.0934 -0.0905
 6643W        W23491   7.003  10.496   2.231 -0.0145  0.0397 -0.3774
 6644W        W23492  11.887  16.327   4.240 -0.0323 -0.0946  0.0707
 6645W        W23493   2.283   8.086   1.127  0.2672  0.2262  0.0593
 6646W        W23494  12.576   8.152  15.430 -0.0293  0.2318 -0.3905
 6647W        W23495   3.987   8.437   4.081 -0.3930  0.2156  0.1172
 6648W        W23496   5.298   8.652  13.678  0.1928 -0.1144  0.2815
 6649W        W23497   3.322  16.618  12.185 -0.3450 -0.3731 -0.0991
 6650W        W23498   3.996   1.051   3.351  0.1314 -0.1310 -0.1297
 6651W        W23499  13.020   0.620   0.685 -0.1939 -0.0921  0.0911
 6652W        W23500   9.868   6.363   0.993  0.0098 -0.0255 -0.3258
 6653W        W23501   2.845  12.441  12.374  0.1231  0.1395 -0.1014
 6654W        W23502  14.810   5.609   3.192 -0.2825  0.1070 -0.4164
 6655W        W23503  10.250  10.534   0.445 -0.0799  0.0992  0.1841
 6656W        W23504  13.357   2.246  11.444 -0.0066 -0.1591 -0.0584
 6657W        W23505   3.348   1.930   0.055 -0.0077  0.1960 -0.0235
 6658W        W23506  12.585  11.391  14.864  0.0182  0.1906  0.2648
 6659W        W23507  13.095  15.802  12.104  0.0106  0.3770  0.1412
 6660W        W23508   4.864   8.676  11.046  0.2523 -0.2305 -0.4326
 6661W        W23509  14.920  17.609   0.557 -0.0121  0.0720  0.0657
 6662W        W23510   9.117  16.273   2.067 -0.1139  0.1322 -0.2006
 6663W        W23511  12.899   5.145   0.704  0.0695 -0.2680 -0.1478
 6664W        W23512   3.260  10.793   3.757 -0.1979 -0.0632 -0.0969
 6665W        W23513   9.533  11.062  11.706  0.0351 -0.1448 -0.0104
 6666W        W23514   9.963   8.282   2.404 -0.1103 -0.2978  0.1440
 6667W        W23515   0.348   8.984   0.940 -0.0833  0.4062 -0.2352
 6668W        W23516  10.306   3.308  12.705  0.1237  0.0995  0.0697
 6669W        W23517   9.505   7.475  14.069 -0.1685 -0.0345  0.0428
 6670W        W23518   3.265  12.266   0.768 -0.0761  0.1196 -0.1799
 6671W        W23519   0.268   6.780   4.570 -0.1955 -0.0512  0.0418
 6672W        W23520   4.722   4.076  10.825  0.1378  0.4368 -0.1168
 6673W        W23521   6.177   7.265   5.702 -0.3048 -0.1389 -0.3235
 6674W        W23522   6.159  10.545  15.116 -0.0914 -0.0515 -0.2290
 6675W        W23523   9.506  16.364   2.887 -0.1206  0.2109 -0.1966
 6676W        W23524  10.946   8.523   4.680 -0.1578  0.5552 -0.5445
 6677W        W23525   8.565   4.177  14.776  0.1240  0.1491  0.1138
 6678W        W23526   4.279   3.976   1.059  0.0630  0.1030 -0.1139
 6679W        W23527  17.387   7.310   3.065 -0.2859  0.0274 -0.0545
 6680W        W23528   5.453   5.076  14.315 -0.1190 -0.1313  0.0420
 6681W        W23529  14.432   3.977  15.795 -0.2069  0.2028  0.0616
 6682W        W23530   4.364  17.092   2.087  0.1796 -0.0407  0.0054
 6683W        W23531   4.192   0.894  12.154  0.1548  0.0569  0.0494
 6684W        W23532   0.520  14.150   0.906 -0.0831 -0.2920  0.0530
 6685W        W23533   6.126  14.057  11.121 -0.2747 -0.3102 -0.0492
 6686W        W23534  13.016  14.880   4.502  0.0343  0.1022  0.3758
 6687W        W23535  10.887  15.698   1.645 -0.1470  0.0161 -0.1881
 6688W        W23536  10.502   5.922   4.681 -0.3749  0.3779  0.0708
 6689W        W23537  11.883   7.656   4.421  0.1163  0.1054  0.0068
 6690W        W23538  12.354   6.939   4.818  0.1445 -0.1639  0.0150
 6691W        W23539  15.123   2.231   2.146 -0.0992  0.2103 -0.0215
 6692W        W23540   1.504   7.215  13.851  0.1730 -0.6599 -0.0880
 6693W        W23541  15.787   4.881   2.551  0.0842  0.0303 -0.1652
 6694W        W23542   1.395   1.414  15.654  0.3539 -0.0220  0.0667
 6695W        W23543  14.051   3.359   5.285 -0.2187  0.1413 -0.3019
 6696W        W23544  17.464  17.675   0.056 -0.0771  0.0512  0.0034
 6697W        W23545   4.408   3.747   0.046 -0.1156  0.1336 -0.0024
 6698W        W23546  13.044  12.702   2.876  0.0872 -0.4576  0.2124
 6699W        W23547   9.303   1.016   4.117 -0.2574 -0.0584 -0.4794
 6700W        W23548  16.296  16.709   4.858 -0.1269  0.0780 -0.0940
 6701W        W23549   4.206   9.702   3.389 -0.0178 -0.0742  0.0718
 6702W        W23550   2.263   6.412   0.736  0.1210  0.2299  0.0569
 6703W        W23551  13.584   8.029  12.842  0.0587 -0.0860 -0.0833
 6704W        W23552  16.293  14.888  12.846  0.2221  0.1869 -0.0434
 6705W        W23553   3.921   8.921   4.454  0.1927  0.3214 -0.1440
 6706W        W23554  11.659   6.012   0.475 -0.0687  0.2682 -0.1469
 6707W        W23555   9.036   8.974  14.618  0.1697 -0.1307  0.0756
 6708W        W23556  16.523   1.793  11.655  0.0376  0.0358 -0.0903
 6709W        W23557   8.950   0.656  13.552 -0.2014  0.2046  0.1507
 6710W        W23558   8.838  11.110  13.654 -0.0908 -0.4244  0.1377
 6711W        W23559   8.453   1.159   1.223 -0.1878 -0.2717 -0.4269
 6712W        W23560  12.899   0.618  11.485  0.1658  0.0840  0.0866
 6713W        W23561   4.777   3.153   2.495 -0.1494  0.1669 -0.0509
 6714W        W23562  15.041   5.633   0.928 -0.1095  0.2920 -0.0568
 6715W        W23563  11.354  11.463  13.786 -0.0038 -0.2112  0.1411
 6716W        W23564  12.605  10.673  15.721 -0.2658 -0.0931  0.2843
 6717W        W23565  11.454   5.198   1.344  0.0256 -0.1734 -0.0477
 6718W        W23566  15.001   0.127   1.496 -0.0190 -0.0792 -0.0202
 6719W        W23567  17.689   2.014   4.719 -0.0013  0.1504 -0.0534
 6720W        W23568   7.498   7.841  16.070 -0.1635 -0.0300  0.2030
 6721W        W23569  17.107   2.063  16.352 -0.0102  0.0371 -0.1955
 6722W        W23570   0.885   1.838  12.510 -0.0717 -0.0995  0.0489
 6723W        W23571   3.225   1.559   1.748  0.1424  0.0823 -0.2557
 6724W        W23572   9.098   4.790  15.113  0.4493  0.0402  0.3556
 6725W        W23573   6.342  16.670   4.809 -0.0272 -0.2186  0.2623
 6726W        W23574   1.176  14.289  15.065 -0.1536 -0.2096  0.1804
 6727W        W23575  12.563  12.288  16.453 -0.0460  0.0833  0.0871
 6728W        W23576   4.923   8.616   0.077  0.1493  0.4272 -0.0777
 6729W        W23577   1.788  16.063   0.962 -0.1177 -0.0342  0.0083
 6730W        W23578   8.282   2.037   2.285  0.2616  0.1298  0.3636
 6731W        W23579  14.503   0.777  14.697  0.1434  0.0619 -0.0311
 6732W        W23580   3.561   8.140   1.802 -0.2160 -0.0317  0.1902
 6733W        W23581  10.004   3.991  13.263 -0.1613 -0.0223 -0.0070
 6734W        W23582  13.825   0.424   2.308 -0.1404  0.0477 -0.2686
 6735W        W23583   3.287  15.295  14.376  0.1244 -0.0535  0.0902
 6736W        W23584   7.897   2.256   5.222  0.1730 -0.0729 -0.0582
 6737W        W23585   7.817   2.856  12.156 -0.0318  0.0254 -0.1763
 6738W        W23586   0.574  12.459   4.816  0.1228 -0.2934 -0.0503
 6739W        W23587   7.503   0.044  14.618  0.0450  0.2316  0.1926
 6740W        W23588   3.718   2.112   1.270  0.1183 -0.0945  0.0713
 6741W        W23589  14.469   0.344   3.163 -0.0532 -0.1570  0.2533
 6742W        W23590  12.264   9.820  13.808  0.2202  0.1210  0.2057
 6743W        W23591   3.048   2.279  11.697 -0.1589  0.1078 -0.0843
 6744W        W23592   9.398  11.204   1.059 -0.0332  0.0726 -0.1338
 6745W        W23593   8.121  16.473   3.813  0.1137  0.1697  0.1708
 6746W        W23594  17.319   2.074   0.726  0.0576 -0.1304  0.0646
 6747W        W23595  10.041  17.326  11.914 -0.0492 -0.0134  0.0611
 6748W        W23596  16.743   9.891  11.920  0.0839 -0.0698 -0.1701
 6749W        W23597  14.126   7.307  11.691  0.0839 -0.0571  0.0963
 6750W        W23598   9.271  17.264   0.060  0.1720 -0.1370  0.2380
 6751W        W23599  17.854  10.937  11.260  0.0478 -0.1177 -0.2874
 6752W        W23600  17.359   1.730  14.336  0.0972 -0.0194  0.0274
 6753W        W23601  11.729   5.181  14.977  0.0680  0.0900 -0.0177
 6754W        W23602  14.757   5.296  13.466  0.0044 -0.6530  0.0907
 6755W        W23603  15.474   4.796  15.264  0.0699  0.3091  0.1881
 6756W        W23604   7.642  16.604  13.302  0.2321 -0.0249 -0.0850
 6757W        W23605  15.505  12.643  15.152  0.3309 -0.2105 -0.0534
 6758W        W23606   2.507   3.504   3.919 -0.1520  0.0024 -0.0783
 6759W        W23607  12.501  14.433  13.677  0.4706 -0.1893  0.0423
 6760W        W23608   3.270   7.306   5.410 -0.0219 -0.2110  0.2626
 6761W        W23609   2.914  11.851   0.616  0.0167 -0.0514 -0.0390
 6762W        W23610   9.492  17.805  13.599  0.1428  0.3091  0.1183
 6763W        W23611   7.591   8.069  12.282  0.2116 -0.3318  0.2587
 6764W        W23612   5.354  16.378  14.306 -0.0916 -0.1145 -0.1067
 6765W        W23613  12.103  11.334  14.661 -0.1246  0.1089 -0.2390
 6766W        W23614  14.808   2.675  12.598 -0.1012 -0.0431 -0.0850
 6767W        W23615   0.927  16.506   1.524 -0.1273  0.0017 -0.0722
 6768W        W23616   5.501   8.032   0.941 -0.0868  0.0065 -0.1012
 6769W        W23617  14.348  15.754  15.431 -0.1796 -0.0564 -0.0394
 6770W        W23618   2.045   3.564   0.199 -0.0421  0.0988 -0.1275
 6771W        W23619  11.117  15.493  10.455  0.0273 -0.0028 -0.3458
 6772W        W23620   6.584  13.211   1.420 -0.2183 -0.0552  0.2229
 6773W        W23621  10.814   7.403  15.726  0.1489  0.0171  0.1014
 6774W        W23622   6.908   8.699   2.852 -0.0569 -0.1554  0.1935
 6775W        W23623   3.315   6.446  16.430  0.0167 -0.3294 -0.0270
 6776W        W23624  12.503  13.689  13.011 -0.1043 -0.3667 -0.1600
 6777W        W23625   7.977   4.631  14.330  0.3188  0.0601  0.2884
 6778W        W23626   6.098  11.234   1.560  0.0007 -0.0360 -0.1844
 6779W        W23627   7.928  12.838  10.640  0.0143  0.2053  0.0670
 6780W        W23628   1.357   3.154  12.372  0.1267  0.1099  0.2413
 6781W        W23629   7.520   5.997   0.399  0.0778  0.2430  0.0084
 6782W        W23630   8.256   0.144  13.054  0.0933  0.2904 -0.0189
 6783W        W23631   5.745  14.214   5.018  0.0814  0.0315  0.3320
 6784W        W23632  13.836  11.365  14.187  0.2149  0.0684  0.1922
 6785W        W23633   6.230   8.308   1.472 -0.0534 -0.2774 -0.0403
 6786W        W23634   5.748   7.846  16.455  0.0357  0.0725  0.2140
 6787W        W23635  14.657   2.081  11.487  0.0014  0.0125 -0.0098
 6788W        W23636  10.668   7.149  11.153 -0.1638  0.0549 -0.0378
 6789W        W23637   8.419   1.986  12.634  0.4006  0.2304 -0.0914
 6790W        W23638  14.608   1.036   3.540 -0.0364 -0.0583 -0.0513
 6791W        W23639   2.000  15.969  15.682 -0.2741 -0.0144 -0.3473
 6792W        W23640  12.752  15.288  13.355 -0.1709  0.0464  0.2433
 6793W        W23641   9.539   6.944   3.714 -0.2338 -0.0132  0.2552
 6794W        W23642   4.952   3.202  15.450  0.3211 -0.0859  0.2997
 6795W        W23643  11.423   6.513   4.717 -0.1809  0.0024  0.2763
 6796W        W23644   9.925  11.248   5.374  0.0714 -0.0022  0.3216
 6797W        W23645   4.506  17.830   1.643 -0.1817 -0.0435  0.2001
 6798W        W23646   0.153  11.505   5.683 -0.1864  0.1382  0.0561
 6799W        W23647  11.435   7.302   0.712 -0.1042  0.2095 -0.1321
 6800W        W23648   8.264   4.428  12.467 -0.0489 -0.1674  0.1452
 6801W        W23649  12.615  15.786  11.650 -0.1737 -0.2844 -0.3655
 6802W        W23650   4.189  14.983  16.400  0.0450  0.0934 -0.2066
 6803W        W23651   5.571  13.871  12.798  0.1693  0.0040 -0.3629
 6804W        W23652  15.661  10.698  12.448 -0.1605  0.1776 -0.1462
 6805W        W23653   3.709   8.358  11.763 -0.2156  0.3152 -0.0550
 6806W        W23654   7.303  10.064   3.979 -0.1673  0.0488 -0.2629
 6807W        W23655  16.490  12.799  14.840  0.2830 -0.1639  0.1532
 6808W        W23656  13.635  14.343   2.725 -0.1261 -0.1372  0.1431
 6809W        W23657   5.610  17.076   5.447 -0.0808 -0.0571 -0.0321
 6810W        W23658  14.628   4.540  14.052  0.0279 -0.0301  0.0147
 6811W        W23659   4.968   0.069  16.016  0.2270 -0.2586  0.1157
 6812W        W23660  11.767  12.308  13.847  0.0699  0.3613  0.0738
 6813W        W23661  16.218   6.133  11.144  0.0229 -0.0991  0.3357
 6814W        W23662   2.625   4.716  12.950 -0.1372  0.1234  0.1549
 6815W        W23663   9.477  10.229  14.368  0.1350 -0.2254  0.3380
 6816W        W23664   1.444   0.970  10.959  0.0606 -0.0420  0.4143
 6817W        W23665  13.336  11.201  12.143 -0.0156  0.0498  0.0094
 6818W        W23666  15.377  12.789  14.169 -0.1871  0.0184 -0.0368
 6819W        W23667   4.993   6.164   1.984  0.0468 -0.0420  0.1297
 6820W        W23668  13.220  11.413   3.502 -0.0587  0.1544  0.1717
 6821W        W23669   2.281   4.900  16.341 -0.0260  0.2179 -0.1048
 6822W        W23670  15.919  17.360  12.736 -0.1847  0.0963  0.0442
 6823W        W23671   0.861  12.314   4.374  0.0533 -0.1623 -0.0593
 6824W        W23672   8.491  16.923   3.527  0.2166 -0.1517 -0.3802
 6825W        W23673   9.132   0.654  11.429 -0.0019  0.1339 -0.1478
 6826W        W23674  16.243  16.716  16.182 -0.2524  0.2206  0.0810
 6827W        W23675   5.056  14.756  11.659 -0.0259  0.0316  0.2502
 6828W        W23676  15.160  12.724   2.700 -0.3625 -0.3855  0.1760
 6829W        W23677  17.495  16.855   3.460  0.2358 -0.0167 -0.2296
 6830W        W23678   0.133  14.353  12.421  0.0889  0.2428  0.0788
 6831W        W23679   7.747  16.468   5.039  0.1078 -0.2286  0.3685
 6832W        W23680  14.832   7.614   4.259  0.0194  0.0445 -0.4208
 6833W        W23681   0.838  14.662   4.019  0.2130 -0.0476  0.0171
 6834W        W23682   2.743  11.215   0.010  0.1666  0.0879 -0.3518
 6835W        W23683   8.537  12.173   4.988 -0.0474 -0.2909 -0.1435
 6836W        W23684   2.935  16.768  15.234  0.0609  0.1191  0.4006
 6837W        W23685   9.433  15.831   1.990  0.0760 -0.1856  0.0004
 6838W        W23686   0.818   6.755  13.137  0.2571 -0.0223 -0.1927
 6839W        W23687  10.920  14.087  12.220  0.1009 -0.0431 -0.0961
 6840W        W23688  17.341  15.804  11.015 -0.1379 -0.3142 -0.0189
 6841W        W23689  10.110   6.326  15.097 -0.3264 -0.3434 -0.0113
 6842W        W23690   2.113   8.946  12.272  0.3891 -0.0571  0.2361
 6843W        W23691   3.421   7.562   1.294  0.1476  0.0041 -0.2204
 6844W        W23692  12.068   4.036   4.573  0.2547 -0.2559 -0.2652
 6845W        W23693  14.229   7.092   4.690 -0.3407  0.2947  0.0026
 6846W        W23694   1.030   6.368  11.648 -0.0733  0.1182  0.0042
 6847W        W23695  10.277   6.194   0.378  0.0775 -0.0830  0.1544
 6848W        W23696   2.817  15.357   6.038 -0.3126 -0.0948 -0.1341
 6849W        W23697  14.439  16.088   3.245  0.1419 -0.0319  0.0445
 6850W        W23698   2.929  13.357   3.169 -0.0967 -0.0848  0.0750
 6851W        W23699   1.810   1.998  15.750 -0.0895 -0.0874 -0.1033
 6852W        W23700   6.382  14.830  13.138 -0.3770 -0.0363  0.0201
 6853W        W23701   4.133   2.271   4.763 -0.0366  0.5736 -0.0420
 6854W        W23702  17.438   2.115  12.885 -0.2610  0.1626 -0.1051
 6855W        W23703   0.378  12.821   3.876 -0.0351  0.3062  0.1584
 6856W        W23704  11.178  13.188   4.051 -0.0459 -0.1500  0.1889
 6857W        W23705  14.762  12.153  16.043  0.0673  0.0121  0.1950
 6858W        W23706   4.340   8.389   3.195  0.0908  0.1698 -0.2209
 6859W        W23707  14.082   6.406   4.934  0.0991  0.2582 -0.0542
 6860W        W23708  15.439  10.406   3.967 -0.2710  0.0236 -0.0083
 6861W        W23709   6.360  13.814   2.078 -0.2718 -0.1890 -0.1258
 6862W        W23710   2.100   4.887   3.730 -0.1169 -0.0873 -0.0942
 6863W        W23711  10.695   4.848   2.180  0.1997 -0.0322  0.0173
 6864W        W23712   1.049   0.980  15.581  0.3897  0.0148 -0.1073
 6865W        W23713   4.773  11.860  11.534  0.1519 -0.0451 -0.1422
 6866W        W23714  13.710   2.334  14.393  0.1089  0.0947 -0.0677
 6867W        W23715   5.559   2.761   2.765 -0.1294  0.1450 -0.0368
 6868W        W23716  12.029  14.674   1.604  0.0398 -0.0729 -0.0320
 6869W        W23717   6.409  14.011  12.459  0.2138 -0.1192 -0.0921
 6870W        W23718  17.665   9.619   4.805  0.0756  0.2211 -0.0943
 6871W        W23719   1.889   4.957   2.736 -0.1823 -0.0077 -0.2186
 6872W        W23720   5.622   3.890  12.144  0.0035 -0.0382  0.0976
 6873W        W23721   0.906  11.624  15.898 -0.1384 -0.3599 -0.1664
 6874W        W23722  17.757   1.924  12.433 -0.0920 -0.2176  0.1550
 6875W        W23723   1.363   9.523   2.948 -0.2779  0.2908  0.0787
 6876W        W23724  10.632   1.867   2.803  0.0715  0.4948  0.1732
 6877W        W23725   1.270   2.609  11.844 -0.0783 -0.3162  0.0483
 6878W        W23726   1.410  17.806  13.313  0.2118 -0.0102  0.2135
 6879W        W23727  15.189  13.041   3.588 -0.1015  0.2775  0.1522
 6880W        W23728  17.693   7.723   3.955  0.0059  0.1505 -0.0143
 6881W        W23729   1.017  15.092   0.504  0.0623 -0.2075  0.0228
 6882W        W23730   8.411   9.641  12.342 -0.0308 -0.0276  0.1444
 6883W        W23731  11.670  13.524   2.845  0.0780  0.3631  0.2358
 6884W        W23732   2.504   9.459   5.301 -0.0629  0.2960  0.3322
 6885W        W23733   2.865   8.788   3.044 -0.2874 -0.1519  0.0113
 6886W        W23734  13.498  10.162   1.036 -0.1612  0.0924  0.2749
 6887W        W23735   6.992   8.282   3.246 -0.2201  0.0227 -0.2540
 6888W        W23736  15.197   6.556  14.958  0.0302  0.3708  0.1336
 6889W        W23737  15.693   7.508  14.871  0.4195  0.3028 -0.1386
 6890W        W23738  11.411  12.786  15.147 -0.0909 -0.0025  0.1132
 6891W        W23739   5.544  14.043  12.300 -0.1514 -0.0598 -0.2288
 6892W        W23740   0.374  17.532   4.646 -0.0310  0.1337  0.0833
 6893W        W23741  11.708   0.471   4.514 -0.1475 -0.1760  0.1044
 6894W        W23742  10.088   6.524   2.405 -0.0666 -0.1071  0.2622
 6895W        W23743   1.041  15.057  11.066 -0.0384 -0.2410  0.1878
 6896W        W23744   7.994  12.201   1.216 -0.4305 -0.0207 -0.2216
 6897W        W23745   1.128   6.437  12.867  0.0717 -0.1207 -0.2698
 6898W        W23746   0.336  17.392   1.608  0.1189 -0.2541  0.1153
 6899W        W23747   6.083  15.029  13.423 -0.2628 -0.2079  0.0457
 6900W        W23748   6.050  16.029   3.375  0.0945  0.0411 -0.0699
 6901W        W23749  12.468  15.060  13.029 -0.0309 -0.1919  0.3349
 6902W        W23750   8.764  13.488  13.545 -0.0543 -0.0104  0.2695
 6903W        W23751  12.580  13.982  11.511  0.1663 -0.0893  0.1844
 6904W        W23752  16.321   8.399   4.115  0.0322  0.3568  0.5583
 6905W        W23753  11.109  17.490   4.952  0.0356 -0.0812 -0.2561
 6906W        W23754   5.321   5.979  13.855  0.1761  0.1607 -0.1244
 6907W        W23755   3.617   9.199  15.570 -0.0591  0.2628 -0.1802
 6908W        W23756   8.590   1.780  11.380 -0.0988 -0.0503 -0.0302
 6909W        W23757  15.598   7.502   3.705 -0.3653 -0.1605 -0.0825
 6910W        W23758   7.702  16.513   4.203 -0.1740  0.0871  0.1322
 6911W        W23759   2.985   3.910   0.720 -0.0912 -0.0456  0.0378
 6912W        W23760   8.605  17.836   3.209 -0.1104  0.1446 -0.0893
 6913W        W23761   7.181  11.006  12.913 -0.0726  0.1560  0.0444
 6914W        W23762  10.292   4.059   5.263  0.1768  0.3392  0.0403
 6915W        W23763   3.992  15.904  13.793 -0.2433 -0.5345  0.3687
 6916W        W23764   6.242   9.325   0.664 -0.1132 -0.0064 -0.1731
 6917W        W23765   1.896   9.924   1.344 -0.0842 -0.1614 -0.0935
 6918W        W23766   1.622   6.210   2.964  0.0379  0.1271  0.1966
 6919W        W23767   7.238   0.898  14.028 -0.0688  0.0858 -0.1018
 6920W        W23768   3.849   5.606   1.999 -0.3944  0.1006 -0.1239
 6921W        W23769   4.850   2.568   3.139 -0.2754 -0.0082  0.0789
 6922W        W23770   8.941   7.998  14.647  0.0803 -0.3442 -0.2643
 6923W        W23771  16.062  13.541  12.894  0.3950  0.0297  0.0818
 6924W        W23772  14.386  13.378  11.703 -0.2018 -0.4484 -0.5484
 6925W        W23773  15.028   6.987   0.692 -0.1405 -0.2056  0.2547
 6926W        W23774   7.994   1.015  11.666  0.0212 -0.1190  0.2376
 6927W        W23775  14.952  13.923   3.607  0.0036 -0.1481 -0.2615
 6928W        W23776  15.236   8.371  11.864 -0.0565 -0.0403  0.2736
 6929W        W23777   1.057   0.093   4.360  0.4849  0.0107  0.3493
 6930W        W23778   5.385   7.611  10.677  0.0658 -0.1273 -0.0918
 6931W        W23779  13.735   5.156   0.854  0.0300 -0.0820 -0.5541
 6932W        W23780  13.377  13.461   3.505 -0.3299  0.1874 -0.3295
 6933W        W23781   5.049  16.960   3.709  0.2727 -0.0576 -0.2632
 6934W        W23782   3.276  14.470   3.070  0.1110  0.1099  0.0069
 6935W        W23783  14.534   5.844   6.255 -0.0381 -0.1060  0.1450
 6936W        W23784   5.277   3.538   5.966  0.0144  0.0373  0.1502
 6937W        W23785   9.958   1.073  14.970 -0.1571  0.0090  0.0079
 6938W        W23786   5.313   6.488  12.910  0.0595  0.1227  0.0649
 6939W        W23787  12.715   4.739  12.560  0.1566  0.0148 -0.5094
 6940W        W23788   3.944   6.131  15.187  0.1207 -0.3449  0.2516
 6941W        W23789   3.583   8.659  15.475  0.1053  0.0998 -0.0568
 6942W        W23790   6.539   5.089  16.016  0.3661  0.1619 -0.2508
 6943W        W23791   2.003  17.403   5.122 -0.2558  0.2479  0.0460
 6944W        W23792   2.026  15.231  11.171 -0.2237 -0.3253  0.0539
 6945W        W23793   9.241   4.486  16.120  0.4314 -0.1758  0.1345
 6946W        W23794   6.591   1.236  12.134 -0.0200  0.2177  0.3702
 6947W        W23795   0.181  10.254   1.532  0.2710  0.2099 -0.0709
 6948W        W23796   2.853  11.666   5.018 -0.0166 -0.4126 -0.4864
 6949W        W23797   3.276   5.448  15.695  0.0442 -0.0813 -0.2172
 6950W        W23798   5.979  10.463  13.701  0.0245  0.0057 -0.1208
 6951W        W23799  17.364   9.734  13.143 -0.0102  0.0527  0.0272
 6952W        W23800   8.651  11.995   0.578 -0.2907 -0.0886 -0.0041
 6953W        W23801  11.540   7.996  12.359 -0.2187  0.1711 -0.2241
 6954W        W23802  12.268   0.537  11.384  0.0270 -0.0525 -0.1317
 6955W        W23803  12.884   8.756   4.547 -0.0167 -0.1426 -0.0759
 6956W        W23804   6.367  12.951   0.975 -0.3313 -0.4698 -0.1567
 6957W        W23805   9.032   7.307  11.537  0.1501  0.0922  0.1739
 6958W        W23806   7.042   0.020  11.960 -0.1107  0.1425  0.1870
 6959W        W23807   8.100   6.169  14.275 -0.1705 -0.0467  0.1846
 6960W        W23808   9.745   8.772   2.862  0.1178 -0.0793 -0.0670
 6961W        W23809   0.120   8.849   5.126 -0.2233 -0.1298  0.0363
 6962W        W23810  12.997  14.397  14.081 -0.0217  0.2181  0.0479
 6963W        W23811  12.678   3.367   1.827  0.1643  0.0551  0.0197
 6964W        W23812   8.665  11.633   5.103  0.0480 -0.0309 -0.2864
 6965W        W23813  15.405   0.599  12.292  0.2786  0.4448  0.3338
 6966W        W23814  16.750   2.988   2.250 -0.2057 -0.0126 -0.3292
 6967W        W23815   7.769   1.751  12.477  0.0340 -0.0388  0.1353
 6968W        W23816   6.532   7.037  12.249 -0.2658  0.5397  0.1151
 6969W        W23817  16.363  14.528   0.905  0.0750 -0.2190 -0.1019
 6970W        W23818   6.506   2.721  13.986  0.0236  0.0559 -0.0017
 6971W        W23819   7.535   4.529   4.157  0.1659  0.0648  0.0486
 6972W        W23820  11.052   5.532  16.465 -0.2495 -0.2502  0.0699
 6973W        W23821  12.096   9.354  11.019 -0.0676 -0.1238 -0.1675
 6974W        W23822  12.556   6.511   2.729 -0.0282 -0.1951  0.3155
 6975W        W23823  13.143  11.119  13.593 -0.0880 -0.1187 -0.2212
 6976W        W23824   2.818   0.310   4.988 -0.1050 -0.0274  0.0980
 6977W        W23825   9.820   3.376  11.609 -0.0198  0.0901  0.3359
 6978W        W23826  15.977   8.257  12.469 -0.0423 -0.2381 -0.0646
 6979W        W23827   7.122   5.017   0.258  0.2981  0.0412  0.0943
 6980W        W23828   8.626   1.025  13.276  0.0471 -0.0612  0.1692
 6981W        W23829  14.939  13.694   2.494 -0.2222 -0.0745  0.1947
 6982W        W23830  15.903  10.974   2.404 -0.1683 -0.0220  0.1558
 6983W        W23831  13.943  16.564  13.977 -0.0306 -0.1887  0.0742
 6984W        W23832   1.095   0.387  13.886  0.0929 -0.2077  0.0169
 6985W        W23833   5.640   7.586  11.590 -0.1640  0.1843  0.1237
 6986W        W23834  12.161   1.206  15.407 -0.0637 -0.0964  0.1256
 6987W        W23835  14.924  14.073   4.411  0.2932  0.1838  0.3959
 6988W        W23836  14.217   0.081   1.929  0.1628  0.1399 -0.2054
 6989W        W23837  15.306   0.214  11.517  0.1302 -0.0402 -0.0159
 6990W        W23838  13.597   2.654  12.097  0.0200  0.0307 -0.0590
 6991W        W23839   6.701   9.627   2.913  0.1556  0.3938 -0.3624
 6992W        W23840  10.000   6.024  13.755  0.3439 -0.1415 -0.3347
 6993W        W23841   3.516   6.604   2.046 -0.2649  0.2480  0.0361
 6994W        W23842   6.391  15.371  13.112  0.2174 -0.1315  0.2022
 6995W        W23843  16.155  14.053   4.333  0.0190 -0.2348 -0.0338
 6996W        W23844  10.012   8.902   3.907 -0.1687 -0.2308  0.0016
 6997W        W23845   7.712  14.265   3.716 -0.1742  0.1026  0.1322
 6998W        W23846   9.196   2.388  16.179 -0.0560 -0.0296  0.1070
 6999W        W23847  13.931   8.708   4.209  0.1415  0.2573  0.2117
 7000W        W23848  16.383  15.991   1.262 -0.3212  0.1230  0.0700
 7001W        W23849   8.995  13.932  14.217  0.0625  0.0257 -0.2868
 7002W        W23850   3.607   8.322  12.346 -0.0972 -0.0323 -0.0173
 7003W        W23851  17.295   8.618   1.469  0.1760 -0.0245  0.2383
 7004W        W23852  13.329   8.398  16.145 -0.1155  0.3305  0.3491
 7005W        W23853   9.163   5.679  16.419  0.0257  0.0740  0.2954
 7006W        W23854   6.306  12.077  11.485  0.1439  0.0883  0.0772
 7007W        W23855   0.981  15.586   2.811 -0.0523  0.0100  0.1262
 7008W        W23856   2.664  11.702   0.153 -0.0476 -0.1650  0.0450
 7009W        W23857   2.571  12.713  13.742 -0.1081 -0.1376 -0.0006
 7010W        W23858  15.153   5.107   3.241 -0.1307 -0.0155 -0.1674
 7011W        W23859   6.386  15.320  15.715 -0.0672 -0.2132 -0.0002
 7012W        W23860   3.953   4.937   1.188 -0.2517  0.0765 -0.4297
 7013W        W23861  11.386  17.795   1.832 -0.2043 -0.0842  0.1493
 7014W        W23862   1.525  10.238  14.397 -0.2252  0.2589 -0.0373
 7015W        W23863   5.109   9.475  14.759 -0.0874 -0.2367  0.2457
 7016W        W23864   9.917   8.421  12.789 -0.1412 -0.1533 -0.2201
 7017W        W23865   9.262   4.216  12.034 -0.3204 -0.1614  0.1298
 7018W        W23866   6.123  13.256  12.631 -0.0671 -0.2434 -0.3060
 7019W        W23867  10.626   6.946  15.593  0.0013  0.0481  0.0392
 7020W        W23868   1.551  14.968  14.625  0.0674  0.1679  0.2924
 7021W        W23869  15.001   1.076  14.795  0.0071  0.1418  0.1990
 7022W        W23870   7.925  10.540   0.861  0.1037  0.1393 -0.2373
 7023W        W23871   1.341  13.596   4.697  0.0196  0.1609  0.2118
 7024W        W23872   0.079  13.060   2.313  0.1379  0.1288  0.1449
 7025W        W23873  10.158  17.087  13.568 -0.2816  0.1966  0.0767
 7026W        W23874  12.518   2.428   1.571 -0.1753  0.1245 -0.3105
 7027W        W23875  17.476  13.354   2.276 -0.1248 -0.3288  0.3045
 7028W        W23876  15.295   0.438   1.188  0.1813  0.2431  0.0169
 7029W        W23877   7.408  16.835   5.637  0.0405 -0.0250 -0.1220
 7030W        W23878  10.423   4.172  11.720  0.0474  0.0534  0.0560
 7031W        W23879   1.409   5.674  16.199 -0.1236  0.0978 -0.1208
 7032W        W23880  17.509  17.743   2.855  0.0530  0.0585  0.1045
 7033W        W23881   8.596  14.069  15.901  0.2080 -0.0180 -0.3527
 7034W        W23882   7.342  10.553  12.286 -0.0079 -0.0670 -0.2564
 7035W        W23883  12.374  14.731   3.225  0.2686 -0.2390 -0.2492
 7036W        W23884   6.083  10.976  16.437 -0.0490 -0.1558  0.1013
 7037W        W23885  16.364   5.372  14.023  0.0387 -0.3703 -0.3367
 7038W        W23886   7.072   8.440  13.680 -0.0835  0.0295 -0.1419
 7039W        W23887  17.747   4.676  10.537 -0.1195 -0.0497 -0.2781
 7040W        W23888  11.235   6.645   6.352 -0.1324 -0.3017 -0.1909
 7041W        W23889  16.663   3.483  15.497  0.1202 -0.0709 -0.1410
 7042W        W23890  13.535   8.172   5.091  0.0226  0.2565 -0.0056
 7043W        W23891   9.696   7.069  12.019  0.1655 -0.1597 -0.3521
 7044W        W23892   4.012   7.110  14.763 -0.1720 -0.2777  0.0052
 7045W        W23893   4.125   4.953   1.669 -0.0029 -0.2732  0.1113
 7046W        W23894   9.935   3.348   2.034 -0.0149  0.0176 -0.1097
 7047W        W23895   4.460  15.448   3.417 -0.2393  0.1689  0.0217
 7048W        W23896  17.287   7.100   4.966  0.1196 -0.1164  0.0310
 7049W        W23897   3.244   8.988   2.148 -0.1854  0.2937 -0.0019
 7050W        W23898  13.806   9.358  13.258 -0.2770 -0.2592  0.0730
 7051W        W23899   8.091  10.031   4.642 -0.1530  0.2329  0.3206
 7052W        W23900   5.997  13.052  11.733 -0.3819  0.2346  0.2840
 7053W        W23901   3.891   2.216   5.671 -0.0370 -0.0367  0.1355
 7054W        W23902  12.505   1.963   3.438 -0.1134  0.1547 -0.2017
 7055W        W23903   6.448   5.130  11.741 -0.2197  0.0709  0.3493
 7056W        W23904  12.630   1.233   5.810  0.2089 -0.1676  0.3435
 7057W        W23905  15.932   3.269  12.655 -0.0433  0.0763  0.0257
 7058W        W23906  16.290   1.469   1.562  0.0534 -0.1256 -0.1443
 7059W        W23907  13.224   2.212  11.891 -0.1390  0.1757 -0.1058
 7060W        W23908  13.486  12.507  14.667  0.0284 -0.6219  0.0984
 7061W        W23909   3.713   9.377  13.851  0.1990  0.1729 -0.0233
 7062W        W23910  15.646   9.263  11.732 -0.1727  0.1693  0.1103
 7063W        W23911   5.212   4.120   4.172  0.3006  0.0251 -0.1306
 7064W        W23912  14.165   4.422   2.687 -0.1662 -0.0134 -0.0139
 7065W        W23913   6.334   8.805   1.512 -0.0738  0.1304 -0.2984
 7066W        W23914  16.083   8.428   1.708  0.0137  0.0719  0.5783
 7067W        W23915   5.987   2.432   4.691  0.1551 -0.3418  0.2679
 7068W        W23916  14.084   9.273  14.245  0.0059  0.0257 -0.1193
 7069W        W23917  17.885  14.032  15.572 -0.3977  0.2289  0.0606
 7070W        W23918  14.120   0.428   2.767  0.2455  0.1607  0.2413
 7071W        W23919  13.817   8.011  15.670  0.4959  0.0650 -0.0314
 7072W        W23920   3.352  11.125  13.387  0.0173 -0.0431 -0.0767
 7073W        W23921   0.197   5.338  13.004 -0.1966  0.1179  0.1432
 7074W        W23922  11.466   5.724  12.306  0.1939  0.2290  0.1871
 7075W        W23923   2.503   0.157   4.382  0.2097  0.0434  0.1754
 7076W        W23924  15.641  10.614   3.251 -0.0139  0.4842  0.1706
 7077W        W23925  11.500   2.076   6.118 -0.1020 -0.0785  0.1066
 7078W        W23926  13.787  10.340   3.615  0.0518 -0.0886  0.0457
 7079W        W23927   4.308  11.611  15.427  0.4118  0.1315 -0.2385
 7080W        W23928  12.148   8.232   2.157 -0.0246 -0.2062 -0.1686
 7081W        W23929  12.168   8.602  12.325  0.1073 -0.0301  0.2075
 7082W        W23930  16.769  12.059   4.089  0.1777  0.2178 -0.4198
 7083W        W23931  14.039  16.369   1.945  0.4466  0.1789 -0.1126
 7084W        W23932   4.122   6.606  15.021 -0.3786 -0.3741 -0.3137
 7085W        W23933  17.207   3.684  13.375 -0.1678  0.0639  0.3490
 7086W        W23934   7.784   2.298   0.150 -0.0449 -0.2982 -0.1022
 7087W        W23935   2.633   8.985   5.236  0.0760  0.1413 -0.1248
 7088W        W23936   5.693  15.797   2.168  0.0943 -0.0670  0.0032
 7089W        W23937  16.550   1.133  14.350  0.1323 -0.3015 -0.0055
 7090W        W23938  14.927  10.339   5.776  0.1460 -0.1236  0.1531
 7091W        W23939   2.999   1.465  12.103  0.1220  0.1735 -0.3606
 7092W        W23940   8.616  17.459  13.913 -0.0278 -0.0751  0.3469
 7093W        W23941   2.107   1.124  12.691 -0.0342  0.3808  0.2574
 7094W        W23942   8.594   7.839   4.190  0.2997  0.1796 -0.1743
 7095W        W23943   4.664   5.045   1.545  0.3368  0.4241 -0.3780
 7096W        W23944  13.869  17.181   3.888 -0.1352 -0.1190 -0.1274
 7097W        W23945   9.928   0.124  13.864  0.0409  0.0090  0.0527
 7098W        W23946  10.521   8.061   1.349  0.1187  0.2718  0.1765
 7099W        W23947   5.002   6.094  13.059 -0.1834  0.1248 -0.1254
 7100W        W23948   2.493   3.860  13.842  0.2044 -0.1025 -0.2135
 7101W        W23949   0.941  16.798   1.972 -0.1861 -0.3066 -0.0383
 7102W        W23950  16.488   0.134   2.439  0.0539  0.0879  0.0213
 7103W        W23951   5.648   1.415   0.573 -0.0727 -0.1019 -0.2061
 7104W        W23952   9.167  15.332  12.246 -0.0733 -0.1214 -0.0474
 7105W        W23953   8.602   5.060  13.094  0.1727 -0.2386 -0.2374
 7106W        W23954   9.257   6.509   3.753  0.2570 -0.0038  0.2688
 7107W        W23955   4.387   4.589   2.793  0.4117 -0.1997 -0.0656
 7108W        W23956   6.969  14.863  16.253  0.2440  0.0560  0.1565
 7109W        W23957   6.626  12.254  13.659 -0.0906 -0.2377 -0.1370
 7110W        W23958   9.046   4.347  14.882  0.0762 -0.1163  0.2239
 7111W        W23959  11.677  10.237   4.670 -0.0841  0.2772 -0.3514
 7112W        W23960   0.324   2.899  11.181 -0.0341 -0.4361  0.3920
 7113W        W23961  10.071  11.211  14.627 -0.1345  0.0243 -0.2293
 7114W        W23962   3.243   5.616  11.823  0.3592  0.0640  0.2545
 7115W        W23963   2.072  13.821  11.285 -0.0949 -0.0924 -0.1934
 7116W        W23964   5.990   6.141  15.150  0.0301 -0.1870  0.3391
 7117W        W23965   2.589   3.958  12.840 -0.0551  0.1488 -0.0505
 7118W        W23966   0.116   8.966   5.655 -0.0805 -0.0807 -0.0227
 7119W        W23967  16.866  12.199   1.645 -0.1130  0.1306  0.0591
 7120W        W23968  16.365   8.381  15.252  0.1107 -0.0100  0.1543
 7121W        W23969  13.990   9.861  13.041 -0.2869  0.2533  0.1273
 7122W        W23970  16.688  17.551  12.890 -0.0058 -0.0454  0.1215
 7123W        W23971   9.201  15.036  15.133  0.0706 -0.0925 -0.1117
 7124W        W23972   9.093   5.944  11.721  0.3136  0.1060 -0.3928
 7125W        W23973   1.257  17.273   1.886  0.1919  0.2580  0.0499
 7126W        W23974  16.724  16.596  11.271 -0.0166 -0.0217 -0.4072
 7127W        W23975  13.851   8.498  12.250  0.1046 -0.1354  0.0401
 7128W        W23976   3.481   5.098   1.206 -0.2192 -0.0475 -0.3004
 7129W        W23977  15.977  12.515   4.596 -0.0569 -0.0654 -0.1333
 7130W        W23978  15.070   8.644  16.162  0.0144  0.2990  0.0654
 7131W        W23979   2.386  14.648   3.146 -0.0236  0.2778 -0.0653
 7132W        W23980   8.729   0.080  12.905  0.0296  0.1222 -0.0143
 7133W        W23981  13.645   4.632   4.331  0.1558 -0.1617 -0.2269
 7134W        W23982  10.801   3.506   4.901 -0.3269  0.1094 -0.1231
 7135W        W23983  11.204   8.392   4.219 -0.1362  0.0573  0.1792
 7136W        W23984   0.664  14.016  14.803  0.1315 -0.0518  0.1821
 7137W        W23985   6.361   7.517  12.147  0.1244 -0.0026  0.0401
 7138W        W23986  17.544   7.031  14.441  0.0985 -0.0928 -0.1639
 7139W        W23987  11.662  17.184  15.577  0.2342  0.0648 -0.0453
 7140W        W23988   2.373   3.149  13.885 -0.0770  0.1452  0.3399
 7141W        W23989  11.462   2.809  11.309  0.2607 -0.1640  0.1117
 7142W        W23990   3.977   3.794  12.747  0.1111  0.0803 -0.2035
 7143W        W23991  12.355   5.350  11.554 -0.1891  0.2651  0.0501
 7144W        W23992   6.919  12.196  12.157 -0.1341 -0.1387  0.0502
 7145W        W23993   6.915  15.498   2.884 -0.1379  0.0031  0.0175
 7146W        W23994  15.810   6.462  13.884  0.2061 -0.2165  0.2869
 7147W        W23995   4.145   1.073   4.759  0.0556 -0.0745 -0.2529
 7148W        W23996   9.355   4.823   1.932  0.1035 -0.0129  0.0196
 7149W        W23997   6.255  11.632  15.700  0.0303  0.1727  0.0890
 7150W        W23998   4.929   7.747  12.605 -0.2705  0.0799  0.0072
 7151W        W23999  10.816   1.652  13.404 -0.2147 -0.3227 -0.2049
 7152W        W24000  12.133   3.722   2.652  0.1987  0.2648 -0.2565
 7153W        W24001  11.561   0.509  16.111  0.1844  0.1950 -0.3329
 7154W        W24002   2.990   1.775  13.693  0.1107  0.2580 -0.1271
 7155W        W24003   3.376  12.887  15.731 -0.1066  0.3513  0.2084
 7156W        W24004   8.621   8.762   1.755 -0.0568 -0.1023  0.0639
 7157W        W24005  16.282  14.381  12.436 -0.0625  0.1722 -0.0783
 7158W        W24006  12.261  11.353   3.832 -0.0216 -0.0796 -0.2365
 7159W        W24007   5.541   1.589   0.024  0.1262  0.0748 -0.0173
 7160W        W24008  14.296   5.196  12.380  0.1626 -0.3136  0.2230
 7161W        W24009   0.903   1.411   4.793  0.3689 -0.1006  0.1747
 7162W        W24010  14.765   7.331   0.983  0.2968 -0.0700  0.0931
 7163W        W24011   0.657  14.186  13.922 -0.0872  0.2580 -0.0091
 7164W        W24012  13.200   2.564  14.577 -0.1100 -0.0583  0.0398
 7165W        W24013  17.672  13.247  14.412 -0.1392  0.0219  0.4463
 7166W        W24014   3.944   7.296  16.170  0.1200  0.1282 -0.2353
 7167W        W24015   5.790   9.810  11.140  0.0540 -0.2954  0.1503
 7168W        W24016   0.738   0.369   4.890 -0.1338  0.5258  0.2725
 7169W        W24017  14.167   8.352  14.414  0.0487  0.2265  0.0450
 7170W        W24018  13.338   6.185  13.695  0.0228  0.1631  0.0470
 7171W        W24019   9.507   3.927  13.738 -0.0458 -0.1187  0.1554
 7172W        W24020  13.715  14.662   2.368  0.3816 -0.1973  0.0416
 7173W        W24021   0.849   4.925  13.399  0.1412  0.1792  0.2063
 7174W        W24022   3.915   4.844  12.328 -0.1748 -0.4252 -0.0869
 7175W        W24023  15.908  17.531   4.215  0.0830 -0.0113 -0.1586
 7176W        W24024  16.943   0.356   1.781  0.1392 -0.0578  0.1843
 7177W        W24025   3.360  14.202   1.086  0.0021 -0.0582 -0.1382
 7178W        W24026   4.921  11.028   1.212 -0.1425  0.0166  0.1641
 7179W        W24027   0.117   4.135   3.520 -0.0878 -0.2585  0.2053
 7180W        W24028   8.555   9.607  13.139  0.4016 -0.1586  0.3062
 7181W        W24029   0.702   2.340  16.337  0.0003 -0.1645 -0.0400
 7182W        W24030  17.265   0.213  11.290 -0.2370  0.0434 -0.0845
 7183W        W24031   5.642  11.432   5.202 -0.1266 -0.3162  0.2828
 7184W        W24032   0.261   2.009   0.073 -0.0552  0.3839 -0.0474
 7185W        W24033  16.851   2.275   0.658  0.0146  0.0985 -0.1450
 7186W        W24034   6.785   7.350   0.241 -0.4252  0.1967  0.0758
 7187W        W24035   6.041  12.713  12.921  0.4144 -0.1867  0.0953
 7188W        W24036  15.338   5.672  10.762  0.0532  0.2456  0.0781
 7189W        W24037   4.230  13.911  14.306  0.0540 -0.2244  0.1572
 7190W        W24038   9.486  14.759   5.476  0.0957 -0.1140  0.0087
 7191W        W24039   0.766  15.394  16.190  0.3889 -0.0299 -0.2003
 7192W        W24040   9.451  13.568  14.962 -0.1328 -0.0158  0.1738
 7193W        W24041  16.962   4.098   4.885 -0.0448  0.0006 -0.1030
 7194W        W24042   1.704  13.356   5.066 -0.0479  0.2333 -0.0598
 7195W        W24043   5.376  11.232  15.937 -0.3979  0.1636 -0.4069
 7196W        W24044  17.289  13.811   0.558  0.1670 -0.1403 -0.1995
 7197W        W24045   8.156   9.894  16.264  0.0232  0.1442  0.1203
 7198W        W24046  15.666   8.274   4.853 -0.4647 -0.1920 -0.0883
 7199W        W24047  13.860  12.077   0.088 -0.0266  0.0172  0.1470
 7200W        W24048   8.811   2.117  13.108  0.0875 -0.0508  0.3323
 7201W        W24049  10.183   7.392   1.311  0.0463  0.0338  0.2256
 7202W        W24050   4.237   4.276  15.418  0.1119  0.0054 -0.3023
 7203W        W24051   7.712   3.662  15.052  0.0214 -0.0732 -0.1369
 7204W        W24052   6.833   1.159  13.767 -0.0352 -0.2666  0.1156
 7205W        W24053  16.184   9.558   3.667 -0.0108 -0.0837 -0.0604
 7206W        W24054   3.672  10.389  10.284  0.1161  0.0979 -0.1497
 7207W        W24055  15.058  15.600   2.390  0.1238  0.0126 -0.3297
 7208W        W24056   1.571   7.039   1.060 -0.0667 -0.1360  0.3085
 7209W        W24057  17.570  12.706  15.595  0.2611 -0.0478 -0.1475
 7210W        W24058   9.441  15.419   1.243 -0.1976  0.0626  0.3190
 7211W        W24059   8.656  17.009  16.278 -0.2559 -0.1183  0.1693
 7212W        W24060  16.344   9.450  15.499 -0.1101 -0.2016  0.3428
 7213W        W24061  16.882   0.481  11.085 -0.0158  0.0341  0.1787
 7214W        W24062   7.773  11.213  12.876  0.1470  0.1713 -0.2213
 7215W        W24063   2.036   0.260  16.053  0.0304 -0.1254  0.1876
 7216W        W24064   1.812   4.546   5.684 -0.2624  0.1560 -0.0817
 7217W        W24065  15.094   2.809  16.055 -0.1350 -0.2819  0.0188
 7218W        W24066   5.250   0.588  11.466  0.0674 -0.1658 -0.0353
 7219W        W24067  17.027   0.987  14.072 -0.1064  0.0374 -0.0076
 7220W        W24068   8.942  15.681   5.350  0.1518  0.2225  0.3082
 7221W        W24069   8.866  13.913   4.044  0.0746  0.1580  0.0979
 7222W        W24070   2.942   5.204   2.768  0.0970 -0.0665  0.2044
 7223W        W24071  10.814   6.282   3.057  0.0353 -0.1426 -0.1304
 7224W        W24072  12.564  17.184  15.164  0.1811  0.1484 -0.1330
 7225W        W24073   4.274   2.531  11.521 -0.2522 -0.0158  0.1113
 7226W        W24074   7.241  10.443   3.173 -0.0850 -0.1603 -0.2349
 7227W        W24075   7.685  13.795  15.729 -0.3846  0.2434  0.2900
 7228W        W24076   1.905   8.082   2.765  0.0007 -0.0002  0.2789
 7229W        W24077   1.841   4.698   0.365 -0.0494  0.1690  0.0774
 7230W        W24078   3.351   0.077   0.027 -0.1238 -0.0844  0.1283
 7231W        W24079  14.477   6.072   1.766  0.0342 -0.2314  0.0997
 7232W        W24080   1.205   0.463  15.575 -0.2535 -0.4349  0.1826
 7233W        W24081   6.662   5.640   4.075 -0.2198  0.0569 -0.3116
 7234W        W24082   3.572   6.780  15.002 -0.2635  0.2468 -0.1511
 7235W        W24083  14.853  16.877   5.582 -0.1955  0.1174 -0.0150
 7236W        W24084   2.387   3.825   4.333 -0.1341 -0.2357  0.1934
 7237W        W24085   7.381  14.697   3.767 -0.0266 -0.0780 -0.5172
 7238W        W24086  14.319   4.015  11.432 -0.0231  0.2088 -0.1183
 7239W        W24087   6.828   2.897  13.065  0.2007 -0.0047  0.3054
 7240W        W24088   9.135   3.065   0.229  0.1352 -0.1017  0.3220
 7241W        W24089  14.180  13.545   3.992  0.3040 -0.0849  0.1084
 7242W        W24090   3.510  10.747   2.912  0.0485  0.1350  0.1296
 7243W        W24091  13.394  11.900   0.564 -0.2171 -0.2036 -0.0602
 7244W        W24092   7.732  12.225   0.802  0.3037  0.0379 -0.1786
 7245W        W24093   7.384  10.918   2.872 -0.0827  0.0892  0.0015
 7246W        W24094   8.086   4.895  15.202  0.0524 -0.1047 -0.1264
 7247W        W24095   7.723  10.562   4.689  0.1719  0.0710 -0.0866
 7248W        W24096  14.787   3.248  11.822 -0.2702 -0.0338 -0.0677
 7249W        W24097   8.613   4.798  15.299  0.1928 -0.0332 -0.0729
 7250W        W24098   9.975  13.740  14.343 -0.0731 -0.2483  0.1323
 7251W        W24099  12.623  17.600  13.316  0.0517  0.1994 -0.0987
 7252W        W24100  10.905   3.981  15.622  0.0925  0.3550 -0.2002
 7253W        W24101  11.595  17.135   2.892  0.2531  0.3984  0.0484
 7254W        W24102   7.527   3.843  16.063  0.1082  0.0111  0.0097
 7255W        W24103   7.299   3.950  11.832  0.0462  0.0245 -0.3389
 7256W        W24104  16.438   6.286  12.060 -0.3877  0.1341  0.1510
 7257W        W24105   3.811   7.785   1.495  0.0412 -0.0676 -0.1460
 7258W        W24106  17.604  17.819   3.567  0.1090 -0.2012 -0.0912
 7259W        W24107   3.825  12.274   4.597 -0.6284  0.2455  0.0948
 7260W        W24108   8.475   0.310  15.694 -0.0401 -0.2961  0.3508
 7261W        W24109   0.488   3.685   1.379  0.0006 -0.0907  0.1171
 7262W        W24110   0.264   0.722   3.324 -0.1451  0.2907 -0.0740
 7263W        W24111   0.218  15.066  11.752 -0.2584 -0.2625  0.1957
 7264W        W24112  10.091   1.501   2.757 -0.1699 -0.2833 -0.1154
 7265W        W24113   2.371   1.493  11.397  0.1806  0.0936  0.1726
 7266W        W24114   9.909   6.187  15.530 -0.2440  0.5215  0.0478
 7267W        W24115   0.243   7.082  15.128 -0.1233 -0.1865  0.2327
 7268W        W24116  16.038   5.707   0.502 -0.2541  0.0659 -0.0726
 7269W        W24117   5.278   7.936  13.423  0.0922 -0.0350 -0.0533
 7270W        W24118  16.307  15.127   3.329 -0.4284  0.0190  0.1212
 7271W        W24119   5.800  14.738  13.823  0.1249 -0.0677  0.3186
 7272W        W24120   7.201  11.502   0.659  0.0505 -0.2961  0.1338
 7273W        W24121   9.180  13.866  12.797  0.0270  0.4091 -0.0943
 7274W        W24122   0.731  10.100   2.385 -0.2497  0.1697 -0.3744
 7275W        W24123   1.703   2.452  15.462 -0.3246 -0.2661 -0.4695
 7276W        W24124  13.594   3.394   1.160 -0.0049 -0.3774  0.1419
 7277W        W24125   6.987   2.860  14.804 -0.2185  0.3613 -0.1392
 7278W        W24126   1.852   1.476  14.209 -0.1105  0.0218  0.2579
 7279W        W24127  11.562  10.756   4.686 -0.3245 -0.3603 -0.0173
 7280W        W24128  14.524  17.648   3.454  0.2378 -0.0013 -0.2028
 7281W        W24129   9.148  12.548   1.540  0.0813 -0.2064  0.0221
 7282W        W24130   9.475  11.908   3.135  0.3658 -0.0015 -0.4667
 7283W        W24131   2.091  10.264   0.962  0.1398 -0.1096  0.1625
 7284W        W24132   2.861   2.160  15.661 -0.2684 -0.1601  0.0545
 7285W        W24133  14.511  11.479  14.015  0.1161  0.0661  0.1614
 7286W        W24134   6.906   6.533  14.788  0.0239  0.0432  0.3493
 7287W        W24135   4.748   7.277  15.493 -0.1621  0.2146 -0.0323
 7288W        W24136   9.239  10.081   3.757 -0.2457  0.3401  0.0187
 7289W        W24137  11.935  15.413  15.705  0.0444  0.1282  0.1682
 7290W        W24138  15.934  12.788   4.158  0.2031 -0.0847 -0.0666
 7291W        W24139   6.550  14.352   5.586 -0.2274  0.0529  0.2104
 7292W        W24140  11.718   5.656  14.174 -0.2275 -0.0150  0.1228
 7293W        W24141  11.648   1.112   0.827 -0.0390  0.2754 -0.3261
 7294W        W24142  17.154   9.240  14.217 -0.0427 -0.1794 -0.3982
 7295W        W24143  11.506   8.308  11.399 -0.0336  0.1951  0.3707
 7296W        W24144  12.186   0.485  16.108  0.2948 -0.5397 -0.1267
 7297W        W24145  10.080   5.995   3.532 -0.3204 -0.0401 -0.0215
 7298W        W24146   0.420   0.247   2.378 -0.0806  0.3694  0.0388
 7299W        W24147  15.593   2.935   2.744  0.2012  0.3895  0.2785
 7300W        W24148   9.135   2.210  12.721 -0.1149  0.0121 -0.0349
 7301W        W24149   6.473   2.663  16.077 -0.1365  0.0811 -0.0784
 7302W        W24150  15.363  15.235  14.814  0.1091  0.0389 -0.2211
 7303W        W24151   8.640   9.929  14.485  0.0737 -0.0052 -0.1394
 7304W        W24152  16.535   7.408   3.475  0.1461 -0.1008  0.1647
 7305W        W24153  10.150  14.597   3.373  0.1864 -0.2967  0.0855
 7306W        W24154  11.241  15.671  16.019  0.0835  0.1270 -0.0312
 7307W        W24155   5.255   1.784   1.714  0.3042  0.0734  0.0086
 7308W        W24156  17.407   2.848  14.392 -0.0551 -0.1854 -0.0963
 7309W        W24157   1.842  17.518  12.585  0.1251 -0.2040  0.1328
 7310W        W24158  13.999   2.006  14.763  0.0182 -0.0709 -0.1592
 7311W        W24159   2.566   0.626   4.405  0.1546 -0.1903  0.0252
 7312W        W24160  11.321   6.104  11.950  0.0173 -0.0919  0.0515
 7313W        W24161  12.357  13.243  12.343 -0.1611 -0.2451  0.2542
 7314W        W24162   9.457  13.797  12.370  0.2668 -0.0037  0.0082
 7315W        W24163   0.656  15.007   2.427 -0.1471  0.0592  0.2005
 7316W        W24164   5.816  12.462   4.435  0.2078 -0.0767  0.1148
 7317W        W24165   3.484   6.123  15.342  0.0253  0.0496 -0.0561
 7318W        W24166  15.761  12.457   0.187  0.0697  0.5252  0.0396
 7319W        W24167   4.292  14.688   4.895  0.0119 -0.0364  0.0186
 7320W        W24168  15.494  12.748  13.328  0.1658  0.5714  0.1062
 7321W        W24169   7.951   7.475  15.622 -0.1305  0.0298  0.0339
 7322W        W24170  12.179   3.958  12.831  0.2409  0.0160  0.0233
 7323W        W24171  10.470   8.161   4.957 -0.1131  0.2232  0.2950
 7324W        W24172   2.083  11.296   2.763 -0.0188 -0.2496 -0.0813
 7325W        W24173   3.464  10.500   4.765  0.0866  0.1364 -0.1418
 7326W        W24174   8.364   7.550   3.358 -0.2700 -0.1724  0.0481
 7327W        W24175   7.993   4.063   1.419  0.1465 -0.2570  0.3936
 7328W        W24176   9.729   4.982  13.375  0.2201 -0.3487 -0.0129
 7329W        W24177   6.892  14.350   0.726 -0.0239  0.0576  0.1006
 7330W        W24178   8.626  13.069   1.103  0.1317  0.0687 -0.1448
 7331W        W24179  15.003   4.577  11.067 -0.2462  0.1109  0.0569
 7332W        W24180  11.534   4.580   0.523 -0.0756  0.2116 -0.1915
 7333W        W24181   2.221   8.462  15.264 -0.4182  0.2176 -0.1759
 7334W        W24182  16.798  14.848  13.701 -0.1662 -0.3084  0.1283
 7335W        W24183   9.892  15.033  12.877 -0.5133  0.0432  0.0017
 7336W        W24184   9.033   9.914   0.035 -0.0394  0.4890 -0.1500
 7337W        W24185   8.413   9.626   5.392 -0.2808 -0.0687 -0.0471
 7338W        W24186  13.415  17.244  10.236  0.2000 -0.2407 -0.0353
 7339W        W24187  17.048  12.636   1.856 -0.2361 -0.1381 -0.0452
 7340W        W24188   3.367   6.239  15.789 -0.0657 -0.0578  0.3260
 7341W        W24189   7.443  15.056  12.432  0.1506 -0.1933 -0.1976
 7342W        W24190   5.588  14.021  14.874  0.0061  0.1010 -0.1033
 7343W        W24191   8.082   6.528  14.639 -0.0754  0.0347 -0.2559
 7344W        W24192   0.396   7.748  14.555  0.2556  0.3483 -0.0446
 7345W        W24193   6.062   1.986  14.554  0.1741  0.1278  0.0457
 7346W        W24194   4.940   2.211  14.891 -0.0214  0.1916 -0.0434
 7347W        W24195   4.679  12.257  13.833  0.0555  0.0740  0.2489
 7348W        W24196  11.320   1.857  13.365 -0.1077 -0.2844 -0.4621
 7349W        W24197  12.839  16.671   3.864 -0.0157  0.1649  0.0053
 7350W        W24198   3.334  11.752   1.139 -0.0528 -0.1031 -0.0437
 7351W        W24199  11.777  17.230   2.429 -0.1422  0.2229 -0.0789
 7352W        W24200   1.273   6.811  15.846 -0.0806  0.3575 -0.1582
 7353W        W24201  15.249  14.306  11.598  0.1401 -0.3240  0.0273
 7354W        W24202  15.835  10.471   2.065 -0.0764  0.1933 -0.0400
 7355W        W24203   6.821  12.225  10.540  0.0046  0.2205 -0.5788
 7356W        W24204   4.647  11.063   0.293  0.1673 -0.0693 -0.0706
 7357W        W24205  11.727  13.565  15.406 -0.0599  0.0284 -0.5213
 7358W        W24206  11.945  17.698   3.954  0.3078  0.0259  0.1158
 7359W        W24207  12.986  13.141   3.217 -0.0735  0.0874 -0.0524
 7360W        W24208   3.003   3.872   6.241  0.0298 -0.1980 -0.0325
 7361W        W24209   1.805  15.751   1.379 -0.4908  0.0145 -0.0138
 7362W        W24210   1.310  15.535  16.306 -0.5158  0.2495  0.2332
 7363W        W24211  15.555  14.067  12.901 -0.1626 -0.3114  0.3790
 7364W        W24212  17.443   4.356   3.490  0.0913 -0.3262 -0.0519
 7365W        W24213  11.379  16.604   3.457  0.0371  0.2382  0.0989
 7366W        W24214  16.465   0.704   3.284  0.0054  0.2140 -0.3532
 7367W        W24215   8.106  16.424   2.986 -0.1384  0.0751  0.2980
 7368W        W24216   3.959   9.525  14.884  0.1731  0.1632  0.1484
 7369W        W24217  15.587   7.249  13.978 -0.0293 -0.1339 -0.2487
 7370W        W24218  11.622   4.930  11.638 -0.3399 -0.0078 -0.0019
 7371W        W24219   2.670   0.495  14.715 -0.1179 -0.1110  0.0521
 7372W        W24220   5.613  15.452  16.318  0.2136  0.0594  0.0714
 7373W        W24221  11.624   2.335   0.272 -0.2084 -0.0256  0.1109
 7374W        W24222   6.365  13.470  12.230  0.0684  0.2150  0.2436
 7375W        W24223   7.528  11.134  13.728  0.3051 -0.0697 -0.0641
 7376W        W24224   9.219  12.703   1.068  0.0283  0.0458  0.0864
 7377W        W24225  16.273  12.917  13.643 -0.0203  0.0446  0.3327
 7378W        W24226   0.002   0.662  11.923  0.1148 -0.4080  0.3366
 7379W        W24227   9.551  12.967   0.266  0.2851  0.0182 -0.2164
 7380W        W24228   4.698   9.921  11.965 -0.0893  0.0762 -0.1005
 7381W        W24229  15.675   3.025   1.070  0.1310  0.0057 -0.0150
 7382W        W24230  17.526  15.895  12.901 -0.2380 -0.0685  0.2162
 7383W        W24231  10.049  10.890  13.673 -0.0812 -0.0759  0.0223
 7384W        W24232  17.528  14.514  13.350  0.2362 -0.1606  0.1523
 7385W        W24233   1.035   7.034   5.022 -0.0044  0.2560 -0.1542
 7386W        W24234  15.489  13.926   2.147  0.0669  0.0675 -0.1188
 7387W        W24235   2.302   9.839   4.277 -0.1044  0.1658  0.1376
 7388W        W24236   2.972   6.531   3.334  0.0556  0.0938  0.0954
 7389W        W24237   1.592  10.444   1.164 -0.0797  0.0800 -0.3844
 7390W        W24238   0.227  10.239  13.588  0.1256 -0.0682  0.0070
 7391W        W24239  15.492   0.346  15.070  0.4125 -0.3376  0.0970
 7392W        W24240  14.310   1.172  11.526  0.0057 -0.0889  0.3180
 7393W        W24241   0.766  15.156  11.903  0.0923  0.0558 -0.0907
 7394W        W24242  15.965   2.300   2.127  0.0024  0.1080  0.2229
 7395W        W24243  13.628  15.632  11.550 -0.0684  0.0162  0.0993
 7396W        W24244   6.794   5.648   2.872 -0.1241 -0.0900 -0.0990
 7397W        W24245   7.491   2.987   3.629  0.0778 -0.5127  0.1880
 7398W        W24246   7.977  13.729  13.306  0.1078  0.0092  0.2842
 7399W        W24247   5.198  16.718  16.011  0.1058 -0.0032  0.2966
 7400W        W24248  15.585  10.163  10.591  0.3446  0.1048 -0.3562
 7401W        W24249   6.368   8.076  12.145 -0.0665 -0.0543  0.5483
 7402W        W24250   8.727  10.248  16.091 -0.0297 -0.2351 -0.0231
 7403W        W24251   7.200   0.027   0.562 -0.1308 -0.0850 -0.0140
 7404W        W24252  15.150   8.721   2.720 -0.2352  0.3958  0.0459
 7405W        W24253   8.272   7.737   2.825 -0.0219 -0.2392  0.1885
 7406W        W24254  15.956  10.729  14.450  0.4324 -0.3324  0.1826
 7407W        W24255   2.388   0.464   3.429  0.1756  0.0000 -0.0834
 7408W        W24256  15.690   6.483   4.055 -0.0377 -0.0369  0.1079
 7409W        W24257  12.944  13.833   2.299 -0.0469 -0.0017 -0.1715
 7410W        W24258   2.174   8.589  16.186  0.0860 -0.0388  0.0035
 7411W        W24259   1.276   3.411   4.244  0.0214 -0.0266  0.1082
 7412W        W24260  10.935   3.800  11.191  0.2544 -0.1455 -0.0168
 7413W        W24261   9.507  12.450   4.769  0.0134  0.1338 -0.3319
 7414W        W24262  17.127  13.462  15.742  0.0681  0.3311 -0.1666
 7415W        W24263   6.822   7.375  12.444 -0.0476  0.1438 -0.1719
 7416W        W24264  11.429   8.906  12.633  0.4012 -0.0603 -0.2019
 7417W        W24265   6.884  13.325   4.298 -0.0737 -0.0636 -0.0048
 7418W        W24266   4.733   7.726  15.028  0.1045 -0.1442 -0.4444
 7419W        W24267   2.337   2.102  14.952 -0.1972  0.2546  0.0134
 7420W        W24268  10.118  15.285   3.839 -0.0519  0.3007 -0.2238
 7421W        W24269   3.365   8.417   0.648 -0.0786  0.1102  0.0363
 7422W        W24270   0.767  14.677  14.033 -0.2066  0.1906 -0.0164
 7423W        W24271   7.299   7.393   0.403  0.2955  0.0522  0.2380
 7424W        W24272  13.292   9.154   5.346 -0.1594  0.2848  0.0329
 7425W        W24273   7.377   4.791   3.097 -0.1170  0.1122 -0.1761
 7426W        W24274  15.221  14.566  15.908  0.1272  0.0646  0.0727
 7427W        W24275  17.625  15.589   1.666  0.2900  0.0699 -0.0566
 7428W        W24276  11.159   5.564   4.387  0.0008 -0.3755 -0.0465
 7429W        W24277   1.429   7.048   0.568  0.3145 -0.0829  0.0968
 7430W        W24278   2.693   3.336  14.524 -0.0379 -0.0645  0.0379
 7431W        W24279  16.506   6.794   0.915  0.2873  0.0705  0.1795
 7432W        W24280  12.734  13.071   3.657  0.0018  0.0597 -0.1435
 7433W        W24281  12.965   7.045  12.210 -0.0067  0.0349 -0.0885
 7434W        W24282   7.777   8.933   5.190  0.0663 -0.2895 -0.1228
 7435W        W24283   4.194  11.984   4.403 -0.0950 -0.3851 -0.1915
 7436W        W24284   8.988   2.751  12.663  0.1581  0.4059  0.1037
 7437W        W24285   0.976  16.347  14.700 -0.0408 -0.1531  0.1208
 7438W        W24286  14.215   6.617   3.760 -0.1482 -0.3315 -0.2698
 7439W        W24287   0.580   4.959   2.029  0.1288 -0.0634  0.3102
 7440W        W24288  15.172   7.742  15.775  0.1595  0.0010 -0.0558
 7441W        W24289   3.616   3.303   1.886  0.0955 -0.0300 -0.0379
 7442W        W24290   1.495   8.093  14.954  0.0874  0.1998  0.3366
 7443W        W24291  15.514   2.406   2.505 -0.0592  0.1979  0.0178
 7444W        W24292  13.425   9.583   3.230  0.0586 -0.1604  0.1226
 7445W        W24293  12.881  12.374  15.282  0.0688 -0.1157  0.1741
 7446W        W24294  14.138  14.281   0.516  0.1007 -0.0126  0.0638
 7447W        W24295   6.429   7.763   1.512  0.0191 -0.1129  0.1227
 7448W        W24296  15.819   0.154   0.678  0.1755  0.2321 -0.0064
 7449W        W24297   8.883  17.434   3.970  0.3902 -0.0179  0.0884
 7450W        W24298  10.791   6.734   4.666 -0.0245 -0.0005  0.0297
 7451W        W24299  16.907   3.441  16.258 -0.0162 -0.0071 -0.0318
 7452W        W24300  17.699   3.694   3.397  0.0985  0.1720 -0.3442
 7453W        W24301   5.544   0.440   2.921  0.2874 -0.0841 -0.1758
 7454W        W24302  14.623   8.392   1.008 -0.0574  0.1639 -0.1022
 7455W        W24303   2.716  15.448   0.232 -0.3370  0.0816 -0.3836
 7456W        W24304   7.386   7.652  14.524  0.2240  0.2958 -0.0127
 7457W        W24305  14.656   1.407   1.923  0.0911  0.2761  0.1765
 7458W        W24306  14.805  12.394   0.496  0.0923  0.0428 -0.1505
 7459W        W24307   2.888   2.659   3.746  0.0298 -0.2622  0.1603
 7460W        W24308  15.431  12.828  15.982 -0.4010 -0.0597  0.0776
 7461W        W24309  15.510   8.544  15.284 -0.2833 -0.4598  0.2949
 7462W        W24310  14.085   3.795   3.739 -0.0692 -0.0269  0.2374
 7463W        W24311   3.392   6.596  10.979  0.0693  0.0322 -0.0837
 7464W        W24312   5.760  12.836  12.502 -0.2006 -0.0665  0.1485
 7465W        W24313   7.906   2.259  13.292  0.1030  0.4628 -0.0389
 7466W        W24314   6.898   3.178  11.667  0.1410 -0.0102  0.1100
 7467W        W24315  10.289   7.112   2.652  0.1754 -0.1425  0.0887
 7468W        W24316   5.505  14.393  16.043  0.1946  0.2694 -0.1385
 7469W        W24317   6.043   9.785   5.085  0.1261  0.2956 -0.0432
 7470W        W24318   9.372  12.515   0.619 -0.3465 -0.1904 -0.0116
 7471W        W24319   3.721  15.596  11.511  0.0234  0.2488  0.1187
 7472W        W24320   7.878  16.764  13.827 -0.0109 -0.2304 -0.3019
 7473W        W24321   6.924   8.782   4.400  0.1642 -0.0528  0.0256
 7474W        W24322   6.727  16.845  16.423 -0.1593 -0.2491  0.0905
 7475W        W24323   6.162   7.556  12.986  0.0107 -0.1605  0.0198
 7476W        W24324  15.745  12.836  15.543 -0.2436 -0.5148 -0.2893
 7477W        W24325  16.360   7.246  13.595 -0.0374  0.1435  0.2096
 7478W        W24326  10.178  10.699  16.374 -0.0104  0.0947  0.3101
 7479W        W24327   4.995   5.386   0.243 -0.0572  0.0645 -0.0885
 7480W        W24328  10.926   9.498   1.646  0.1988  0.0956 -0.2195
 7481W        W24329   7.256   7.478  13.765 -0.1304  0.2440 -0.0938
 7482W        W24330  15.128   1.024  16.282  0.4306  0.0759  0.0116
 7483W        W24331   0.828  14.268  10.163  0.0130  0.2401  0.1044
 7484W        W24332  14.604   4.821   1.295 -0.0408 -0.0426  0.1752
 7485W        W24333  16.634   0.896   2.817  0.0630 -0.1409 -0.0127
 7486W        W24334  16.212   7.819  15.402 -0.1066  0.0682  0.0621
 7487W        W24335   4.079  16.661  11.031  0.1532 -0.3123 -0.0639
 7488W        W24336   5.270   1.901  12.215  0.2689 -0.1833  0.0629
 7489W        W24337   9.372   3.119   0.830  0.1037 -0.3225 -0.0233
 7490W        W24338  17.060   6.135   5.830 -0.3333  0.0680  0.1458
 7491W        W24339  15.266  16.668  14.426 -0.0999 -0.2226 -0.1479
 7492W        W24340  14.433   2.269   0.162 -0.0579  0.0403  0.1746
 7493W        W24341   2.768  17.856  15.474 -0.0448 -0.0957  0.0876
 7494W        W24342   5.151   6.026   2.526 -0.1278  0.2972  0.5612
 7495W        W24343   5.342   6.273   5.304 -0.0984  0.0977  0.1019
 7496W        W24344   3.161  15.380  12.611  0.4584  0.1463  0.0733
 7497W        W24345   0.030  17.813   1.999 -0.0074  0.1079 -0.0449
 7498W        W24346   1.335   4.602   4.968 -0.0621 -0.0654 -0.0399
 7499W        W24347   4.663   6.204  11.751 -0.1747  0.3453  0.1148
 7500W        W24348  10.513  15.746  16.401  0.0618 -0.2425 -0.1614
 7501W        W24349  13.887   2.884   0.408  0.0841  0.0324 -0.1399
 7502W        W24350  17.285   1.111  10.568 -0.2527 -0.1511  0.0744
 7503W        W24351  14.662   7.643   2.905  0.0120 -0.2415  0.0369
 7504W        W24352   8.493   9.820   4.825  0.2124 -0.0667  0.0404
 7505W        W24353   6.853   1.348   0.596 -0.1780  0.1665  0.0868
 7506W        W24354   8.186   3.020   4.647 -0.1218 -0.1820  0.2517
 7507W        W24355   4.665   1.198   0.140  0.3990  0.1008  0.0836
 7508W        W24356  11.923   2.936  12.005 -0.2788 -0.0111 -0.0826
 7509W        W24357   1.570   1.212   1.869 -0.1037 -0.0323 -0.0836
 7510W        W24358  12.373   2.176  14.157 -0.0956  0.1071  0.0526
 7511W        W24359   0.001  17.228   1.935 -0.2590  0.0379 -0.1330
 7512W        W24360  13.160  12.628   4.583 -0.0206  0.1960 -0.1988
 7513W        W24361   9.555  15.327   5.451 -0.2089  0.1835 -0.2737
 7514W        W24362   1.772   9.416   0.051  0.2908  0.1826 -0.0081
 7515W        W24363   3.823  10.681  14.118 -0.0399 -0.0454  0.1617
 7516W        W24364   6.405   3.475   0.433 -0.1577 -0.2924  0.2147
 7517W        W24365  15.351  13.058  12.105 -0.2924 -0.1707  0.0163
 7518W        W24366  11.289   8.293   2.318 -0.0298 -0.1766  0.1399
 7519W        W24367   3.195   3.244   4.677 -0.2098  0.2680 -0.1083
 7520W        W24368  15.567   3.023  13.886  0.1516  0.0490 -0.2030
 7521W        W24369   5.497   7.635   5.122 -0.2541  0.1686  0.0147
 7522W        W24370   7.175   8.191  12.495 -0.0513  0.1311  0.0733
 7523W        W24371  12.960  13.429   1.895 -0.3157 -0.0458  0.3579
 7524W        W24372   2.141   2.574  15.113  0.0918 -0.0092 -0.1906
 7525W        W24373   0.510   7.138   5.934 -0.0448  0.1016 -0.0304
 7526W        W24374   0.492  13.401  13.290  0.3242 -0.0583 -0.0751
 7527W        W24375  11.542  12.239   3.956  0.0730 -0.1697  0.1296
 7528W        W24376  16.788   1.848  13.057  0.0220 -0.0964  0.0536
 7529W        W24377  10.633   0.676  14.472  0.1917  0.1778  0.1106
 7530W        W24378  10.460   0.451   0.883 -0.1019  0.0562  0.1688
 7531W        W24379  16.594  10.676   3.843  0.0038 -0.2999  0.3122
 7532W        W24380   5.671   8.917   3.688  0.0791 -0.0655 -0.0280
 7533W        W24381  14.295  12.773   2.294 -0.1282  0.0612 -0.0868
 7534W        W24382  12.696  16.989   3.500 -0.2509  0.1521  0.1784
 7535W        W24383   9.514  11.699   3.991 -0.0615 -0.2241  0.0946
 7536W        W24384   8.924  14.731   1.985 -0.1442  0.2428 -0.0392
 7537W        W24385   4.374   0.288  14.106  0.1141 -0.4470  0.1061
 7538W        W24386   8.816   6.584   0.160 -0.0783  0.3614  0.0813
 7539W        W24387   0.137  17.494  15.023 -0.1381 -0.1853  0.1931
 7540W        W24388   9.194   0.018   0.937 -0.2198  0.3028 -0.0384
 7541W        W24389   6.273  10.146   2.704  0.1014  0.0706  0.0062
 7542W        W24390  10.215  11.315  12.396 -0.0153 -0.1610 -0.1303
 7543W        W24391  16.006  11.487  11.335  0.4655 -0.2181  0.0685
 7544W        W24392  11.034  16.448   4.736  0.0759  0.1520 -0.2994
 7545W        W24393   8.472  11.544   5.840 -0.0444 -0.2612 -0.2341
 7546W        W24394   4.246   3.911   2.447 -0.1579  0.0132  0.0940
 7547W        W24395   8.743  14.503  12.000 -0.2229 -0.0328 -0.0003
 7548W        W24396   0.626   3.212  16.315  0.0738 -0.3247 -0.1165
 7549W        W24397   5.205   5.764   3.785  0.0915  0.0483 -0.0192
 7550W        W24398  15.232   0.572  10.533  0.2990 -0.1144 -0.1832
 7551W        W24399  13.326   3.720  14.506  0.1902  0.1707 -0.2482
 7552W        W24400  11.710  12.927   2.101 -0.3853  0.0564 -0.0305
 7553W        W24401  12.660   5.915  16.346 -0.1485  0.2403  0.1491
 7554W        W24402  10.714   2.136  14.270  0.3274  0.1270 -0.3982
 7555W        W24403  12.773  11.831  14.897 -0.1048  0.0054 -0.0969
 7556W        W24404   6.249  14.372  15.589 -0.0977 -0.0851 -0.1050
 7557W        W24405  15.252  10.949  15.659 -0.3592 -0.2925  0.1785
 7558W        W24406   5.161   5.141   6.044 -0.0068 -0.1430  0.1107
 7559W        W24407   8.497  16.209   4.059  0.2999  0.2734  0.2253
 7560W        W24408  16.831   5.581  12.739  0.2826  0.1360 -0.0012
 7561W        W24409   1.715  12.677   3.296  0.0166  0.0783  0.1193
 7562W        W24410   2.352   1.583   4.519  0.1037  0.2050 -0.0692
 7563W        W24411  10.199   7.834   4.687  0.1364  0.3204 -0.2859
 7564W        W24412   5.145   4.651  13.828 -0.1111 -0.3985  0.3527
 7565W        W24413  16.248   8.204  14.658 -0.0367  0.2573 -0.0801
 7566W        W24414   1.718   6.068  12.873  0.2347 -0.3267 -0.1521
 7567W        W24415  12.132   2.563   2.023 -0.0866 -0.0794  0.1210
 7568W        W24416   7.802   4.941  11.331  0.2202 -0.1003 -0.0012
 7569W        W24417  15.330   3.319   0.674 -0.0332  0.1509  0.0669
 7570W        W24418   2.026  10.862  14.802  0.0771  0.2681  0.0239
 7571W        W24419   8.830   7.369  16.083 -0.2418  0.0178  0.1003
 7572W        W24420  14.811   3.055  14.371  0.1264 -0.1469 -0.2688
 7573W        W24421  12.123   3.649   3.531 -0.1085 -0.1206  0.0446
 7574W        W24422  12.092   8.543  13.191 -0.1422 -0.2269  0.1902
 7575W        W24423   5.628   7.601   3.576 -0.1430  0.0086  0.2209
 7576W        W24424   1.628   8.573  13.372  0.2003  0.3168  0.2296
 7577W        W24425   6.337   3.604   2.183  0.0484  0.0279  0.2914
 7578W        W24426  11.899   8.700  14.104 -0.2701  0.1225 -0.2676
 7579W        W24427   3.975   4.347  14.974 -0.0831 -0.0846 -0.2027
 7580W        W24428  10.088   3.636   0.928  0.0931  0.0654  0.3103
 7581W        W24429  10.108  17.439  13.055 -0.1131 -0.1405  0.0141
 7582W        W24430  16.678   3.814  12.088 -0.2282 -0.1907 -0.0485
 7583W        W24431  12.787  16.902   4.402 -0.0880 -0.2495  0.2377
 7584W        W24432  17.043  12.128   2.178 -0.0243  0.0474 -0.1832
 7585W        W24433  15.909  16.622   1.969 -0.0309  0.0991  0.1087
 7586W        W24434   0.552  11.995   3.490 -0.1387 -0.1841  0.1801
 7587W        W24435   7.682   9.478  15.700 -0.2969 -0.3027  0.4838
 7588W        W24436  14.680  10.844   2.702  0.0842 -0.1376 -0.1050
 7589W        W24437   4.446  11.075  14.305  0.0528 -0.1858 -0.0199
 7590W        W24438  11.518   3.510   4.506 -0.0457  0.2264  0.0364
 7591W        W24439  16.789  17.174   1.970  0.2456  0.0417 -0.1479
 7592W        W24440  12.693  14.751   5.276  0.1063 -0.0281  0.0988
 7593W        W24441  15.832  15.484   5.374  0.2243 -0.1464 -0.3430
 7594W        W24442  12.196   9.124   1.689 -0.3374  0.3726 -0.0715
 7595W        W24443  15.987   5.271   0.715 -0.0040 -0.0776 -0.1540
 7596W        W24444  17.294   1.017  12.443  0.4468 -0.2547 -0.0525
 7597W        W24445   4.939   1.605  15.821  0.2335  0.1313 -0.2485
 7598W        W24446   7.926  14.880   4.492  0.0358 -0.1032 -0.0925
 7599W        W24447   3.384  15.277  14.897 -0.2799  0.0897 -0.0071
 7600W        W24448  14.109   8.096  15.172  0.1919 -0.1557  0.0241
 7601W        W24449  17.734   7.455  12.407  0.0252 -0.0127 -0.0473
 7602W        W24450   0.706   6.013   4.385  0.0978  0.1757 -0.2351
 7603W        W24451   8.482   0.205   5.666 -0.1586 -0.0668  0.1441
 7604W        W24452  11.850   4.226   1.667  0.1441 -0.0988  0.2633
 7605W        W24453  13.117   1.000  13.596 -0.4273  0.3114 -0.0082
 7606W        W24454  17.183   1.900   1.445  0.1972 -0.0156  0.0534
 7607W        W24455   7.064   2.255   3.162  0.1673  0.1072 -0.0654
 7608W        W24456  10.839   8.314   1.041 -0.0892  0.0184  0.0532
 7609W        W24457  17.171   4.374  14.263 -0.2701  0.2332  0.0608
 7610W        W24458   1.432  12.463  14.464 -0.0025 -0.0164 -0.1907
 7611W        W24459  10.342  10.457  12.320 -0.3888  0.2498  0.1249
 7612W        W24460   5.376  15.915  13.460  0.2341 -0.0350 -0.1971
 7613W        W24461  11.449  11.878   3.464  0.2008 -0.2293  0.1222
 7614W        W24462  13.275  16.097  16.032  0.2342  0.0977 -0.1263
 7615W        W24463   8.152  13.257  14.115 -0.1593  0.2008  0.1515
 7616W        W24464  17.301  12.040   1.734  0.0001  0.0237 -0.0617
 7617W        W24465   1.738   5.181  15.582 -0.1589 -0.1267 -0.1737
 7618W        W24466   5.394   5.382   1.043  0.2135 -0.0534  0.1723
 7619W        W24467  14.782  11.028  15.692  0.2511  0.1306  0.0658
 7620W        W24468   8.334   4.883   2.889  0.0693 -0.4637  0.0317
 7621W        W24469  16.526  11.354  14.079 -0.2679  0.1810 -0.1274
 7622W        W24470  11.266  10.051  14.129  0.1028 -0.2603 -0.4721
 7623W        W24471   9.259   4.252  13.384  0.0168 -0.0274 -0.1251
 7624W        W24472  13.832   2.656  13.467 -0.0298 -0.1654 -0.0657
 7625W        W24473   6.780  13.705  12.512 -0.0076 -0.0207  0.2154
 7626W        W24474  13.200   6.013   1.545 -0.0434 -0.0976  0.0703
 7627W        W24475   8.926  11.587  16.234 -0.0465 -0.2536  0.1543
 7628W        W24476   1.332   3.935   3.389  0.1628  0.2836 -0.0081
 7629W        W24477  11.885   7.278  15.431  0.1518  0.1878 -0.1443
 7630W        W24478   1.204   6.096   3.250 -0.4088 -0.1611  0.0203
 7631W        W24479  10.437  13.559  11.314  0.0561 -0.4169  0.0996
 7632W        W24480   6.053  11.659   3.049  0.1588  0.0508  0.1110
 7633W        W24481   9.897   9.256   4.748 -0.0657  0.1287  0.0843
 7634W        W24482   6.777  16.742   4.424 -0.0987 -0.1857 -0.0476
 7635W        W24483  16.485   5.293   4.796  0.0574  0.1890  0.1164
 7636W        W24484  14.394  10.131   4.978 -0.0024 -0.0055 -0.1080
 7637W        W24485   1.588  14.504   3.919 -0.0797  0.2718 -0.0629
 7638W        W24486   0.116   3.321  15.310 -0.2524 -0.0349  0.0782
 7639W        W24487  15.244   5.216   4.714  0.0328 -0.0333  0.0944
 7640W        W24488   2.651   9.183  11.119  0.0064 -0.0241  0.2204
 7641W        W24489  16.172  16.057   1.716 -0.2865 -0.1057  0.1627
 7642W        W24490   3.852  15.895   1.614  0.0547  0.0259  0.1698
 7643W        W24491   7.628  15.676  13.462 -0.0139 -0.0294 -0.0905
 7644W        W24492  10.885  17.680   1.679 -0.0491  0.0158 -0.0887
 7645W        W24493   7.543  10.254   1.051 -0.0750  0.0529  0.4261
 7646W        W24494  13.192   6.246  12.665 -0.2607  0.0758  0.1270
 7647W        W24495  12.114   9.789   1.069 -0.0929  0.0254  0.1035
 7648W        W24496  11.434  14.025  15.416  0.0845 -0.0755 -0.0100
 7649W        W24497  13.054  15.823   0.670 -0.1014  0.0014  0.4228
 7650W        W24498   9.709   1.702  13.208 -0.0349 -0.2110 -0.0421
 7651W        W24499   8.464   5.134   4.722 -0.0208 -0.0169  0.0759
 7652W        W24500   7.079   9.001  14.620 -0.1230  0.3002 -0.1326
 7653W        W24501   9.734  17.856   1.829 -0.1045 -0.1094 -0.2521
 7654W        W24502   5.571   5.377   5.772  0.0010 -0.1154 -0.1166
 7655W        W24503   8.624   2.031   3.256  0.1011 -0.1024  0.1349
 7656W        W24504  10.936   1.057   4.153 -0.1923  0.4058  0.0971
 7657W        W24505   4.578   6.671  16.237  0.1132 -0.1218 -0.1093
 7658W        W24506   7.263   4.786   1.691  0.0443  0.1374 -0.1801
 7659W        W24507  10.740   9.200  14.575  0.1342 -0.2690 -0.0359
 7660W        W24508  11.936  13.941   2.940 -0.0191  0.1065  0.2041
 7661W        W24509   6.640  11.467   0.766 -0.1954  0.2621  0.1505
 7662W        W24510   3.394   2.467   0.428  0.1645 -0.0256 -0.0513
 7663W        W24511  11.878  14.245   3.401  0.0807  0.3124 -0.0968
 7664W        W24512   5.114   6.809   4.147  0.1064  0.1064  0.2607
 7665W        W24513   1.425  15.750  15.069 -0.1832 -0.0103  0.0553
 7666W        W24514   7.313   9.468   2.810  0.1666  0.4665 -0.0290
 7667W        W24515  17.102   3.299   0.899  0.1149  0.1762 -0.3071
 7668W        W24516   7.841  17.577   4.639  0.1160  0.0120 -0.1186
 7669W        W24517   8.058  10.138   6.045  0.1872 -0.0399 -0.1443
 7670W        W24518  15.138   3.925   4.613 -0.0313 -0.2490  0.3499
 7671W        W24519   7.058   7.861   0.240  0.2356  0.3424  0.4162
 7672W        W24520   8.441  15.561  16.275  0.1200 -0.1866  0.1898
 7673W        W24521   9.711  12.044   0.505  0.1164  0.0681 -0.0298
 7674W        W24522   1.484  12.261   4.722  0.0425 -0.1220 -0.0976
 7675W        W24523  11.621   1.324  15.417  0.0950  0.0093 -0.1343
 7676W        W24524   6.707  14.166   0.307 -0.1410  0.4174  0.2251
 7677W        W24525  12.711   2.644   2.037 -0.3418 -0.2246  0.0499
 7678W        W24526   9.268   5.321   0.828 -0.1995  0.3057  0.2366
 7679W        W24527  11.895  14.491  13.632  0.4513 -0.2939 -0.1758
 7680W        W24528   6.852   4.935  10.571  0.1392  0.2607 -0.0958
 7681W        W24529  14.573  15.120   3.170 -0.3359 -0.1235  0.1776
 7682W        W24530  14.217  17.580   3.851  0.0317 -0.2171  0.1585
 7683W        W24531  10.176  10.846  15.090 -0.2858 -0.1017 -0.4695
 7684W        W24532  16.357  13.168  14.066 -0.2621  0.0290 -0.3414
 7685W        W24533  13.137   7.952  12.672 -0.2043  0.0118 -0.0592
 7686W        W24534   3.512  17.868  14.182  0.0567  0.0519  0.0004
 7687W        W24535   9.419   3.976   3.207 -0.0171 -0.0272  0.0903
 7688W        W24536   6.761   1.736  13.811  0.0648  0.0326  0.0806
 7689W        W24537  17.197  13.634   1.368  0.0040  0.0243 -0.1263
 7690W        W24538   4.728  10.947  13.414  0.0653  0.0777  0.4030
 7691W        W24539  12.893  15.750  13.306 -0.1755 -0.3643  0.0176
 7692W        W24540   9.554   4.513  15.724  0.1722  0.2789 -0.1801
 7693W        W24541   2.833  17.165  12.049  0.0321 -0.1229 -0.0927
 7694W        W24542   6.356  10.562  15.602  0.3205  0.3139 -0.1223
 7695W        W24543  17.330   9.673   3.033 -0.0495 -0.0085 -0.1689
 7696W        W24544  13.185  11.277   1.316  0.0744 -0.0285 -0.0997
 7697W        W24545   4.162  15.195   0.801 -0.1265  0.2741 -0.0115
 7698W        W24546   8.215  10.666   4.610  0.0370 -0.2178 -0.1608
 7699W        W24547   4.562   2.059   2.901 -0.0716 -0.0742  0.1987
 7700W        W24548   5.589  12.156  15.980 -0.1090 -0.1199  0.4036
 7701W        W24549  14.659   7.295   3.892  0.2867  0.0767 -0.1353
 7702W        W24550   1.591   1.942   4.056  0.1563  0.0925 -0.0259
 7703W        W24551   9.783   6.367   4.857  0.0349  0.0425 -0.0473
 7704W        W24552  11.147  11.966   2.620 -0.3042  0.0926  0.0406
 7705W        W24553  11.104  14.396  11.875 -0.1615  0.0110  0.0988
 7706W        W24554   3.251   9.093  12.875  0.1362 -0.2927 -0.4211
 7707W        W24555   3.679  15.533  13.063  0.0030  0.0577  0.1151
 7708W        W24556   3.755   5.897  12.560  0.0184  0.0569 -0.2831
 7709W        W24557   2.275  13.393  16.246 -0.2870  0.2221 -0.1355
 7710W        W24558   8.654   3.420  12.245  0.0300 -0.2749  0.1742
 7711W        W24559   1.360   6.385  14.999 -0.1148 -0.2902  0.0613
 7712W        W24560   2.567   3.263   4.523 -0.1901 -0.0728  0.1394
 7713W        W24561   4.085   3.987  11.545 -0.2357  0.0403 -0.0979
 7714W        W24562  13.580  11.817  14.023 -0.1220 -0.2688  0.3028
 7715W        W24563  13.500  17.284  12.954  0.2412  0.2071 -0.2425
 7716W        W24564   2.983   2.839  15.269 -0.1223  0.2001 -0.3214
 7717W        W24565  13.707   8.422   0.365 -0.3302  0.1344  0.1769
 7718W        W24566   3.804  16.432  11.961  0.0519  0.2425  0.0666
 7719W        W24567   9.036  14.317   3.629 -0.0242  0.2051  0.1285
 7720W        W24568  15.247   6.532  12.155 -0.1846 -0.4989  0.1711
 7721W        W24569   7.360   2.460   4.971  0.0090 -0.0015 -0.0407
 7722W        W24570  16.075  10.994  15.035 -0.1077  0.3901  0.1594
 7723W        W24571  16.379  14.968  12.245 -0.1543  0.0274  0.0491
 7724W        W24572   7.682  10.164   0.515 -0.1899  0.1619 -0.0064
 7725W        W24573   1.680   2.099   3.490 -0.2548  0.1563  0.1388
 7726W        W24574   6.498   7.244  14.377  0.0171 -0.1698  0.3894
 7727W        W24575  10.196   7.953  13.780 -0.2483 -0.2193  0.1567
 7728W        W24576   6.443  11.340   2.319 -0.1640 -0.2981 -0.1192
 7729W        W24577   8.616   7.924  11.991  0.3750  0.1662  0.2152
 7730W        W24578   4.722   8.579   4.265 -0.3789 -0.0273 -0.4607
 7731W        W24579  13.200   1.236  15.380  0.0192  0.1925 -0.0439
 7732W        W24580  14.142  10.702   5.944  0.0998 -0.2668  0.0530
 7733W        W24581   7.836   6.164  13.835  0.1211  0.0883 -0.0320
 7734W        W24582   3.843  12.751  12.664  0.1169 -0.4162 -0.0425
 7735W        W24583   9.806  12.752  12.345  0.1100 -0.1689 -0.0697
 7736W        W24584   2.686  14.105  15.413  0.0340  0.2108 -0.2590
 7737W        W24585   1.157   8.576  16.428  0.2300 -0.0516  0.1744
 7738W        W24586   9.971   5.144  10.963 -0.0785 -0.2492 -0.2527
 7739W        W24587  13.779  15.141  11.238  0.0041 -0.0817  0.1436
 7740W        W24588   3.322   2.404   1.084 -0.0265  0.0884  0.4256
 7741W        W24589   1.777  13.075  15.355 -0.1039  0.1488 -0.0672
 7742W        W24590   0.867   1.955  15.964  0.2615 -0.0403 -0.2368
 7743W        W24591   2.606   2.069   3.907  0.0237 -0.0498  0.0507
 7744W        W24592  12.845   9.839   0.348  0.0899 -0.0486 -0.2501
 7745W        W24593   2.195   1.813  14.021  0.0815  0.0728 -0.0402
 7746W        W24594   7.173   9.709   3.583  0.1964 -0.1519 -0.2483
 7747W        W24595  15.081  15.965  15.675  0.0244 -0.1964  0.0136
 7748W        W24596  11.841   6.051   6.048  0.2736 -0.1733  0.2369
 7749W        W24597   2.790  14.043  16.031 -0.0564 -0.1577 -0.1244
 7750W        W24598   3.907   6.898   2.276  0.2277 -0.1631  0.2755
 7751W        W24599  14.685  16.241  15.462 -0.1473  0.1465  0.1666
 7752W        W24600   1.025   3.501  14.252  0.1639 -0.1039  0.2977
 7753W        W24601   8.011  11.979  14.388 -0.0974 -0.1115 -0.3330
 7754W        W24602   0.852   4.355   2.892  0.1401  0.0667 -0.4293
 7755W        W24603   3.523  15.233  13.530 -0.2392  0.0488 -0.0260
 7756W        W24604  13.636   1.541   2.306 -0.1591 -0.1604  0.0160
 7757W        W24605  12.547  15.458  14.940 -0.1320 -0.0749 -0.2546
 7758W        W24606  12.499   9.669   5.174  0.1139 -0.2526 -0.1580
 7759W        W24607  12.954   5.557  11.406  0.2362 -0.2314 -0.0684
 7760W        W24608   2.858  10.025   3.466  0.0308 -0.0803  0.0339
 7761W        W24609  13.692  12.256  13.418  0.3531  0.0277 -0.1166
 7762W        W24610   1.211   1.318  15.100 -0.1489  0.0086 -0.2198
 7763W        W24611   6.576   4.875  14.904  0.1105  0.2769  0.0218
 7764W        W24612  12.202  10.946  15.922 -0.1746 -0.1148  0.1859
 7765W        W24613   6.304  17.218   3.463 -0.1954  0.0202  0.0062
 7766W        W24614   1.024   6.075   5.472 -0.1407 -0.1345  0.1718
 7767W        W24615   9.350   5.322  14.256 -0.2278  0.2948  0.1509
 7768W        W24616  11.724   6.768   0.118 -0.1217 -0.3431  0.0579
 7769W        W24617   8.829   3.157   3.678  0.0352  0.0077 -0.0464
 7770W        W24618   8.202   1.780   3.165  0.2277 -0.1354 -0.0227
 7771W        W24619   2.495   5.203  13.096  0.1227 -0.1755 -0.2798
 7772W        W24620  10.670   3.257  11.346  0.0288  0.2253  0.0797
 7773W        W24621  16.070   1.818   4.364 -0.1219  0.2577 -0.1793
 7774W        W24622  17.818   0.921  12.971  0.2538 -0.2297 -0.0579
 7775W        W24623  16.169   2.766   2.872 -0.1455  0.2431  0.0895
 7776W        W24624   1.144   2.092  16.429 -0.2236  0.2067 -0.0970
 7777W        W24625   8.324   5.997   4.375  0.0115  0.0229 -0.0622
 7778W        W24626  17.127   9.600   3.779  0.1660  0.1875 -0.1829
 7779W        W24627   3.572   1.112  14.707  0.4343  0.2569  0.2294
 7780W        W24628  15.008  17.225  16.048 -0.0832 -0.1184 -0.2499
 7781W        W24629   0.874  10.389   0.147  0.2124 -0.3432  0.0523
 7782W        W24630  11.347   6.637  12.073 -0.1789 -0.3156  0.0345
 7783W        W24631  12.687  15.487   2.700  0.3879  0.2149  0.1642
 7784W        W24632   7.526   7.724  15.034  0.1032  0.0682  0.3567
 7785W        W24633  13.735   3.224  13.381 -0.1469  0.1799 -0.0304
 7786W        W24634  17.248   8.973  13.652  0.1319  0.1216 -0.2800
 7787W        W24635  14.158  11.857  14.224 -0.0671  0.4423  0.3238
 7788W        W24636   7.818   0.331   3.245  0.0909 -0.0908  0.0123
 7789W        W24637   7.604   2.886   1.191 -0.3205 -0.0558  0.0278
 7790W        W24638   8.238   3.846   5.394 -0.1596 -0.1392  0.1345
 7791W        W24639   9.417   3.767  11.866  0.2975  0.1864  0.1971
 7792W        W24640   5.075  12.795   6.386 -0.0282 -0.0034 -0.3595
 7793W        W24641  14.522   6.989  11.399 -0.1023  0.1009  0.1172
 7794W        W24642  12.229   6.240  11.440 -0.1044 -0.0572 -0.0129
 7795W        W24643   6.575  17.600   5.201 -0.0657  0.2512  0.1490
 7796W        W24644  11.917  13.738   0.325  0.3158 -0.0339 -0.2574
 7797W        W24645   2.715   8.123   6.354 -0.0084  0.3012  0.2383
 7798W        W24646  10.663   2.200  11.516  0.0627 -0.2669  0.3853
 7799W        W24647  13.391   0.478   3.338  0.2949 -0.0964 -0.0611
 7800W        W24648   7.246   0.023  13.004  0.3716  0.1193  0.2381
 7801W        W24649   2.230   9.228  13.113  0.2932  0.0842 -0.1549
 7802W        W24650  11.829   6.483   0.572 -0.0263 -0.1647 -0.0726
 7803W        W24651   3.620   7.765   4.442 -0.0554 -0.1652 -0.1787
 7804W        W24652  15.201  17.628  12.307  0.0787  0.1006 -0.1042
 7805W        W24653  15.186   3.603  15.412 -0.1817 -0.1840  0.0819
 7806W        W24654   7.909   1.148  15.915  0.1525 -0.1247 -0.1831
 7807W        W24655  12.161   4.134   1.021 -0.1198 -0.1524 -0.1219
 7808W        W24656   0.241  13.927  14.507  0.3713 -0.1100 -0.1028
 7809W        W24657  11.908  13.958   4.147  0.0698 -0.1596 -0.3421
 7810W        W24658   3.301  11.464   4.956  0.0765  0.1540 -0.0595
 7811W        W24659   8.517   5.899  13.094 -0.0563  0.2102 -0.2492
 7812W        W24660  14.250  11.426  14.968 -0.0497 -0.0857  0.0008
 7813W        W24661   8.060   3.582   1.571  0.1611  0.1654  0.1705
 7814W        W24662   3.447   3.914   2.817  0.0037 -0.2410 -0.0472
 7815W        W24663  16.991  10.720  12.264  0.1778  0.0926 -0.0969
 7816W        W24664  17.187   3.298  15.288 -0.0013  0.0890  0.2598
 7817W        W24665   8.279  15.037   1.549  0.0576  0.0289 -0.4044
 7818W        W24666  12.127   8.944   3.458 -0.2528 -0.0769  0.0520
 7819W        W24667   0.670  14.089  16.438  0.0569 -0.1473  0.0732
 7820W        W24668  16.736   3.651  13.332 -0.0495  0.1239 -0.3410
 7821W        W24669  11.301  16.932   2.397  0.2022 -0.0279  0.2668
 7822W        W24670   6.964   2.201  13.654  0.0152  0.1784  0.3769
 7823W        W24671  16.498   0.603  13.038 -0.1332  0.0052 -0.1089
 7824W        W24672  13.062   7.231  13.470 -0.1004  0.1284  0.1355
 7825W        W24673  10.704   6.706   2.566  0.0570  0.4004 -0.0933
 7826W        W24674  16.884   0.338  10.417  0.0579 -0.0512 -0.1350
 7827W        W24675  14.637   3.095  13.458  0.3211 -0.0662 -0.1901
 7828W        W24676   2.722  12.322   2.314 -0.0518 -0.0929 -0.0393
 7829W        W24677   5.576  14.156   1.811  0.1889 -0.0518 -0.0058
 7830W        W24678   9.951  12.980  15.290  0.2792 -0.0090 -0.2979
 7831W        W24679  10.834   9.135  13.278  0.0415  0.1971 -0.1363
 7832W        W24680  10.474  14.342   3.033 -0.3249  0.2243  0.2062
 7833W        W24681   4.321   9.538  11.624  0.0980  0.0463 -0.0280
 7834W        W24682  11.760   1.307   4.812 -0.0071 -0.0513  0.2229
 7835W        W24683   0.810  10.708   4.812  0.0385  0.2263 -0.0427
 7836W        W24684  13.707  13.554  11.351  0.1593 -0.0208  0.1057
 7837W        W24685  17.573  13.110  13.480  0.3201 -0.3771 -0.0540
 7838W        W24686  14.002   1.938   3.622  0.1122  0.2772  0.1177
 7839W        W24687  15.004   3.051   3.542 -0.2242  0.0372 -0.0883
 7840W        W24688   6.464   2.260   5.603  0.0035 -0.0015 -0.0485
 7841W        W24689  15.340  10.263   3.011 -0.0806  0.1567  0.1305
 7842W        W24690  15.245  12.498   1.092  0.1078 -0.3213  0.1973
 7843W        W24691  10.379   4.235  13.944  0.0717 -0.1005 -0.2255
 7844W        W24692  15.896   2.499   0.949  0.1404  0.1410  0.0780
 7845W        W24693   0.449   1.401  13.563  0.4003 -0.0922 -0.1389
 7846W        W24694  10.942   5.274  13.573  0.0769  0.1065 -0.3349
 7847W        W24695  14.634  13.479  10.933  0.1423 -0.0956  0.1666
 7848W        W24696  13.088   7.496  15.200 -0.2897 -0.0082 -0.1208
 7849W        W24697   7.582  13.221   0.317  0.0170  0.3178 -0.2488
 7850W        W24698  10.211  17.027   3.499  0.1920 -0.1506 -0.1756
 7851W        W24699   7.219  13.708  12.242 -0.0617 -0.0049 -0.0283
 7852W        W24700  16.467   1.124  11.831  0.0449 -0.0057 -0.2697
 7853W        W24701   3.569   2.608  11.977  0.2811  0.0336 -0.0337
 7854W        W24702   9.262   1.657   2.833  0.0752  0.0106 -0.1570
 7855W        W24703  15.207  10.949   0.095 -0.0572  0.1158 -0.1194
 7856W        W24704  16.306   4.255  12.902  0.0531  0.2686  0.0715
 7857W        W24705  10.818   2.882   3.783 -0.0051  0.1493 -0.1830
 7858W        W24706   0.967  11.286   2.738  0.0604  0.0929 -0.0563
 7859W        W24707  17.185  10.343  12.645 -0.1704  0.1682  0.4104
 7860W        W24708   3.079  14.697   4.426  0.0810 -0.0056  0.0559
 7861W        W24709   5.390  12.317   2.948 -0.0156 -0.0005  0.1633
 7862W        W24710  14.101  15.347  15.373 -0.1051  0.0818  0.0679
 7863W        W24711   0.588   6.550   0.368  0.0033 -0.0308  0.2779
 7864W        W24712   2.622   6.722  14.627 -0.2325  0.0079  0.0112
 7865W        W24713   3.201  13.885  16.225 -0.3469  0.3554  0.0399
 7866W        W24714   2.120   5.623  15.684  0.3348  0.0711  0.0028
 7867W        W24715   5.142  16.879   5.402 -0.0297  0.0717 -0.0206
 7868W        W24716  10.918   9.134   4.058 -0.1007 -0.0081 -0.3882
 7869W        W24717   1.075   1.514  13.514  0.0742  0.1450 -0.1780
 7870W        W24718   4.008   7.420  12.414  0.1641  0.1422 -0.2820
 7871W        W24719  13.384   1.227   3.031 -0.0490  0.0786  0.2267
 7872W        W24720   7.046   7.471  15.068  0.2672  0.1302 -0.0107
 7873W        W24721   8.404  13.478   5.330 -0.0887  0.1433 -0.0291
 7874W        W24722   2.965   8.763   0.707 -0.1418 -0.2116  0.0620
 7875W        W24723   9.075  12.620  13.272 -0.0714  0.1697 -0.0205
 7876W        W24724  16.560  16.677  13.949 -0.0955  0.3136 -0.1683
 7877W        W24725   0.093  11.886   3.320 -0.2228  0.0507  0.1007
 7878W        W24726  15.831   5.836  11.912 -0.1946  0.1033  0.4445
 7879W        W24727  13.288   2.526  10.734  0.0515  0.0564  0.1389
 7880W        W24728  11.943   7.515  14.309 -0.2053 -0.5949  0.2147
 7881W        W24729   0.387   0.221  15.979  0.2249 -0.3164 -0.0113
 7882W        W24730   0.069  13.556  15.638 -0.0252 -0.0983 -0.1394
 7883W        W24731  17.492   0.069  13.435 -0.0510 -0.2719 -0.0536
 7884W        W24732   4.291  12.552   0.130 -0.0160  0.1684 -0.0342
 7885W        W24733  16.240   3.927   0.830 -0.1735 -0.0844 -0.0978
 7886W        W24734   1.591   4.522  16.228 -0.2067  0.1178  0.0659
 7887W        W24735  12.323   5.526  13.459 -0.0114 -0.1115 -0.0435
 7888W        W24736   5.771  10.558  10.455  0.0945  0.1608 -0.3166
 7889W        W24737   5.834   4.816   2.623 -0.2667 -0.0299  0.0403
 7890W        W24738   2.638   7.593  14.978 -0.1164 -0.1390  0.1483
 7891W        W24739   1.021  17.018  10.551  0.2085  0.1827 -0.0057
 7892W        W24740  16.135  13.004   1.889 -0.0292 -0.0882 -0.0405
 7893W        W24741  16.363   3.081  10.697  0.0988  0.0853 -0.1779
 7894W        W24742   0.925   1.575  13.981  0.1948 -0.1136 -0.0767
 7895W        W24743  17.799   2.058   2.349 -0.0839 -0.2123  0.0163
 7896W        W24744  13.969  12.955  13.605 -0.4194 -0.1484 -0.1838
 7897W        W24745   7.057   1.468   3.428 -0.0620 -0.1469 -0.0620
 7898W        W24746   9.594   6.594  14.097  0.0880  0.0757 -0.0679
 7899W        W24747  17.584   0.265  12.946 -0.0482 -0.1373  0.1153
 7900W        W24748  15.123  12.010  12.497 -0.0742  0.2030 -0.1068
 7901W        W24749   1.305  13.911  15.422  0.0939  0.1046  0.0650
 7902W        W24750   8.198   2.252  12.334  0.0578  0.3739  0.1919
 7903W        W24751  15.256   4.403  16.136 -0.0982 -0.0831 -0.1511
 7904W        W24752   5.434  14.486  13.989  0.0718 -0.3455 -0.0551
 7905W        W24753   4.818  16.672   1.473 -0.4042 -0.0908  0.0617
 7906W        W24754  17.061   9.147  14.760 -0.0147 -0.1781  0.2894
 7907W        W24755   8.088   9.256  12.340 -0.0453  0.2606  0.0419
 7908W        W24756   8.445  13.737   3.930  0.4552 -0.0582  0.0838
 7909W        W24757   4.366   6.139   3.843  0.1395 -0.1185  0.3443
 7910W        W24758   5.204   4.512  12.515 -0.1320  0.2434 -0.0393
 7911W        W24759  12.306   8.806  14.512  0.2711 -0.0953  0.0533
 7912W        W24760   1.182   1.918   3.376 -0.2426 -0.0564 -0.1352
 7913W        W24761   1.491   1.749  14.837  0.3855  0.5713 -0.0978
 7914W        W24762   6.184  12.379  14.175 -0.1328 -0.0124 -0.1094
 7915W        W24763   7.902   9.693  12.549 -0.1313 -0.1662  0.1038
 7916W        W24764   5.371  16.141   4.811 -0.1067 -0.3339 -0.1686
 7917W        W24765   0.675   2.399   2.806 -0.3702 -0.1648  0.0502
 7918W        W24766   0.343  12.761   0.976  0.0128  0.1288 -0.3575
 7919W        W24767  10.236   4.780  13.139 -0.0682  0.0944  0.1342
 7920W        W24768  16.255   4.428   1.176 -0.0187  0.2033 -0.1122
 7921W        W24769   8.386  14.891  10.438 -0.1257  0.0457 -0.0125
 7922W        W24770  10.102  16.385  11.127 -0.0505  0.4094 -0.2025
 7923W        W24771   4.400   8.163   2.036 -0.0734 -0.1451 -0.0792
 7924W        W24772  11.685   3.561  14.675  0.0265 -0.1733  0.0102
 7925W        W24773  14.977   5.827   2.248 -0.2518  0.5930  0.2345
 7926W        W24774  16.307  12.668  12.780 -0.2437  0.2064  0.1473
 7927W        W24775   3.435  10.283  14.085 -0.0940 -0.2599  0.0912
 7928W        W24776   6.710   9.352  13.452  0.2241  0.3747  0.3939
 7929W        W24777   1.926   1.539   1.853  0.0132  0.2658 -0.1771
 7930W        W24778   3.663  13.901   0.740 -0.0788 -0.2785  0.2455
 7931W        W24779   6.168   5.900  14.344  0.3155  0.2518 -0.0718
 7932W        W24780  11.469  15.881   3.047  0.0441  0.3904 -0.0837
 7933W        W24781  16.591  11.376   4.599  0.0201  0.0946 -0.3267
 7934W        W24782   4.217   3.543  11.342 -0.2280  0.1084 -0.0166
 7935W        W24783  17.220   4.826   4.362 -0.3662  0.2530 -0.2042
 7936W        W24784   0.115   0.376   2.746  0.0345 -0.0896 -0.3764
 7937W        W24785   0.948  17.403   0.035 -0.1660 -0.1472 -0.2573
 7938W        W24786   8.811   8.162  13.581 -0.1368  0.0409  0.2478
 7939W        W24787  12.678  16.517   2.833  0.1764  0.1572 -0.4026
 7940W        W24788   5.395  17.218  14.568  0.1127  0.1250  0.0522
 7941W        W24789  13.931  14.407   4.013  0.3925 -0.0661  0.1818
 7942W        W24790   5.622  14.912  16.093  0.0665 -0.1157 -0.1281
 7943W        W24791  12.511   4.693  14.487 -0.0677  0.2484  0.2102
 7944W        W24792  10.075   0.513   2.079  0.3223  0.0962  0.3278
 7945W        W24793  17.096   0.536   0.334 -0.0839  0.1479  0.1324
 7946W        W24794   4.855   6.864  12.867  0.2666 -0.1358  0.1834
 7947W        W24795  10.103  10.118   2.625 -0.2123  0.0754  0.2244
 7948W        W24796   8.349  12.353  12.532  0.2735 -0.1223  0.2219
 7949W        W24797  15.429   1.720   2.505  0.1829  0.0278 -0.1547
 7950W        W24798  14.987  16.923   4.279  0.3229  0.0155 -0.1500
 7951W        W24799   1.876   4.209   0.613  0.1753  0.0034 -0.3375
 7952W        W24800   5.753  17.319  16.242  0.0984 -0.0162  0.0924
 7953W        W24801   3.198   4.158  15.000  0.2811 -0.0768  0.2471
 7954W        W24802   5.962   5.015  14.360 -0.0754 -0.2464  0.1860
 7955W        W24803  16.489  13.897  12.731  0.0913 -0.0479  0.1188
 7956W        W24804   1.034   2.716  12.380  0.1931 -0.1431 -0.1830
 7957W        W24805   7.414  10.029  14.997 -0.2408 -0.2685 -0.0241
 7958W        W24806  15.173   7.040  12.366  0.1740 -0.0214 -0.0993
 7959W        W24807   7.648  11.236  15.581 -0.1027  0.3131 -0.0484
 7960W        W24808   1.741  16.672  15.012  0.1692  0.3067  0.2660
 7961W        W24809  13.732   4.197   2.558 -0.1676  0.2324  0.1186
 7962W        W24810  15.944   9.567  14.664 -0.1484  0.0839  0.3181
 7963W        W24811  17.285  10.544   4.647  0.1172  0.1019 -0.3205
 7964W        W24812  10.270  15.826  10.477  0.0720  0.3120 -0.1400
 7965W        W24813  11.827  11.348  10.516 -0.2971  0.1865  0.2660
 7966W        W24814   5.491   3.073  12.429  0.1975  0.1100  0.0646
 7967W        W24815  10.717   1.880   0.386  0.2784  0.0372  0.0249
 7968W        W24816   1.661   6.987  16.224  0.1050  0.3028 -0.2123
 7969W        W24817   6.154   5.885   3.994 -0.0765  0.1324 -0.1565
 7970W        W24818   9.332   1.517   0.872 -0.0737 -0.2628  0.4355
 7971W        W24819  15.577   5.172   5.162  0.0615 -0.0942 -0.2051
 7972W        W24820   8.118  13.351  11.881 -0.2728 -0.1988 -0.0080
 7973W        W24821   3.018   8.301   2.925 -0.2594 -0.0859 -0.0349
 7974W        W24822   7.581   8.338  15.967 -0.3164  0.1155 -0.1733
 7975W        W24823   4.147  13.563  13.077  0.3186 -0.3552 -0.2695
 7976W        W24824  12.557  12.699  14.055 -0.2846 -0.0507 -0.3408
 7977W        W24825  10.112  10.849   5.100  0.0508  0.1423 -0.3025
 7978W        W24826   3.740  12.055   0.774  0.1565 -0.1957 -0.3655
 7979W        W24827  15.291  13.008   2.220  0.0542  0.1079  0.0335
 7980W        W24828   5.194  17.033   4.156 -0.0093 -0.2334 -0.4719
 7981W        W24829   0.259  11.196   3.331 -0.0639  0.0933 -0.3506
 7982W        W24830   3.352  13.435  13.608 -0.1824  0.1012  0.2984
 7983W        W24831   7.535   9.432   4.507  0.3848 -0.1106  0.0452
 7984W        W24832   6.047  16.868  15.095  0.0757 -0.4407  0.0341
 7985W        W24833  10.998  13.363   0.311 -0.1390  0.1596 -0.2463
 7986W        W24834  12.936  10.026  16.245 -0.0137 -0.0186  0.3523
 7987W        W24835  15.209  17.284   3.089  0.3482  0.3249 -0.2936
 7988W        W24836   8.035   9.948   5.215 -0.0314  0.2614  0.0978
 7989W        W24837  16.501   3.521   4.931 -0.1046 -0.0667  0.3197
 7990W        W24838   5.744   3.547  13.121  0.1227  0.1882 -0.0503
 7991W        W24839  15.321   2.904  15.396  0.2095 -0.3937  0.0439
 7992W        W24840   0.761   8.751  15.686  0.2240 -0.0827  0.0421
 7993W        W24841  10.437   8.444   4.559 -0.1675  0.2279 -0.3516
 7994W        W24842  15.646  14.711   2.865 -0.0783  0.0230 -0.0038
 7995W        W24843  13.227  12.503  11.664 -0.1827 -0.3024  0.0517
 7996W        W24844  13.594   2.979   0.833  0.3862  0.2354 -0.0691
 7997W        W24845  17.548  11.912  12.593 -0.3244 -0.3391 -0.1898
 7998W        W24846   1.919   9.654  16.073 -0.1840  0.0845  0.2230
 7999W        W24847  15.128  13.350   1.306 -0.2453 -0.2657  0.0494
 8000W        W24848   3.116  12.137   2.087  0.3653  0.1120  0.0159
 8001W        W24849   6.858   1.711   2.434  0.2297 -0.0403  0.4643
 8002W        W24850  16.793  13.680   2.915  0.0982  0.1220  0.0191
 8003W        W24851   3.012   1.033   2.891 -0.0311  0.2962 -0.1768
 8004W        W24852   5.084   1.188   2.930 -0.0338  0.1455  0.0790
 8005W        W24853  17.371  15.157  15.052  0.0371 -0.0880  0.1038
 8006W        W24854   5.160   8.586  15.160 -0.1570 -0.2051 -0.0170
 8007W        W24855  14.604   8.616  15.992 -0.1014  0.1838  0.1458
 8008W        W24856   6.548   5.311   2.576  0.0184 -0.0277  0.2673
 8009W        W24857   7.703  14.855  12.830  0.0481  0.4194  0.1581
 8010W        W24858   7.209  11.182   3.835 -0.0656  0.2560 -0.1120
 8011W        W24859  15.812  13.669   2.417 -0.0863 -0.0084 -0.1594
 8012W        W24860   0.082  12.645  15.875 -0.0209  0.2479  0.0384
 8013W        W24861  12.173  14.351   3.962 -0.1813  0.2514  0.0144
 8014W        W24862  10.522   3.315  12.212 -0.0288 -0.4325  0.0234
 8015W        W24863  10.981  16.221  11.241 -0.0580  0.1573 -0.0073
 8016W        W24864   7.242   6.449   0.571 -0.0569 -0.0427 -0.0011
 8017W        W24865  17.070   9.948   3.359  0.0479  0.0660 -0.1845
 8018W        W24866  16.492   5.293   0.764 -0.0153  0.0162  0.2887
 8019W        W24867   3.172   7.966   0.270 -0.1363  0.1262 -0.1756
 8020W        W24868  14.177  12.538   3.597  0.1482 -0.2451 -0.1264
 8021W        W24869  11.378   0.969  16.308  0.3875 -0.1585 -0.5752
 8022W        W24870   2.406   0.635  11.838  0.0762  0.3837  0.0597
 8023W        W24871   7.655  11.768  10.386 -0.0240 -0.0618 -0.1875
 8024W        W24872  14.972  13.081  10.888 -0.0873  0.2715  0.2521
 8025W        W24873   0.549  12.010  14.296  0.2235  0.2933  0.2579
 8026W        W24874   7.831   9.621   4.910 -0.1436 -0.3359  0.3737
 8027W        W24875  17.596  11.740  15.499  0.5038 -0.0124  0.2293
 8028W        W24876   8.976   5.682  14.563 -0.0831  0.0871  0.0533
 8029W        W24877   3.309  14.374   1.767  0.0398  0.0918 -0.1748
 8030W        W24878  17.025   5.124   4.842 -0.1615 -0.0995 -0.1667
 8031W        W24879  15.041  12.519  15.827 -0.0815 -0.2065  0.1122
 8032W        W24880  10.662   0.314  15.080  0.0596  0.0199  0.3612
 8033W        W24881   5.616   1.046   4.602 -0.3392 -0.0597  0.2587
 8034W        W24882   3.679   2.908   1.577 -0.0978  0.0171  0.1254
 8035W        W24883  15.420  10.152  14.720 -0.0917 -0.0592  0.0202
 8036W        W24884  16.895  16.754   4.605 -0.0370  0.2052 -0.1871
 8037W        W24885  17.535  16.350   1.117 -0.2154  0.0916  0.3037
 8038W        W24886  14.134   7.934  13.058 -0.2096  0.0434 -0.1090
 8039W        W24887   4.500   3.705  10.375 -0.1727 -0.2172 -0.0518
 8040W        W24888   8.084   9.435   3.214 -0.1683 -0.2430  0.1174
 8041W        W24889   8.245   6.448   1.407 -0.2805 -0.2192 -0.0423
 8042W        W24890   3.412  13.947   1.535  0.1990 -0.0248 -0.4538
 8043W        W24891   3.114   8.960   1.652 -0.3914  0.0454 -0.1044
 8044W        W24892  13.475  11.554   1.677  0.0203 -0.1093  0.2163
 8045W        W24893   6.077   1.214  12.605  0.1642 -0.0081  0.0966
 8046W        W24894   7.423   4.770  12.257 -0.2109 -0.1621  0.2325
 8047W        W24895  15.333  16.507   2.383 -0.2217 -0.1355 -0.0491
 8048W        W24896   6.619   7.276  15.340 -0.1060  0.0522  0.1023
 8049W        W24897  16.277   0.018   4.232  0.3452 -0.2324  0.0401
 8050W        W24898   8.318  15.106  16.133 -0.0642  0.1043 -0.1678
 8051W        W24899  17.337   3.468   1.287 -0.0973 -0.1018  0.0511
 8052W        W24900  11.417  14.855  13.625  0.1265 -0.0238  0.1001
 8053W        W24901  14.377   0.185  16.157  0.1480 -0.0446 -0.1738
 8054W        W24902   2.138   2.305   3.102  0.1227 -0.2312  0.0969
 8055W        W24903  11.569  11.709  13.139  0.3500 -0.0400 -0.1259
 8056W        W24904   0.364  14.784  15.498  0.0523  0.0406 -0.0868
 8057W        W24905  10.738   9.347  15.358 -0.0783  0.2200 -0.3101
 8058W        W24906   6.857   5.475  14.769  0.2822 -0.2899 -0.1567
 8059W        W24907  16.311   2.509  16.087  0.0101  0.2028  0.0437
 8060W        W24908  13.330   9.149  11.746 -0.2497 -0.2576 -0.0377
 8061W        W24909   0.739   9.362  13.287  0.0421 -0.3312 -0.3305
 8062W        W24910   5.900  15.273  15.410  0.2228  0.0316 -0.0738
 8063W        W24911   6.972  13.378   1.732 -0.2387 -0.2602  0.3409
 8064W        W24912  11.397   3.171  14.480 -0.0228  0.0452  0.3209
 8065W        W24913   6.778  16.384  14.816  0.0057 -0.0428 -0.0638
 8066W        W24914  13.332  10.311  11.007 -0.0576  0.2092  0.2152
 8067W        W24915  10.614   9.038  13.717 -0.1609  0.1195  0.0828
 8068W        W24916   0.123  16.240  14.512 -0.3174 -0.1288 -0.1299
 8069W        W24917  11.039  16.476   5.455  0.2106 -0.0704  0.1247
 8070W        W24918   0.777  16.274   4.690  0.2381  0.1068  0.1428
 8071W        W24919   9.285  11.140   5.284 -0.1389  0.0540  0.0953
 8072W        W24920   0.046  10.662   4.036 -0.2622 -0.1912  0.4288
 8073W        W24921  11.726  12.275   5.005  0.2267 -0.0343  0.1880
 8074W        W24922   3.992  14.891   0.404 -0.3101  0.3232 -0.4674
 8075W        W24923   7.026   7.376   3.465 -0.0514  0.0433  0.4410
 8076W        W24924   4.400  16.282  11.013 -0.0278  0.2487  0.2522
 8077W        W24925  16.207   8.657   3.441  0.0544  0.0748  0.3111
 8078W        W24926   5.049  14.338  14.269 -0.1726 -0.0401 -0.1348
 8079W        W24927  16.232  15.367  13.895 -0.0173  0.0793 -0.1749
 8080W        W24928  13.098  11.797   2.793  0.1409  0.0457  0.0272
 8081W        W24929  11.413   3.455   5.013  0.0845 -0.0293  0.1918
 8082W        W24930  12.098   7.166  13.402  0.2268  0.1800  0.1599
 8083W        W24931   1.964   6.147   5.222 -0.1690 -0.1109 -0.2119
 8084W        W24932   3.694   8.224  12.906  0.3170  0.4059 -0.1554
 8085W        W24933   8.749   4.803   3.237  0.0497 -0.0862  0.0631
 8086W        W24934   0.237   3.801  16.039  0.1474  0.0246  0.0921
 8087W        W24935   7.137  14.114   4.856  0.2863  0.1350 -0.2833
 8088W        W24936  10.800  14.671   5.449  0.1153 -0.1853  0.0736
 8089W        W24937   8.457   2.304   2.821 -0.0919  0.1913  0.0236
 8090W        W24938  11.285   8.313  14.751 -0.0300 -0.0923  0.0781
 8091W        W24939  10.678   7.258   0.482 -0.2804 -0.1371  0.0095
 8092W        W24940   6.788   0.208   4.007  0.2336  0.0297 -0.0554
 8093W        W24941   3.728  12.406   1.956 -0.1916  0.2301 -0.1112
 8094W        W24942   4.866  15.685  12.259 -0.0493  0.0860 -0.1139
 8095W        W24943   6.172  10.037  13.006  0.3099  0.0032 -0.1383
 8096W        W24944   9.931   1.675   4.639 -0.1469 -0.1014  0.2206
 8097W        W24945   8.033  11.851  13.354  0.2601 -0.2138 -0.1436
 8098W        W24946   8.344   8.492   3.411 -0.0871  0.1908  0.1889
 8099W        W24947  11.198   7.057  11.036  0.1578  0.1338 -0.0357
 8100W        W24948  11.801   1.585  16.259 -0.2651  0.5311  0.0084
 8101W        W24949   5.163  17.183   2.708 -0.1697  0.1007  0.2941
 8102W        W24950   1.249  15.331   3.524 -0.0390 -0.0779 -0.0050
 8103W        W24951  15.068  10.659  12.434  0.1188 -0.1146 -0.1127
 8104W        W24952  13.426  12.367  15.208 -0.1899  0.0517 -0.0431
 8105W        W24953  16.999  10.528  14.532 -0.0996 -0.2310  0.0617
 8106W        W24954   9.297  15.359   1.844 -0.0858  0.1859 -0.0865
 8107W        W24955   8.560   6.989   0.267 -0.1033  0.1500 -0.0352
 8108W        W24956  15.317  14.881  11.184  0.1351 -0.1372  0.0129
 8109W        W24957   6.472   5.503  15.569 -0.1581  0.1205  0.0195
 8110W        W24958  11.172   0.319  12.656 -0.0832  0.1855 -0.0950
 8111W        W24959  13.882   5.966   1.993 -0.1890  0.0856  0.1188
 8112W        W24960  11.365   1.564   2.192  0.1323  0.2431 -0.2215
 8113W        W24961   7.280   6.829   3.263 -0.1942  0.0268 -0.0114
 8114W        W24962  13.319   6.981  14.335  0.0573  0.0024 -0.2273
 8115W        W24963   6.496   4.663   5.232  0.0256  0.0338  0.0828
 8116W        W24964   8.070   5.703  11.464  0.0084  0.0239  0.0004
 8117W        W24965   2.016  14.389  12.842  0.2079  0.0833 -0.2002
 8118W        W24966  13.081   6.129   4.160  0.1943  0.0007 -0.3293
 8119W        W24967   4.512  14.489   3.104 -0.0092 -0.2216 -0.0307
 8120W        W24968   5.707  14.470  11.927  0.1301 -0.3243  0.0530
 8121W        W24969   3.666   6.058  16.219  0.2860  0.2584 -0.0054
 8122W        W24970  14.203   6.092   3.619  0.1314  0.0182  0.0200
 8123W        W24971  11.347  11.204   4.983  0.3461 -0.0253  0.0458
 8124W        W24972   3.714  14.922   0.825 -0.0707 -0.0977 -0.0023
 8125W        W24973   9.345   9.564   6.181 -0.0032 -0.0421 -0.1742
 8126W        W24974   0.955   3.105  12.046 -0.0696  0.1605 -0.1076
 8127W        W24975   3.235   6.895  15.654  0.3712 -0.0558  0.1226
 8128W        W24976   0.137  14.643  13.001  0.1354 -0.1961 -0.0354
 8129W        W24977  14.526  12.524  15.740 -0.0408  0.7270 -0.1565
 8130W        W24978   2.576  15.467   4.625 -0.2636  0.3209 -0.1659
 8131W        W24979   8.721  17.099  13.529 -0.2059  0.0318 -0.0580
 8132W        W24980  14.983  16.232  14.795 -0.0804  0.1101 -0.2234
 8133W        W24981   1.288  17.689   4.798  0.2177  0.2640  0.0651
 8134W        W24982   0.619  13.525  12.203 -0.0233  0.0866  0.0410
 8135W        W24983   5.648  10.802  13.762  0.0482  0.3251 -0.1950
 8136W        W24984   1.976  15.279   4.622  0.1739 -0.0170  0.1075
 8137W        W24985  14.188   6.382   2.195  0.2951  0.0683 -0.0124
 8138W        W24986   8.189   0.440  12.605 -0.2021  0.5686 -0.0521
 8139W        W24987   7.639   7.645   5.067  0.0580  0.3187 -0.2623
 8140W        W24988   3.060  16.785   3.353  0.2526  0.3909  0.0094
 8141W        W24989   7.268   9.386  12.506  0.0894 -0.1106 -0.0436
 8142W        W24990   9.466   6.181   0.708  0.3292 -0.1294 -0.0585
 8143W        W24991  11.490   0.550   3.637 -0.1767 -0.3282  0.1190
 8144W        W24992  13.387  16.685  15.487  0.2198  0.1285  0.1823
 8145W        W24993   0.779   4.859   5.060  0.0058  0.1055 -0.4452
 8146W        W24994   0.017   0.776   1.477  0.4603  0.1473 -0.2614
 8147W        W24995  15.252   8.977  11.772  0.1696 -0.0063 -0.1036
 8148W        W24996   0.851  17.431  15.473 -0.0846  0.0473 -0.1167
 8149W        W24997  12.729   1.529  15.368  0.0979 -0.1651  0.0625
 8150W        W24998   8.857   6.923  16.236 -0.1652 -0.1123 -0.2142
 8151W        W24999   2.621  12.937   3.806 -0.3318 -0.1174  0.1923
 8152W        W25000  11.929   6.556   2.084  0.2830  0.1351  0.0289
 8153W        W25001   7.949  17.536  16.054 -0.2204 -0.1231 -0.0021
 8154W        W25002   9.812  14.610   5.061  0.2735  0.2948 -0.3661
 8155W        W25003   9.520   6.651   4.138  0.3235  0.1322 -0.3357
 8156W        W25004   3.789   5.600  12.951  0.0733  0.2255  0.2711
 8157W        W25005   4.104  15.799   3.228 -0.1090  0.3807  0.1863
 8158W        W25006   0.433   8.169   5.160  0.0452 -0.2039  0.0256
 8159W        W25007  16.259  10.126   3.683  0.0704 -0.0742 -0.2309
 8160W        W25008   7.021   1.545  11.463  0.0486 -0.0827  0.1409
 8161W        W25009   1.543  17.754   3.525  0.2362  0.3592  0.0984
 8162W        W25010   4.776   0.527   5.140 -0.2697  0.1260 -0.0524
 8163W        W25011   3.370   3.566  13.413 -0.2088 -0.2308 -0.0225
 8164W        W25012  14.955   4.551   3.121  0.0393 -0.1304  0.1681
 8165W        W25013  12.200   2.358  14.592 -0.0811  0.0330  0.0553
 8166W        W25014  12.443  13.874   4.089 -0.0329 -0.3965  0.3464
 8167W        W25015  14.289  14.304   3.087 -0.1033  0.2401  0.4498
 8168W        W25016   5.745  14.458   4.469  0.1052  0.0889  0.0441
 8169W        W25017   3.484   7.645  15.292  0.0742  0.3331  0.3429
 8170W        W25018   4.786  10.607   3.720  0.1951  0.2647 -0.3481
 8171W        W25019  14.971   0.961   0.332  0.0159 -0.4407 -0.1785
 8172W        W25020  13.349   3.169  15.357 -0.3776 -0.2865  0.1777
 8173W        W25021   9.907   8.436  14.274  0.1490  0.0417  0.0999
 8174W        W25022  12.391  13.378   0.249 -0.0282  0.1667 -0.0557
 8175W        W25023  13.974   5.187  14.182 -0.1379  0.1858 -0.1698
 8176W        W25024   1.288  11.073  15.476 -0.1122 -0.1874 -0.0680
 8177W        W25025  12.609   5.507  12.974 -0.4014 -0.1666 -0.1113
 8178W        W25026   2.492   5.721  13.703  0.1339  0.2049  0.1284
 8179W        W25027   7.452   5.283  16.148 -0.1664 -0.0169 -0.0611
 8180W        W25028  16.337  16.097  15.335  0.0324 -0.2431 -0.2293
 8181W        W25029  15.682  16.371   1.513 -0.0393  0.2437  0.3085
 8182W        W25030  16.807   7.283  12.056 -0.1296  0.1345 -0.2014
 8183W        W25031  17.109   7.426   4.538  0.0588  0.2597  0.2122
 8184W        W25032  12.580   7.541  14.128  0.0137  0.1910  0.0722
 8185W        W25033  12.812  15.494  15.345 -0.2078  0.1989 -0.1653
 8186W        W25034  12.514  14.892   1.468  0.0569 -0.4346  0.2481
 8187W        W25035  14.899   2.342  12.145  0.2167 -0.0058  0.5350
 8188W        W25036  10.440  15.982  15.449  0.0454  0.2677 -0.2760
 8189W        W25037   9.003   3.978  13.691  0.0228  0.1164  0.0339
 8190W        W25038  11.398  10.583  11.594  0.4357 -0.1285  0.1593
 8191W        W25039  16.176  14.648  14.406 -0.0292  0.1104  0.0645
 8192W        W25040  10.496   9.863  13.174 -0.1547  0.1407  0.1049
 8193W        W25041  17.118   9.880  11.493  0.3062 -0.1099 -0.1650
 8194W        W25042   9.146   0.456  15.646  0.0255  0.2063 -0.1567
 8195W        W25043  12.820   4.126  13.784  0.0102 -0.5534 -0.0894
 8196W        W25044   3.885  11.080   2.214  0.0254  0.2929 -0.4270
 8197W        W25045  11.531  10.095  11.570  0.1543 -0.4705 -0.0729
 8198W        W25046  16.885   6.819  14.679  0.0087  0.2969 -0.1519
 8199W        W25047   0.236  10.612  16.053 -0.0301  0.0539 -0.1652
 8200W        W25048   5.587   7.701   1.313 -0.2646  0.3303 -0.0975
 8201W        W25049   2.222  11.952  13.119  0.0352 -0.0917  0.1573
 8202W        W25050  14.386  12.931  13.282  0.0453  0.2578  0.1223
 8203W        W25051  17.487   4.035  15.799 -0.1372 -0.1882 -0.1926
 8204W        W25052   8.742   4.986  10.922 -0.0000  0.0203 -0.5087
 8205W        W25053   1.867   8.495   3.114  0.1556 -0.1100  0.0449
 8206W        W25054   4.345  10.123   2.999 -0.4106  0.0686  0.1468
 8207W        W25055  13.222  14.691   0.267 -0.1389 -0.1195  0.1449
 8208W        W25056  17.313  12.709   3.981 -0.0736 -0.2817  0.3138
 8209W        W25057   9.087   9.091   4.756  0.1739  0.2530 -0.2017
 8210W        W25058   6.804  15.945   5.991  0.3094  0.1288 -0.1687
 8211W        W25059   6.631  17.725  11.665  0.1751  0.0172  0.0984
 8212W        W25060   8.852   0.456   1.759  0.0979  0.2411 -0.1268
 8213W        W25061   6.030  15.383  14.559 -0.2029  0.1594 -0.2061
 8214W        W25062   0.344   5.637   0.430  0.2679  0.1418  0.0852
 8215W        W25063   6.916   5.839   3.297 -0.0669 -0.0783  0.3614
 8216W        W25064  10.835   0.867   1.019  0.1240  0.3437 -0.3077
 8217W        W25065   9.794   8.554   5.294  0.2402  0.2358  0.1642
 8218W        W25066   5.859   2.917  15.431  0.0049  0.1087 -0.3749
 8219W        W25067   0.474  15.964   1.993 -0.0386  0.1315  0.1455
 8220W        W25068   3.420  11.782  16.290  0.0625 -0.1938 -0.0747
 8221W        W25069   2.402   3.538  13.494 -0.0345  0.0714 -0.0873
 8222W        W25070  11.262  13.680  15.045  0.1386  0.0211 -0.1300
 8223W        W25071  16.481   0.387   5.174 -0.2121 -0.0680  0.0307
 8224W        W25072  13.503  13.012   3.193 -0.1635  0.1549 -0.1032
 8225W        W25073   2.740  13.494   3.840 -0.0401  0.2529 -0.1651
 8226W        W25074  12.353   3.104   1.299 -0.1902  0.4035 -0.0934
 8227W        W25075   8.622   0.897  14.356 -0.1092  0.0995  0.0422
 8228W        W25076  13.729   8.609   3.457  0.0898  0.1039 -0.0465
 8229W        W25077   9.111   1.676  16.456  0.1576 -0.0836 -0.0533
 8230W        W25078  15.405   1.464   4.307  0.1666  0.0316  0.4030
 8231W        W25079   8.195  15.437  14.989 -0.2045  0.1972  0.1066
 8232W        W25080   7.205   6.191  11.834 -0.1723 -0.2189 -0.0344
 8233W        W25081  11.823  17.592   2.790 -0.1977 -0.0147 -0.2094
 8234W        W25082   3.161   5.498  13.733  0.1149 -0.1621  0.0887
 8235W        W25083  14.848   5.405  11.461  0.1593  0.0059  0.0442
 8236W        W25084  13.686  15.287   3.528 -0.0796  0.0950  0.0652
 8237W        W25085   2.567   0.218  16.315  0.2093  0.1686 -0.0738
 8238W        W25086   4.973   2.898  15.850 -0.3567  0.2015  0.2022
 8239W        W25087  16.459   5.930   2.094  0.1869  0.0289 -0.5045
 8240W        W25088  11.058   2.656  13.493  0.1833 -0.2188  0.2382
 8241W        W25089   0.924   9.351   4.728 -0.3080 -0.2728 -0.1185
 8242W        W25090   1.325   8.172  13.416 -0.0848  0.1140 -0.0815
 8243W        W25091   2.325  15.632   4.231 -0.2047 -0.0737  0.1150
 8244W        W25092  14.447   5.363  11.890  0.2483 -0.0901  0.4308
 8245W        W25093  15.936   4.720   0.793 -0.1003 -0.1373 -0.3357
 8246W        W25094  17.596  12.125   0.962 -0.0056 -0.0569  0.2011
 8247W        W25095  11.085   3.215   2.574 -0.0539  0.1678 -0.1370
 8248W        W25096  11.870  12.479  10.359  0.0158 -0.1732 -0.0418
 8249W        W25097  16.984  13.946  15.284 -0.0466  0.1564  0.1527
 8250W        W25098   5.413   4.008  12.587  0.6546 -0.0421  0.1327
 8251W        W25099  14.935   6.369   3.632  0.1660 -0.1412  0.1046
 8252W        W25100   1.755   8.031  12.548 -0.0843 -0.2444  0.3748
 8253W        W25101  16.429   6.682  11.661 -0.0997  0.1271  0.2148
 8254W        W25102   4.414   3.791   2.865  0.2123  0.1376 -0.1755
 8255W        W25103  17.106  14.012  14.403  0.4237 -0.1445  0.0388
 8256W        W25104   4.595   5.794  12.082 -0.3381  0.0560 -0.3386
 8257W        W25105   8.672   3.727  16.312  0.5443  0.2604  0.3734
 8258W        W25106  17.132  12.834   3.391 -0.3720  0.0270  0.1657
 8259W        W25107   4.566   0.296   3.896  0.0002  0.1953  0.0022
 8260W        W25108  15.180   0.216   4.232  0.0088  0.0574  0.4090
 8261W        W25109   9.787   9.922   0.474  0.2812 -0.2082  0.1260
 8262W        W25110  11.700   8.435   3.964 -0.1926 -0.1585  0.1919
 8263W        W25111  14.883  17.198  13.312  0.1244 -0.2781  0.0717
 8264W        W25112  12.868   0.367   2.584  0.1408 -0.1250 -0.0016
 8265W        W25113  15.858  16.713   3.696  0.0426  0.3095  0.0520
 8266W        W25114  12.978  17.837  16.143 -0.4397 -0.0606 -0.0839
 8267W        W25115   2.759   0.629   1.375 -0.0171  0.2998 -0.0135
 8268W        W25116  14.683   9.471   1.682 -0.0380  0.3287  0.1554
 8269W        W25117  11.471  17.563  14.111  0.3736  0.0466 -0.0943
 8270W        W25118   5.122  13.913  12.013 -0.1323 -0.1490 -0.1107
 8271W        W25119  10.495   8.906  12.141 -0.0458  0.0338 -0.1793
 8272W        W25120   0.381  13.749  11.220 -0.2655  0.0875 -0.2157
 8273W        W25121  10.976  10.747   2.851 -0.1568 -0.1570 -0.2468
 8274W        W25122  13.675  12.350  11.525 -0.1052  0.1163 -0.0693
 8275W        W25123  11.531   6.326   0.934 -0.0005  0.0265 -0.0010
 8276W        W25124   9.465  17.106   0.536 -0.0605 -0.3039 -0.0657
 8277W        W25125  15.779   3.589   3.998  0.0664 -0.0837 -0.0446
 8278W        W25126   0.554   8.877  13.132 -0.0715  0.0487 -0.2942
 8279W        W25127  10.241  11.432   4.412 -0.0809  0.1298  0.1941
 8280W        W25128   9.506   3.411   0.302  0.0196  0.2734  0.1749
 8281W        W25129  15.674  10.083  15.284  0.2112  0.1239  0.0496
 8282W        W25130   0.905   0.044  13.498 -0.0623  0.0030  0.1517
 8283W        W25131   2.405   4.566  13.857 -0.1931 -0.2568 -0.0439
 8284W        W25132  10.783   4.075   5.136 -0.3138 -0.2441  0.3840
 8285W        W25133  17.653   5.898  15.939 -0.0146  0.2725 -0.2874
 8286W        W25134  12.418  17.648   3.901  0.2173  0.0484  0.0113
 8287W        W25135   0.013   0.838   2.933  0.3231 -0.2327 -0.5322
 8288W        W25136  17.283   5.708   0.290  0.0249 -0.1794 -0.0590
 8289W        W25137  17.680   5.797  12.262  0.3105  0.1062 -0.0411
 8290W        W25138  16.603  15.176  13.179 -0.1157  0.1420 -0.0609
 8291W        W25139  16.988  10.805  16.239 -0.1775 -0.0282  0.0074
 8292W        W25140  15.820  13.846   4.014 -0.1624 -0.4066  0.0841
 8293W        W25141   2.863  10.289   2.007  0.2123 -0.1317 -0.1146
 8294W        W25142  15.868  15.854   4.982  0.0178 -0.0799 -0.2393
 8295W        W25143  13.131  17.788  11.632  0.0454  0.3154 -0.3269
 8296W        W25144  10.268   0.952  14.505 -0.2203 -0.0202 -0.3355
 8297W        W25145  15.419   6.696  13.169  0.3633  0.0398  0.0508
 8298W        W25146   7.098   7.353  12.927 -0.2970 -0.0600  0.0787
 8299W        W25147   2.180   7.491  14.713  0.1113  0.0764 -0.1986
 8300W        W25148  10.935  10.960   3.523 -0.2392  0.2343 -0.2732
 8301W        W25149  11.025  14.915  11.913 -0.0639 -0.2857 -0.2245
 8302W        W25150   2.259   8.203  13.899  0.3305  0.4049  0.1286
 8303W        W25151  10.024   7.578   3.823  0.1154 -0.0480  0.1081
 8304W        W25152   5.666   0.243  14.990  0.2687 -0.0362  0.1231
 8305W        W25153  14.080   2.763  15.302  0.1330  0.3302  0.0964
 8306W        W25154  16.234   1.884  13.256  0.0477 -0.2621  0.2286
 8307W        W25155  11.439  16.695   4.587  0.0184  0.1534  0.1753
 8308W        W25156  16.289   9.171  15.941  0.0269 -0.0210  0.0324
 8309W        W25157   6.376   0.556  16.165  0.1697  0.0637 -0.1334
 8310W        W25158  10.791  14.138   0.839 -0.1366 -0.0387 -0.0810
 8311W        W25159   6.729   4.660  15.866 -0.0745  0.3378 -0.1133
 8312W        W25160   2.348  11.275   3.331  0.2165 -0.1017  0.1152
 8313W        W25161   3.654  13.992  16.022 -0.2680  0.1373 -0.1400
 8314W        W25162  13.590   1.989   0.764 -0.0065  0.1493  0.2567
 8315W        W25163  17.134  12.421   3.663  0.1115 -0.1868 -0.2430
 8316W        W25164   4.242  14.945   3.353  0.1218 -0.1814 -0.0577
 8317W        W25165   9.990   2.908  14.476  0.0682  0.0280 -0.0958
 8318W        W25166   3.699   2.031  16.130  0.0516 -0.0546  0.3250
 8319W        W25167   8.938   9.883   0.979  0.1813  0.2207 -0.0909
 8320W        W25168  16.085   1.014   3.404  0.1826 -0.0213 -0.6100
 8321W        W25169  15.480   5.193  15.635  0.3173  0.0799 -0.1230
 8322W        W25170  13.657   2.679  11.597 -0.3363  0.1348 -0.2328
 8323W        W25171   6.500  16.075   0.823  0.1693 -0.2144  0.3832
 8324W        W25172   7.188   9.233  13.365  0.1702 -0.0231  0.0139
 8325W        W25173   0.485   4.579  11.972  0.2208  0.1862  0.1174
 8326W        W25174  14.298  16.919   0.086 -0.0525 -0.1565 -0.0832
 8327W        W25175  10.164   8.790  11.433 -0.0046 -0.4192 -0.2205
 8328W        W25176  11.078   1.835  14.318 -0.0371  0.2552  0.1356
 8329W        W25177   6.691   1.171  11.570 -0.0312 -0.0889  0.0809
 8330W        W25178   0.542   6.571   1.439  0.0888  0.1523 -0.0632
 8331W        W25179   2.519   3.838   3.506 -0.0129  0.1990 -0.0592
 8332W        W25180   7.633   6.051   2.606  0.2517 -0.0604  0.0105
 8333W        W25181  13.427  11.809  15.658 -0.0537 -0.2270 -0.5090
 8334W        W25182  17.614  12.649   3.545 -0.0694 -0.1782 -0.0030
 8335W        W25183  14.674   0.380   4.083  0.0931  0.2339 -0.0728
 8336W        W25184   5.270  12.164  12.459  0.0386 -0.0726 -0.1850
 8337W        W25185  12.179  10.483   0.345  0.1229  0.0664 -0.2527
 8338W        W25186  13.831   6.552   3.342 -0.1928 -0.1307 -0.1359
 8339W        W25187  13.989  15.128   0.457 -0.0857  0.3347  0.0873
 8340W        W25188   0.121  16.575   3.702 -0.0711 -0.0240  0.1798
 8341W        W25189   8.440  14.696  16.416  0.0984 -0.2530 -0.0314
 8342W        W25190  11.761  12.306   3.389  0.0466 -0.2172  0.1509
 8343W        W25191  15.311   1.332  13.849  0.0267  0.0067  0.1108
 8344W        W25192   0.770   3.573   3.432 -0.2066 -0.0763  0.0863
 8345W        W25193   8.755   7.238   5.299 -0.0635  0.0106  0.0723
 8346W        W25194  17.008   7.019   3.616  0.1146  0.6520 -0.2771
 8347W        W25195   7.978   4.908   2.433 -0.0375  0.0022  0.0232
 8348W        W25196   5.672  16.673   3.178 -0.1078 -0.0842  0.1428
 8349W        W25197   3.988  15.269  11.826  0.0444  0.1465 -0.0832
 8350W        W25198  13.402   5.685  11.787 -0.1259 -0.1551  0.2254
 8351W        W25199  10.366  14.685   5.124  0.0389  0.3034 -0.2422
 8352W        W25200  16.481  14.420  13.605  0.0868  0.0884  0.2893
 8353W        W25201  13.291   7.631  13.412  0.1134  0.2149  0.1909
 8354W        W25202  12.882   6.857   5.730 -0.2808  0.1126 -0.3905
 8355W        W25203   9.838   4.583  12.745 -0.2720  0.2439 -0.1636
 8356W        W25204   4.230   9.423   0.850 -0.0893 -0.0459  0.0223
 8357W        W25205   4.996  17.440  14.786 -0.0463  0.0468  0.2465
 8358W        W25206   5.367  13.984  13.278 -0.0093 -0.0100  0.0961
 8359W        W25207   7.348  11.573   2.337 -0.0814 -0.1118  0.0758
 8360W        W25208   4.423   0.731   0.363 -0.0316  0.2766  0.3075
 8361W        W25209   4.776  15.608   2.471 -0.5052 -0.2681 -0.3407
 8362W        W25210   2.805  12.530   2.856 -0.1842  0.0563 -0.0409
 8363W        W25211  11.957   9.383   3.500 -0.1907 -0.4621 -0.3321
 8364W        W25212  11.625  11.995   1.980 -0.0493  0.1419  0.4562
 8365W        W25213   5.506  11.058  15.489  0.1519  0.0321  0.1582
 8366W        W25214   0.660   9.944  12.348  0.3282  0.1206 -0.3630
 8367W        W25215  17.226  10.494  11.337  0.1347  0.1143  0.3374
 8368W        W25216  11.208  17.146   3.463 -0.0565 -0.1799 -0.0784
 8369W        W25217  11.715   7.064  10.900 -0.1800  0.1773  0.1160
 8370W        W25218   2.289   4.362  11.888 -0.2524 -0.1242 -0.0198
 8371W        W25219   6.242  15.539  13.561 -0.5176 -0.0939  0.1000
 8372W        W25220  12.018  17.037  14.069 -0.2780  0.0099 -0.1681
 8373W        W25221  17.746   3.002   4.371 -0.1093 -0.1087  0.1946
 8374W        W25222  15.870   4.355   4.662 -0.1032  0.1825  0.1529
 8375W        W25223  14.637  12.137   2.814 -0.3411 -0.2479  0.0531
 8376W        W25224   6.096   3.644   0.782 -0.0093 -0.0512  0.0833
 8377W        W25225   3.696   2.449   2.152 -0.0642 -0.4827 -0.0503
 8378W        W25226  16.118   2.955   0.916  0.1166 -0.2482  0.1378
 8379W        W25227   5.837  16.631   2.646  0.0963  0.2460 -0.0424
 8380W        W25228   6.174  12.303  13.371  0.3241  0.0018  0.3364
 8381W        W25229   1.373  16.507  11.831 -0.2331  0.2400 -0.0095
 8382W        W25230   8.598  16.573   2.034 -0.0017  0.0609 -0.2874
 8383W        W25231  15.427  13.964  11.232  0.1244 -0.2708 -0.2038
 8384W        W25232  15.214   2.391   3.111 -0.1402  0.3110 -0.1407
 8385W        W25233  12.185   8.601  13.716 -0.0892 -0.1664  0.0746
 8386W        W25234   2.994   9.448   5.361 -0.0320 -0.3906  0.0144
 8387W        W25235  12.138   5.935  14.281  0.2121  0.3318  0.2175
 8388W        W25236  15.934   7.645  12.505  0.0182 -0.0791 -0.0162
 8389W        W25237   2.083   5.117   2.269 -0.0693  0.0919  0.0324
 8390W        W25238  14.984   3.721   0.872  0.1439 -0.2514  0.1897
 8391W        W25239  17.688  16.849   4.034 -0.1514 -0.0143  0.0975
 8392W        W25240  10.656  12.502  13.738 -0.0638 -0.0062  0.1502
 8393W        W25241   3.309  12.122  12.487  0.0341 -0.1877 -0.0497
 8394W        W25242  13.809   2.436   1.128  0.0200 -0.2686 -0.1045
 8395W        W25243  10.355   3.422   6.141 -0.0365 -0.1120  0.0911
 8396W        W25244  11.431   5.851  15.016  0.1219 -0.1149 -0.1784
 8397W        W25245   5.774  13.225  16.223 -0.0020 -0.1403 -0.2445
 8398W        W25246  11.712   7.263  12.003 -0.1958 -0.1898 -0.0250
 8399W        W25247  11.331  17.255   0.826  0.0322 -0.2225 -0.1185
 8400W        W25248  10.820  12.436   1.151  0.0532  0.1808  0.4649
 8401W        W25249  11.926   4.550   0.790  0.0126 -0.0584 -0.0125
 8402W        W25250   2.169  17.241  11.461 -0.2847  0.0608  0.0186
 8403W        W25251  10.029   7.881  14.403 -0.1436 -0.0020  0.3055
 8404W        W25252   0.398  16.269   4.058 -0.0536 -0.0635  0.1231
 8405W        W25253  15.495   6.796  16.320  0.0465 -0.1304 -0.1635
 8406W        W25254  13.149  11.838   3.885  0.3257  0.2250 -0.0893
 8407W        W25255  16.669   7.245   1.244 -0.0813 -0.0634  0.1995
 8408W        W25256   1.628   2.250   2.995 -0.0302 -0.0306 -0.1838
 8409W        W25257   5.719   8.530  11.336 -0.0874 -0.0182  0.1539
 8410W        W25258   3.648  14.777  11.891 -0.0560  0.3638  0.3326
 8411W        W25259  14.588   6.174  12.222 -0.1978 -0.3319  0.1351
 8412W        W25260   0.164   8.016  14.121 -0.2633  0.0141  0.0292
 8413W        W25261   6.431   7.382   2.579 -0.3928 -0.2084 -0.1462
 8414W        W25262  10.677  17.458  16.388  0.1253 -0.1047  0.2656
 8415W        W25263   8.734  10.946  14.118 -0.0034  0.1422 -0.2210
 8416W        W25264  17.424  13.045  14.016  0.0476 -0.0372  0.5187
 8417W        W25265   0.278  11.562   3.670 -0.0735  0.3511  0.2630
 8418W        W25266  11.132   6.476  14.260 -0.2016 -0.0057  0.4298
 8419W        W25267  11.814  17.011   1.152  0.1564 -0.0084 -0.0489
 8420W        W25268  14.378  11.366  14.499  0.0469  0.1858  0.2321
 8421W        W25269   1.472  14.869   2.328 -0.0210  0.0009 -0.2037
 8422W        W25270  13.207   6.512  15.186 -0.0428 -0.2362 -0.1187
 8423W        W25271   7.209  11.261  13.304 -0.2190  0.1356  0.0331
 8424W        W25272   1.851   7.563   2.586 -0.2439 -0.0050  0.4628
 8425W        W25273  16.369   4.157   2.943 -0.2812 -0.3133  0.0506
 8426W        W25274  14.836   4.174  11.306 -0.0750  0.2244  0.1051
 8427W        W25275  13.130   6.965   0.540  0.3200 -0.3925 -0.0574
 8428W        W25276  15.495   9.810  12.462  0.0735 -0.1011  0.2151
 8429W        W25277   6.124   9.845  11.926  0.0184  0.2315 -0.0000
 8430W        W25278   1.243  11.518   2.334 -0.0295 -0.0075  0.1821
 8431W        W25279  15.972   7.956   5.088  0.0843  0.0789  0.0665
 8432W        W25280   4.842  16.688  12.962  0.1393  0.0967  0.3295
 8433W        W25281  13.860   8.972   5.119  0.1954  0.1081 -0.0342
 8434W        W25282   3.273   7.111  16.344  0.0194 -0.0773  0.2992
 8435W        W25283  13.306   7.115   0.105  0.3302 -0.1169  0.1134
 8436W        W25284  12.000   9.420   2.023 -0.0531 -0.1717 -0.2018
 8437W        W25285   8.018  14.306  12.575 -0.1071 -0.1170 -0.2379
 8438W        W25286  14.974  13.311   0.810  0.0448 -0.0140 -0.4145
 8439W        W25287  17.481   0.164   1.852  0.0221  0.0125  0.0917
 8440W        W25288   4.507  17.709  14.261 -0.1488  0.3661 -0.1361
 8441W        W25289   2.571  15.680  11.571 -0.0487  0.3016 -0.1198
 8442W        W25290   1.708  13.787   0.189 -0.1458  0.0994 -0.4362
 8443W        W25291   5.369  10.671  12.893 -0.1387  0.2103 -0.0175
 8444W        W25292   5.111   1.411  14.783  0.0209  0.0698 -0.1491
 8445W        W25293   2.772   1.542  14.061 -0.0568  0.1149 -0.0993
 8446W        W25294   8.938   0.587  12.903  0.1192  0.0081  0.1171
 8447W        W25295   3.682   0.888  13.849 -0.1059  0.0625 -0.3232
 8448W        W25296  11.922  11.706  16.066 -0.2806 -0.2521  0.1536
 8449W        W25297   8.354  14.582   2.846  0.0228  0.3779 -0.0950
 8450W        W25298  14.619  12.074   1.484  0.0276 -0.0081  0.0810
 8451W        W25299   6.239   8.462  11.367 -0.2024  0.0490  0.1321
 8452W        W25300   9.634   8.096  11.179 -0.0690  0.2700  0.0361
 8453W        W25301   1.447  10.022  14.828 -0.2707  0.0481  0.5233
 8454W        W25302   9.007   2.973   1.167  0.1491  0.0048 -0.1669
 8455W        W25303  15.782  10.600  11.448  0.1483 -0.3978 -0.1329
 8456W        W25304  12.111   3.867   1.901  0.0015  0.1805 -0.2618
 8457W        W25305   4.783   9.474   0.922 -0.1554  0.1604  0.0354
 8458W        W25306  16.987   4.197   3.096 -0.1896 -0.1584  0.3567
 8459W        W25307   3.210   8.249   5.623 -0.0203 -0.0412  0.4140
 8460W        W25308  15.195   6.912  15.957  0.0594  0.0527 -0.0143
 8461W        W25309   3.480   7.511  16.300  0.1576 -0.0349 -0.0640
 8462W        W25310  10.378   8.459  13.751  0.1891 -0.0015 -0.0753
 8463W        W25311  11.181   6.808   0.011 -0.0088  0.1767 -0.1215
 8464W        W25312  13.633  16.671   3.624 -0.1519  0.2456  0.3369
 8465W        W25313   9.250   8.418   0.351 -0.3166  0.1094 -0.1498
 8466W        W25314  13.031  17.360   3.461  0.2374  0.2682  0.0840
 8467W        W25315  11.081   2.883   5.626 -0.4715 -0.0448  0.2445
 8468W        W25316  11.126  10.403   4.730 -0.0601  0.1821  0.0962
 8469W        W25317  15.563   1.429  16.436  0.3319  0.1790 -0.1652
 8470W        W25318   1.108  10.987   0.696  0.3448 -0.1439 -0.1136
 8471W        W25319  16.878  14.970  15.839 -0.0325  0.1125  0.1463
 8472W        W25320   8.268   5.284   2.500 -0.0314 -0.0130 -0.2033
 8473W        W25321   0.998  15.084  14.216 -0.0291  0.1347  0.0718
 8474W        W25322   0.933   0.945  10.624  0.1693 -0.1513  0.3037
 8475W        W25323  17.784  13.881  12.439  0.0025  0.1415  0.2497
 8476W        W25324  12.770   2.984  16.206  0.0358  0.1272  0.1121
 8477W        W25325   4.802  17.309   0.792  0.0041  0.0672  0.0493
 8478W        W25326  14.027   5.784  14.097  0.0399  0.1024 -0.0368
 8479W        W25327   9.976   1.383  15.379  0.0854 -0.0281 -0.2809
 8480W        W25328   0.499  11.437  16.082 -0.0887 -0.0657 -0.1322
 8481W        W25329  15.114   0.590  13.651  0.0946  0.1572 -0.2474
 8482W        W25330   1.151  10.012  13.990  0.3608 -0.2952  0.1437
 8483W        W25331  12.447   4.467   0.872  0.3251  0.2744  0.1981
 8484W        W25332  11.909  10.271  15.455 -0.1494  0.1143 -0.3049
 8485W        W25333   1.342   7.606  14.154 -0.0152  0.2727  0.0162
 8486W        W25334  10.691   0.114   0.550  0.0381  0.4061  0.0354
 8487W        W25335  11.178   5.080   4.654  0.2087  0.0744 -0.0568
 8488W        W25336   5.886  13.931   2.196  0.0322 -0.0408  0.0655
 8489W        W25337   2.829   6.163  16.392 -0.0997 -0.0742  0.1548
 8490W        W25338  10.227  15.084   3.308  0.0409  0.0376 -0.0330
 8491W        W25339  16.362  17.686  14.872  0.0135 -0.2021 -0.1171
 8492W        W25340   9.109   2.102  12.003 -0.0118  0.3313 -0.2661
 8493W        W25341   1.413  17.694  12.181 -0.1342 -0.0601  0.2447
 8494W        W25342   4.258   6.913   1.877  0.1106  0.0773  0.1743
 8495W        W25343   6.183   0.424  12.196 -0.2027 -0.3114  0.0288
 8496W        W25344  10.038   3.124  15.811  0.1359 -0.0600  0.0302
 8497W        W25345   2.144  16.995   1.831 -0.0767  0.0832 -0.0388
 8498W        W25346  14.531  17.286   1.838  0.0837 -0.1801  0.3780
 8499W        W25347  13.001  14.351   4.475  0.0160  0.1394  0.2256
 8500W        W25348   1.594  13.978   4.006 -0.0510  0.0401 -0.2447
 8501W        W25349   4.893   5.377  14.806  0.2437 -0.1175 -0.2166
 8502W        W25350   9.341   2.146  14.384 -0.0009 -0.0175 -0.3641
 8503W        W25351   2.686   9.735  10.775  0.1240 -0.0079  0.0848
 8504W        W25352  12.521   9.858  14.367 -0.3215  0.0479 -0.0518
 8505W        W25353  16.357  11.860   3.379  0.0913 -0.3177 -0.1108
 8506W        W25354  11.395   7.012   3.727  0.2210  0.0731 -0.0395
 8507W        W25355   0.270   4.469  14.856  0.0977 -0.3330 -0.1952
 8508W        W25356  10.637  12.318  11.810  0.5138 -0.0830  0.0888
 8509W        W25357   0.305  15.327  15.465 -0.0104  0.2370  0.2032
 8510W        W25358  17.709  15.371  12.055  0.3631 -0.3107 -0.0337
 8511W        W25359   1.999  13.384   0.241 -0.0053 -0.0488 -0.1054
 8512W        W25360   7.783   3.905  13.288  0.1183  0.3217 -0.1869
 8513W        W25361  10.945  11.590  13.478  0.1986 -0.0383 -0.1058
 8514W        W25362   1.112   0.945  14.787  0.0140  0.0215  0.0408
 8515W        W25363  15.511  10.595  15.332  0.1403 -0.2100  0.0291
 8516W        W25364  16.993   6.901   1.018 -0.2053 -0.0901  0.0518
 8517W        W25365   9.728   7.348   1.520 -0.1334  0.1254  0.2286
 8518W        W25366   3.163  14.382  15.120  0.1336 -0.1270 -0.1037
 8519W        W25367   9.717   7.670  12.848  0.1055 -0.2045  0.4076
 8520W        W25368   9.704  14.909   3.333  0.0526 -0.1488  0.1354
 8521W        W25369  14.730   8.716  11.950  0.2120  0.1345 -0.1451
 8522W        W25370  12.878   2.799   2.543 -0.0408 -0.1654 -0.1206
 8523W        W25371   9.500  14.042  13.313 -0.0909 -0.0510 -0.0619
 8524W        W25372   2.550  16.923  11.671  0.0440  0.2237 -0.1839
 8525W        W25373   7.248   3.406  13.794 -0.0079  0.1923  0.0189
 8526W        W25374   0.743   1.810  16.386  0.2513 -0.0488  0.1012
 8527W        W25375  16.186  13.189  15.751  0.1909 -0.2468  0.2069
 8528W        W25376  14.268  15.894   3.702 -0.0519 -0.4146  0.1125
 8529W        W25377  17.575   7.016  16.441 -0.2865  0.0421 -0.0848
 8530W        W25378  12.590  13.990  13.405 -0.0129 -0.1102  0.2031
 8531W        W25379   0.635  13.158  16.380  0.1990 -0.1001  0.1686
 8532W        W25380   3.589  17.505  11.766  0.3001  0.0701  0.0708
 8533W        W25381   4.442  13.913   5.126  0.2310 -0.2433  0.0125
 8534W        W25382   1.350   8.364   4.296  0.2189  0.1575 -0.0688
 8535W        W25383   7.914   5.138  15.984 -0.0199 -0.6314 -0.1804
 8536W        W25384  16.958   0.547  15.686 -0.1353  0.2530 -0.2313
 8537W        W25385   5.131  17.015  15.641  0.2548 -0.2619  0.0803
 8538W        W25386  15.965   8.334   1.197  0.4234 -0.2563 -0.0210
 8539W        W25387  13.398   5.277   0.496 -0.1108 -0.2229 -0.1710
 8540W        W25388   2.597   8.251   4.710  0.3998  0.0337 -0.1589
 8541W        W25389   2.152  17.273  13.019  0.1177 -0.0296 -0.1103
 8542W        W25390  12.510   3.325  12.871 -0.0072 -0.1672  0.1104
 8543W        W25391   5.076  13.683   2.528  0.0079 -0.2627  0.3074
 8544W        W25392  11.261   4.107  11.677 -0.3194  0.0873  0.0255
 8545W        W25393  16.362  10.617  14.729 -0.4496  0.0747  0.1089
 8546W        W25394  17.048   1.427  12.219  0.2243  0.0793  0.2645
 8547W        W25395   6.904   0.318   2.721 -0.0510  0.1720 -0.0503
 8548W        W25396   0.807   7.677  12.913  0.0119 -0.3016 -0.0635
 8549W        W25397   7.421  15.711   4.745  0.1304  0.2236  0.1386
 8550W        W25398   1.180   4.402  14.370 -0.0938  0.1320 -0.0831
 8551W        W25399   8.463   0.892  11.506  0.1528  0.0002  0.0945
 8552W        W25400   9.442   8.069  16.444 -0.1092  0.1778 -0.1084
 8553W        W25401   1.587  12.941  11.256  0.2953 -0.0701 -0.1844
 8554W        W25402   9.959   8.873  11.916 -0.1951 -0.0375  0.0002
 8555W        W25403  16.936   6.550  15.115  0.1840  0.0353 -0.1717
 8556W        W25404  16.621  12.380   3.708  0.2097  0.2299 -0.1307
 8557W        W25405   6.122   2.295   1.595  0.0310  0.0959  0.1831
 8558W        W25406  14.905   8.153   2.710 -0.2966 -0.0969  0.2282
 8559W        W25407   4.120   6.707  13.760  0.2962  0.1582  0.1013
 8560W        W25408   2.617   6.811  11.762 -0.0998  0.1788 -0.2001
 8561W        W25409  12.505  11.363  13.632 -0.3026  0.1627  0.1211
 8562W        W25410  17.649   9.061   5.992 -0.2032 -0.0693 -0.1325
 8563W        W25411   0.271   3.376   0.407  0.1291  0.4107  0.1502
 8564W        W25412   5.305   7.309   3.976  0.1077 -0.1247  0.1008
 8565W        W25413   7.019   5.077  15.174  0.3811  0.0726  0.2978
 8566W        W25414   3.862   1.085  15.267  0.0179  0.2134  0.0103
 8567W        W25415  12.499   8.182  12.366  0.3610 -0.2899  0.1151
 8568W        W25416   1.877   0.314   1.999 -0.2379 -0.0930  0.1452
 8569W        W25417   1.703  13.733   1.137 -0.1502  0.1156 -0.3227
 8570W        W25418   2.499  16.685   3.990  0.1665 -0.0342  0.0163
 8571W        W25419   9.647   8.077   0.428 -0.0653 -0.1828  0.2585
 8572W        W25420   2.219  11.385   2.281 -0.1707 -0.2211  0.0473
 8573W        W25421  12.702  12.987   0.360 -0.1395 -0.2285  0.1342
 8574W        W25422  17.818  14.207  10.769 -0.0059  0.0521 -0.0935
 8575W        W25423  10.290   1.881  11.190 -0.0339  0.2711  0.0985
 8576W        W25424  12.930  14.330  14.590  0.0470  0.0996 -0.1300
 8577W        W25425   8.586   7.472  12.637 -0.0219 -0.1142 -0.2889
 8578W        W25426  15.395   8.991  13.693  0.1999 -0.1161 -0.0764
 8579W        W25427   7.879  15.437  13.999  0.1626 -0.0276 -0.1229
 8580W        W25428   2.102   3.483   2.781  0.0341  0.0356 -0.1923
 8581W        W25429  15.118   7.681   2.253  0.0434 -0.2552 -0.0521
 8582W        W25430   0.551   4.760  14.685 -0.2765 -0.1123 -0.0727
 8583W        W25431   2.358   8.551  12.292 -0.1908  0.2224  0.0596
 8584W        W25432   9.992  16.659   5.320 -0.2159  0.2450  0.1887
 8585W        W25433   2.304  12.385   3.162 -0.2637  0.3679  0.1856
 8586W        W25434  10.571   1.104   1.925  0.1577 -0.2894 -0.0875
 8587W        W25435   7.839   5.724   4.437  0.2036 -0.0742 -0.0801
 8588W        W25436   9.255  13.747  13.712  0.0307  0.2571  0.0138
 8589W        W25437   1.304  12.217   4.009 -0.0171 -0.1218  0.1023
 8590W        W25438  17.713  11.654   1.783  0.1146  0.0557  0.0898
 8591W        W25439   6.260  15.055   0.521 -0.1880  0.0414 -0.0474
 8592W        W25440  14.511   1.876  13.682 -0.0177 -0.1500 -0.0685
 8593W        W25441   4.989  10.992  11.934  0.0041 -0.1384 -0.0979
 8594W        W25442  17.777   7.597  13.884  0.1665  0.1156 -0.1447
 8595W        W25443  16.316   4.350   4.420  0.2031 -0.0879  0.2327
 8596W        W25444   0.875   3.006  14.395  0.2575  0.1962 -0.1812
 8597W        W25445   1.632  15.146  13.482 -0.1429 -0.0113  0.3870
 8598W        W25446  16.988   6.098   3.746  0.3650  0.1606 -0.1537
 8599W        W25447   7.705  11.301   4.163 -0.4229 -0.1908  0.0291
 8600W        W25448   2.930   4.355  13.310 -0.2250 -0.1513  0.0772
 8601W        W25449   2.707   1.124  14.261 -0.0455 -0.0413 -0.4514
 8602W        W25450  12.342   5.528  12.540  0.2420 -0.1412  0.0397
 8603W        W25451   7.198  13.161   4.791  0.1885  0.0132  0.3428
 8604W        W25452   3.444   3.788  14.292  0.0753 -0.1756 -0.0053
 8605W        W25453   1.539  16.131  15.561  0.4094 -0.1618  0.0720
 8606W        W25454   4.261   0.538  15.002  0.2152  0.0355  0.1226
 8607W        W25455   7.180  10.954   3.358  0.0383  0.0288  0.2719
 8608W        W25456  11.876   4.811   5.096 -0.2799  0.2621 -0.1069
 8609W        W25457  11.982   2.625   3.054  0.1676 -0.1019  0.0052
 8610W        W25458   4.011  15.352  12.389 -0.2964  0.1812 -0.2118
 8611W        W25459  13.952   2.815  14.454  0.1677 -0.0440  0.1320
 8612W        W25460  10.448   5.010  12.334  0.2368  0.0136 -0.0484
 8613W        W25461   8.177   8.307   1.056 -0.1522  0.3385  0.1117
 8614W        W25462   3.545  12.187   1.221 -0.0759  0.1532 -0.0453
 8615W        W25463  10.880   8.538   0.514  0.1676  0.0138 -0.1617
 8616W        W25464  13.201  12.807  12.883 -0.2944 -0.1527  0.1141
 8617W        W25465   9.256   3.370  11.638  0.1356  0.1035  0.4018
 8618W        W25466   7.471   1.428  16.202  0.0908 -0.0684 -0.2224
 8619W        W25467  17.434   3.304   3.222  0.2458 -0.1129  0.1572
 8620W        W25468  10.559   4.335   0.365  0.0984 -0.2562  0.0498
 8621W        W25469  17.330  17.674   2.393 -0.2353  0.2127 -0.1468
 8622W        W25470   7.697  14.856   0.307 -0.1503  0.2042 -0.0540
 8623W        W25471  12.019   9.712  11.455 -0.0550 -0.1388  0.0553
 8624W        W25472   7.051   9.391   0.406  0.1621 -0.0489  0.3833
 8625W        W25473   2.017   7.059   0.140  0.0012 -0.0515  0.0183
 8626W        W25474   4.883   0.934   6.094 -0.1935 -0.0505 -0.2908
 8627W        W25475   9.766  11.217  12.174  0.3083 -0.0874 -0.2122
 8628W        W25476  12.276  12.239  14.058 -0.1084 -0.3831  0.1670
 8629W        W25477  12.618   4.855   4.404 -0.1875  0.1748 -0.2754
 8630W        W25478   5.438  15.344   0.381  0.1901  0.2467 -0.3193
 8631W        W25479   6.270   2.358   3.198  0.1025  0.0104  0.0200
 8632W        W25480   1.253  13.415   2.844  0.0791 -0.2644 -0.0475
 8633W        W25481  16.242   5.340  16.197 -0.0681 -0.0692 -0.1017
 8634W        W25482   2.402   2.093   4.348 -0.3816 -0.0961  0.3949
 8635W        W25483  13.335  11.916  13.109  0.2426 -0.1997 -0.0914
 8636W        W25484  11.639   4.043  15.363 -0.1909  0.0754  0.1525
 8637W        W25485   2.224  10.716  11.326  0.1580  0.0789  0.0582
 8638W        W25486  14.549  11.892  16.393  0.0172 -0.1329 -0.0668
 8639W        W25487  11.665  15.009  11.143 -0.1981  0.1319 -0.0527
 8640W        W25488   2.266   4.569   5.905 -0.1008  0.2390  0.1137
 8641W        W25489  12.909   2.925  11.343  0.1329 -0.1426 -0.0228
 8642W        W25490   2.111  10.961  10.407  0.1656  0.0329 -0.3831
 8643W        W25491  12.713  10.434   4.592  0.1931 -0.0504 -0.0047
 8644W        W25492   1.149   6.380   1.707 -0.1307  0.0493  0.1559
 8645W        W25493  15.146   6.902  14.648  0.0227  0.3570  0.1933
 8646W        W25494  15.347   6.097   1.061  0.0741  0.0727 -0.1351
 8647W        W25495  17.622  16.784  11.131 -0.0861 -0.0765  0.2251
 8648W        W25496  13.971  16.405  12.902  0.0192 -0.1967 -0.2588
 8649W        W25497   8.394   3.091   3.246 -0.3389 -0.0609  0.3007
 8650W        W25498   5.768  13.383  15.259  0.0781  0.1071  0.3515
 8651W        W25499   1.170   6.643  13.949 -0.2931 -0.0231 -0.2627
 8652W        W25500   5.261  12.523   3.678 -0.2115 -0.1567 -0.0651
 8653W        W25501   7.265  13.595   1.003 -0.0217 -0.3006  0.0143
 8654W        W25502   0.605   4.049  11.242 -0.1070  0.3112 -0.0277
 8655W        W25503  15.879   6.542  13.348 -0.0882 -0.2458 -0.2631
 8656W        W25504   2.126  16.145  11.511  0.0447 -0.0367  0.1009
 8657W        W25505   9.496  17.774   4.247  0.0858  0.0126  0.1018
 8658W        W25506   7.800  10.251  16.407 -0.2357 -0.1158  0.0097
 8659W        W25507   0.123   9.682   2.859  0.1573 -0.0246  0.1476
 8660W        W25508  14.103  17.056  14.064  0.2156 -0.0178 -0.1168
 8661W        W25509  10.414   8.626   0.487  0.0550  0.5879  0.1116
 8662W        W25510   8.402   9.730  15.217 -0.4109 -0.1740 -0.0063
 8663W        W25511  17.876  13.327   3.176 -0.2529 -0.1655  0.1622
 8664W        W25512   6.764  16.162  15.276 -0.1368  0.1218  0.0334
 8665W        W25513   0.936   2.814  15.222 -0.1725 -0.1514 -0.1878
 8666W        W25514  15.498   8.187   0.492  0.2461  0.2176  0.1349
 8667W        W25515  13.449   5.620  11.225 -0.0465 -0.1737  0.2596
 8668W        W25516   8.071  12.123  16.142  0.1109 -0.1230  0.3570
 8669W        W25517  12.360  17.712   4.544 -0.1211  0.0739  0.0409
 8670W        W25518  15.194   1.811   1.114 -0.1486  0.1207  0.2336
 8671W        W25519   2.389   2.669  13.844  0.0640 -0.0173  0.3813
 8672W        W25520   2.479  16.021   3.853  0.1820  0.2801 -0.0786
 8673W        W25521  10.048  10.051  13.086  0.2545 -0.0278 -0.0298
 8674W        W25522   2.409  15.869  15.341 -0.1830 -0.2019 -0.1956
 8675W        W25523   5.599   8.288   0.228 -0.0948 -0.0837 -0.0127
 8676W        W25524   6.521   9.757   2.455  0.2846 -0.0721  0.1549
 8677W        W25525  12.778   6.249   1.544 -0.4677 -0.0525 -0.0462
 8678W        W25526   1.871  10.173  11.372  0.0586 -0.1009 -0.2419
 8679W        W25527  12.476   2.439  12.918 -0.1808 -0.0079 -0.0266
 8680W        W25528  10.082  17.646  10.625 -0.2371  0.0541  0.1262
 8681W        W25529  12.575   3.675  15.348 -0.2386  0.0759  0.2605
 8682W        W25530   0.646  10.536  13.609 -0.1388 -0.1535 -0.3452
 8683W        W25531  17.263  17.741   1.479 -0.2005 -0.0139  0.0138
 8684W        W25532   7.829  15.329   0.534 -0.2376 -0.0647 -0.1720
 8685W        W25533  15.258   1.404   1.665 -0.0557 -0.1429 -0.0128
 8686W        W25534   9.476   3.521   5.102  0.2397 -0.1386 -0.0241
 8687W        W25535  12.377  12.570  15.338  0.1215 -0.0180  0.1090
 8688W        W25536   0.793  16.912  15.545  0.1882  0.0291 -0.3090
 8689W        W25537   4.351  13.254  15.938 -0.1227 -0.1558 -0.0382
 8690W        W25538  16.818  14.509   2.242  0.0011 -0.3972 -0.0045
 8691W        W25539   5.016   9.978   4.350 -0.1331 -0.2257 -0.1289
 8692W        W25540  14.098  16.514  16.347  0.0618  0.1610  0.0868
 8693W        W25541  17.267  17.070  12.353 -0.0561  0.1780 -0.3596
 8694W        W25542   6.874  11.498   2.581  0.0133 -0.4247  0.1221
 8695W        W25543  17.887   6.159   2.572 -0.0087 -0.1454 -0.0576
 8696W        W25544   5.638  14.858   0.619 -0.0835  0.0404 -0.1047
 8697W        W25545   7.473  15.310  11.559  0.0166  0.1061 -0.1487
 8698W        W25546   8.165  13.460   3.193 -0.2715  0.1394  0.0487
 8699W        W25547  13.453   7.439  13.844  0.0766 -0.2431  0.2822
 8700W        W25548   6.095   8.742  15.930 -0.3333  0.0989 -0.1012
 8701W        W25549   0.936   6.032  15.141  0.1611  0.0630  0.0026
 8702W        W25550   1.178  14.132  14.563  0.2266 -0.2919 -0.1345
 8703W        W25551   8.161   4.952   1.450  0.0290 -0.2357  0.2049
 8704W        W25552  13.947  11.164  15.260  0.1528  0.1047  0.0730
 8705W        W25553   3.763  13.966   0.120  0.1828  0.0563  0.1755
 8706W        W25554   1.926   8.077   2.209  0.1631 -0.0347  0.0201
 8707W        W25555  17.690   8.015  14.849  0.0237 -0.0011 -0.0514
 8708W        W25556  12.379  16.208  11.458 -0.0361  0.0980 -0.0848
 8709W        W25557   7.360   1.962  15.954  0.2035  0.0151  0.1077
 8710W        W25558  12.329  15.722   3.147 -0.2607 -0.1804  0.2389
 8711W        W25559  16.518   0.286  14.970  0.0451  0.1692  0.1756
 8712W        W25560   2.470  11.887  12.701 -0.0337 -0.0469  0.2135
 8713W        W25561  14.274  13.861  15.184  0.2091 -0.0652  0.1225
 8714W        W25562  16.463  16.390   0.968 -0.2124 -0.1603  0.4768
 8715W        W25563  17.334   5.985   5.479  0.2479 -0.0625 -0.2295
 8716W        W25564  15.900  12.802   4.985  0.2854  0.2212  0.2875
 8717W        W25565  15.993  10.305  13.941 -0.0087 -0.0212 -0.0247
 8718W        W25566   6.623   2.981   0.446  0.2771 -0.3015 -0.0275
 8719W        W25567   1.354  11.083   1.887  0.2138 -0.0079 -0.0326
 8720W        W25568   8.235   9.795   3.933 -0.1906  0.1337 -0.1352
 8721W        W25569   6.636  13.287  13.544 -0.0711 -0.1888 -0.0359
 8722W        W25570  13.312   9.782  16.060 -0.4177 -0.2240 -0.0126
 8723W        W25571  12.494  16.320   0.189  0.1212  0.1455  0.1573
 8724W        W25572  11.090  15.248  13.670  0.1638 -0.0242 -0.2583
 8725W        W25573   8.792   2.086  16.258 -0.0392  0.0598  0.0080
 8726W        W25574  17.739  17.206  12.259 -0.0601 -0.1996  0.3135
 8727W        W25575  11.041  10.316   1.235  0.2960 -0.0364 -0.0958
 8728W        W25576   0.357   8.571   5.941  0.5111 -0.0991 -0.0876
 8729W        W25577   0.968   8.800  12.668  0.0780  0.0766 -0.1478
 8730W        W25578   1.268   8.590  11.967 -0.1730  0.2152  0.1636
 8731W        W25579  12.537   7.909  15.920 -0.0820  0.0453  0.1202
 8732W        W25580   1.762   8.721   1.856 -0.2217  0.1473  0.0892
 8733W        W25581   3.763   0.363   5.385  0.0243  0.0003  0.1769
 8734W        W25582   8.991   0.844   3.705  0.2227 -0.1175  0.1150
 8735W        W25583  10.817   4.160  12.702  0.0592  0.1118  0.2765
 8736W        W25584   0.005   4.831  12.920 -0.0443  0.0322  0.1779
 8737W        W25585   1.614  11.971  11.664  0.1734  0.4221  0.3126
 8738W        W25586  16.585   3.516   0.864 -0.0970 -0.0044  0.0600
 8739W        W25587  13.524   9.435   3.778 -0.3417  0.1733  0.0764
 8740W        W25588   3.403   9.353  12.347  0.0305  0.1645 -0.0078
 8741W        W25589  11.223   3.173   0.136 -0.0820 -0.0027 -0.1019
 8742W        W25590  10.587  13.527  16.089 -0.0507 -0.2198 -0.1372
 8743W        W25591   5.204  13.865   2.011  0.0359 -0.0121 -0.1267
 8744W        W25592  12.424   4.280   2.444  0.1610  0.0119 -0.0097
 8745W        W25593   6.315  13.543   5.113 -0.1192  0.1696 -0.1030
 8746W        W25594   4.356   7.376  14.266  0.0275 -0.2353 -0.1270
 8747W        W25595   5.175  13.834  11.495 -0.1573 -0.0075  0.1301
 8748W        W25596  16.643   1.758   1.729  0.3621 -0.1342  0.0282
 8749W        W25597  15.380  16.033   2.568 -0.2425 -0.1027  0.2854
 8750W        W25598   0.675   9.311  11.554 -0.1637  0.0711  0.1472
 8751W        W25599  13.518   6.127   3.203 -0.3053 -0.1100 -0.0824
 8752W        W25600   0.790   7.327  13.346  0.0245 -0.0512  0.3148
 8753W        W25601   0.179  16.928   2.542 -0.0591 -0.1461 -0.0412
 8754W        W25602  12.720  15.808   2.232  0.3033  0.1572 -0.0059
 8755W        W25603   6.036  15.135  14.070  0.1697 -0.1227  0.2418
 8756W        W25604   7.552   4.895  11.761 -0.2691 -0.0530  0.3164
 8757W        W25605  13.959  11.026   2.011  0.0042 -0.2925 -0.1198
 8758W        W25606  16.315   3.604   6.276  0.0109  0.0270 -0.3096
 8759W        W25607   8.843  16.747   4.292  0.1197 -0.0331  0.2849
 8760W        W25608  10.266  13.639   1.269  0.2329  0.3986  0.0049
 8761W        W25609   3.791  17.447  16.233 -0.1821  0.1416 -0.0166
 8762W        W25610  12.203   2.376  15.987  0.2745 -0.0691  0.2357
 8763W        W25611  10.787   0.415  16.053  0.1797  0.0260  0.0659
 8764W        W25612  11.889   0.260  16.441  0.2227  0.3636 -0.0731
 8765W        W25613  11.521   2.633   5.540  0.2738 -0.0114  0.0905
 8766W        W25614  11.169  10.462  12.652 -0.1350 -0.0561 -0.1336
 8767W        W25615   7.927   4.741   3.740  0.2623 -0.1263 -0.1519
 8768W        W25616   9.660   1.742   2.580 -0.3892  0.1328  0.0118
 8769W        W25617   9.207  14.422   0.199 -0.0167 -0.1292 -0.2194
 8770W        W25618   6.700   4.881   3.458  0.0505  0.2436  0.0784
 8771W        W25619  13.467   9.045  12.915 -0.1516  0.2900 -0.4087
 8772W        W25620  11.286  15.199   0.003 -0.1763 -0.0929  0.0033
 8773W        W25621  14.477  14.370  13.259 -0.1345 -0.0331  0.0587
 8774W        W25622   4.996  14.149   2.937  0.4077  0.1083  0.0883
 8775W        W25623   2.961  11.269  11.459 -0.1197  0.0652 -0.0406
 8776W        W25624   9.831   3.771  14.047  0.0129  0.0728 -0.4230
 8777W        W25625   6.606   0.854   1.933 -0.0492  0.1099  0.0274
 8778W        W25626   5.310   0.743   3.334 -0.1142 -0.3301 -0.1885
 8779W        W25627  15.065  15.454   1.877  0.1486 -0.2062 -0.0586
 8780W        W25628   0.497   3.559  14.276 -0.1163 -0.1292 -0.1093
 8781W        W25629   0.168  15.788  15.458  0.0669 -0.3071  0.2565
 8782W        W25630   4.950  11.098  12.893  0.1044  0.2272 -0.0266
 8783W        W25631   0.769  15.418   4.944  0.0426 -0.3279 -0.0057
 8784W        W25632   4.148  14.976  12.750 -0.0810 -0.0688  0.0802
 8785W        W25633   6.440   2.192   4.578 -0.0321 -0.0935  0.0708
 8786W        W25634  10.808   1.451  11.704  0.2244  0.1501  0.1712
 8787W        W25635  11.818   1.582   4.081 -0.0889 -0.1665  0.0041
 8788W        W25636  10.752  12.871   2.531  0.0852 -0.1827 -0.0785
 8789W        W25637   8.758   3.008  11.856 -0.1840 -0.3994  0.0781
 8790W        W25638   3.457  15.259  11.763  0.5437  0.1585  0.1243
 8791W        W25639  17.173   3.866   1.674 -0.0621  0.3518 -0.0012
 8792W        W25640   2.209  11.361  13.077 -0.2096  0.1720  0.0698
 8793W        W25641   5.036  15.084  15.562  0.1227 -0.2088 -0.3205
 8794W        W25642  12.775  12.039   5.280 -0.0466  0.1645  0.1338
 8795W        W25643   6.311   3.288   5.541 -0.0587 -0.0831  0.0568
 8796W        W25644   6.593   9.124   4.178 -0.2935  0.3450  0.0705
 8797W        W25645  13.632   5.474   1.331  0.0317  0.0852 -0.0199
 8798W        W25646  12.659   9.562   4.272  0.1715 -0.2398  0.2269
 8799W        W25647  17.846   5.272  14.971 -0.1300 -0.0991  0.1266
 8800W        W25648   8.676  13.726   3.041 -0.0485 -0.0097 -0.0288
 8801W        W25649   7.409   0.752   3.122 -0.0402  0.0196 -0.1863
 8802W        W25650   3.769  14.480   2.785  0.1153  0.2035  0.1760
 8803W        W25651  10.028   8.963   0.493 -0.0193  0.1105  0.1533
 8804W        W25652  14.477   1.632  11.339 -0.0504  0.2645 -0.1281
 8805W        W25653  15.296   8.731  14.310  0.3907  0.2440  0.1042
 8806W        W25654   3.075  14.580   0.341  0.0027  0.0326  0.0671
 8807W        W25655  11.387   3.851  15.738 -0.0565  0.0094 -0.1138
 8808W        W25656  15.156   2.915  11.568  0.2224  0.0730  0.1724
 8809W        W25657   8.321  16.614   4.228 -0.3544 -0.1590 -0.1375
 8810W        W25658  13.404  10.081   3.365 -0.1240  0.3839 -0.3288
 8811W        W25659  17.459   0.678   3.480  0.0328  0.0172  0.1697
 8812W        W25660   2.149   0.073   0.265  0.0506 -0.2129  0.1190
 8813W        W25661  13.502   6.478   2.832  0.1216  0.3405  0.2615
 8814W        W25662   8.128   8.848  12.596  0.1476 -0.2262  0.0957
 8815W        W25663   7.611   3.217  13.257  0.1451  0.2816  0.1115
 8816W        W25664   4.492   1.337   5.044 -0.0548 -0.0026  0.0163
 8817W        W25665   8.467  12.914  11.310 -0.0017 -0.4206 -0.0076
 8818W        W25666  13.547   1.730  15.789 -0.1728 -0.2691 -0.2477
 8819W        W25667   9.031   7.228   4.792 -0.1370  0.0043  0.0453
 8820W        W25668   3.446  15.090  12.292  0.3017  0.0091  0.3372
 8821W        W25669   5.381  14.027  15.703 -0.0421  0.0599  0.0325
 8822W        W25670  12.915   2.113  16.418 -0.2099  0.0879 -0.1506
 8823W        W25671  15.031   8.064   0.879 -0.3891  0.0727 -0.3300
 8824W        W25672  10.880   8.625  11.871  0.1066 -0.1409 -0.2849
 8825W        W25673   8.636   9.761   2.634  0.1228  0.0890 -0.2607
 8826W        W25674  12.096   4.780  12.406  0.1580 -0.1137 -0.1711
 8827W        W25675   7.830  12.061   3.711  0.0381 -0.0565 -0.1900
 8828W        W25676  11.152   0.336  15.081 -0.0262  0.1716 -0.2961
 8829W        W25677  12.992  17.253  14.239 -0.0855 -0.0092 -0.0368
 8830W        W25678   2.180  13.743   3.663 -0.0460  0.0233  0.0153
 8831W        W25679   7.898  14.340  12.060  0.2357  0.0822 -0.0727
 8832W        W25680   5.808   6.288  16.385 -0.0118 -0.2362 -0.3053
 8833W        W25681   3.476   7.228   2.297 -0.3472 -0.0126 -0.2847
 8834W        W25682  14.915  11.868  11.661 -0.1656  0.1893 -0.1672
 8835W        W25683  10.006   1.026  14.014  0.0017 -0.1668  0.2405
 8836W        W25684  16.485   6.430   1.817  0.1159  0.0445  0.0222
 8837W        W25685   6.061  13.712  15.014 -0.1159  0.0966 -0.0925
 8838W        W25686   4.978   0.591  15.807 -0.0589  0.3051 -0.2284
 8839W        W25687  14.863  15.872  12.366 -0.1813 -0.1899  0.1051
 8840W        W25688  15.326   9.864   1.112  0.3197 -0.1005 -0.1462
 8841W        W25689   8.685   1.815   5.531  0.0718  0.0678  0.1768
 8842W        W25690  17.085   8.463   2.860  0.4317  0.2075  0.0044
 8843W        W25691   8.172   4.631  14.812  0.0167  0.2785  0.2661
 8844W        W25692  10.170   8.853  13.989  0.1061 -0.1248 -0.0604
 8845W        W25693   9.446   0.937  14.333 -0.0901  0.1423 -0.2670
 8846W        W25694   2.893   2.637   0.144 -0.3830  0.0644  0.0877
 8847W        W25695  15.403   3.747  14.981  0.2248  0.0139 -0.0747
 8848W        W25696   0.772  14.201  11.468 -0.0212  0.1513  0.0154
 8849W        W25697  11.034   7.903  12.123  0.2118  0.0620 -0.1775
 8850W        W25698  17.652   4.546   1.216 -0.2301  0.2285 -0.0814
 8851W        W25699   0.825  10.368  14.100  0.1446 -0.4343  0.3615
 8852W        W25700   0.154   9.953   4.870 -0.2928  0.1967  0.0978
 8853W        W25701  15.543   8.327  16.449  0.0627  0.0568  0.0075
 8854W        W25702  10.205   3.869  15.276 -0.3267 -0.2785 -0.0810
 8855W        W25703   6.716   2.894   5.194  0.1574  0.2971 -0.0034
 8856W        W25704  15.666   5.973  14.908  0.2231  0.1693 -0.2001
 8857W        W25705   4.482  15.520  15.888 -0.0085  0.0531  0.0537
 8858W        W25706   6.972   9.190   2.656 -0.2813  0.0306  0.3279
 8859W        W25707  17.673  10.337  14.380 -0.0842  0.1667 -0.3323
 8860W        W25708   0.926   4.143   2.453 -0.1098 -0.0834  0.1116
 8861W        W25709  17.044  15.428  13.244  0.3310  0.0059  0.2779
 8862W        W25710  13.900   6.817  16.145  0.2315  0.2606 -0.1426
 8863W        W25711   6.453  17.209   2.930 -0.1046  0.0317  0.3060
 8864W        W25712  11.166   8.643  15.863  0.0309  0.0515 -0.2322
 8865W        W25713   3.078  14.901  13.473  0.2287  0.2637 -0.1871
 8866W        W25714  12.702   9.758  11.905 -0.2499 -0.1046  0.2460
 8867W        W25715   7.309   0.897  16.450 -0.0718 -0.0076 -0.3205
 8868W        W25716   6.801  16.200  15.879  0.1451 -0.0345  0.1568
 8869W        W25717   4.401   4.676   1.889 -0.1007  0.2261 -0.1655
 8870W        W25718  13.077  16.639   0.659  0.1043 -0.0338  0.1063
 8871W        W25719   8.351   7.955   2.370  0.0359 -0.3203 -0.0867
 8872W        W25720   9.073  10.633  13.822 -0.0248  0.0517 -0.0560
 8873W        W25721  10.691   1.669  15.710  0.2599  0.0763  0.0699
 8874W        W25722   8.845  10.892   2.681 -0.2368  0.0834 -0.1815
 8875W        W25723  12.356   2.885   1.750  0.2355 -0.0141  0.1852
 8876W        W25724  17.758  11.228   4.255  0.0392  0.2115  0.2875
 8877W        W25725   6.177   4.522  14.809 -0.0296 -0.0986 -0.1443
 8878W        W25726   4.457   2.214  11.891  0.1651  0.1759 -0.1101
 8879W        W25727   9.743  15.627   2.565  0.2838 -0.0775 -0.2782
 8880W        W25728  17.654  12.548   0.162 -0.2654  0.0369  0.0498
 8881W        W25729   4.215  17.198  13.533 -0.2881 -0.0850  0.0216
 8882W        W25730   5.117  13.789   4.461 -0.0721  0.1393  0.1196
 8883W        W25731   9.824   6.336   0.467  0.1654 -0.0364  0.0794
 8884W        W25732  15.086  13.562  14.130 -0.2195  0.1544  0.3439
 8885W        W25733   6.137   2.755   2.827  0.1656  0.0582  0.1718
 8886W        W25734  12.895  10.360   1.631 -0.5142 -0.1517 -0.0861
 8887W        W25735  12.481   9.555  11.390  0.0744  0.2241  0.2823
 8888W        W25736  11.748   7.255  13.753  0.0800  0.2156 -0.2961
 8889W        W25737  13.207  14.504  11.778 -0.0878  0.1962 -0.0220
 8890W        W25738  11.715   2.169  10.228  0.0313  0.0193  0.0347
 8891W        W25739  11.105   4.021  12.180 -0.4039  0.0981  0.2282
 8892W        W25740   5.068   3.206  12.045 -0.3072  0.1221 -0.0413
 8893W        W25741   8.032   6.928   4.218 -0.0658 -0.1409 -0.0594
 8894W        W25742   4.564   9.675   3.781  0.0996 -0.2324 -0.1513
 8895W        W25743   3.649  14.586  15.960 -0.5144  0.0110  0.0953
 8896W        W25744  15.552   7.971  12.705 -0.2468  0.1792  0.1226
 8897W        W25745   1.511  10.957  12.279 -0.3222  0.1035  0.0875
 8898W        W25746   1.679   5.883  12.059  0.1109 -0.0331  0.2485
 8899W        W25747  13.810   2.853   2.896  0.2091  0.2687 -0.2473
 8900W        W25748   7.525  13.060  16.232  0.0538  0.1442 -0.2110
 8901W        W25749   0.546   3.446   1.785  0.1426 -0.0016 -0.0643
 8902W        W25750   5.075  12.113   3.947  0.0663 -0.0181 -0.0184
 8903W        W25751  17.129  16.211  13.507  0.0302 -0.1970  0.0110
 8904W        W25752  17.635  10.532  13.860  0.0071  0.0105  0.0971
 8905W        W25753   7.656  14.345  15.031  0.2395 -0.0720 -0.1807
 8906W        W25754  12.505   2.946  11.763 -0.2908  0.0474 -0.0836
 8907W        W25755   6.366   3.550  13.630  0.2165  0.4455  0.0469
 8908W        W25756  14.501  11.717   2.564 -0.0225  0.0727  0.1198
 8909W        W25757  10.271   9.221   0.139 -0.0533 -0.1246  0.0002
 8910W        W25758  16.178   0.524   3.853 -0.0311  0.1220 -0.0577
 8911W        W25759   9.917   2.874  11.828  0.0708  0.0496  0.2347
 8912W        W25760   1.008  13.873   0.892  0.1920  0.0780 -0.0660
 8913W        W25761  11.001   9.847  12.956 -0.1384 -0.2903  0.1968
 8914W        W25762   0.576   0.186  14.952 -0.0683  0.3876  0.0613
 8915W        W25763   0.666   7.150   4.657 -0.1030 -0.1981  0.0690
 8916W        W25764   6.463  12.838  13.611 -0.3072  0.1720  0.0427
 8917W        W25765   5.192   3.665  12.326  0.1138 -0.5232 -0.0453
 8918W        W25766   1.027   0.497   2.925  0.0291 -0.2035  0.1248
 8919W        W25767   0.265   7.155   5.484  0.0570 -0.4191 -0.0333
 8920W        W25768  15.885  10.194  15.753 -0.2118 -0.3711  0.1531
 8921W        W25769   3.790   5.551  11.572  0.1003 -0.5287 -0.0450
 8922W        W25770  11.092   5.466   1.952  0.2463 -0.0772 -0.0333
 8923W        W25771   3.914   0.554  15.938 -0.0833 -0.0592  0.0556
 8924W        W25772  13.958  11.763  13.167  0.1799 -0.1795 -0.2349
 8925W        W25773   4.010   7.865   1.978  0.1287  0.1678  0.0808
 8926W        W25774   1.774  14.316   4.445 -0.1776  0.1504 -0.0213
 8927W        W25775   5.760  14.419   3.183 -0.2383  0.0316 -0.0540
 8928W        W25776   5.095  14.329  12.317  0.1007 -0.0878 -0.2703
 8929W        W25777   6.255  12.547   4.205  0.1500  0.3139  0.0826
 8930W        W25778  16.547   0.157   3.858 -0.0230 -0.1487  0.1067
 8931W        W25779  15.605   8.522  12.692  0.0321 -0.0253 -0.0368
 8932W        W25780  10.144  15.397  10.709  0.1334 -0.0718  0.2888
 8933W        W25781   4.522  15.135   5.194 -0.2434  0.1654 -0.0598
 8934W        W25782  11.388   6.010  13.523 -0.1090 -0.1642  0.0870
 8935W        W25783   9.115   0.131   4.559 -0.4185 -0.4573  0.1112
 8936W        W25784  13.765   5.044  12.614 -0.0068  0.0081 -0.3264
 8937W        W25785   6.037  16.909   0.024  0.2333  0.1235  0.3281
 8938W        W25786  10.497  11.247  14.919  0.0994  0.0065 -0.1843
 8939W        W25787   3.505   0.723  14.314  0.2740 -0.0061 -0.1058
 8940W        W25788   6.450  17.865   0.476 -0.1051 -0.2225 -0.1698
 8941W        W25789  14.966   4.102  14.662  0.1430  0.0545  0.5307
 8942W        W25790  15.501  14.110   0.300 -0.0684 -0.1730  0.1697
 8943W        W25791   6.445   0.333  12.597  0.1506  0.1092  0.1707
 8944W        W25792  13.182   3.632  11.590 -0.1779  0.2079 -0.2515
 8945W        W25793   4.212   6.193  12.011 -0.1229 -0.5113  0.1280
 8946W        W25794   3.535  14.020  15.027  0.1606  0.0877 -0.4280
 8947W        W25795   8.573  17.872  11.709  0.0807  0.0497  0.0654
 8948W        W25796  15.560  17.885   4.509 -0.0530  0.0346 -0.0696
 8949W        W25797  10.246   5.301   0.870  0.2145  0.2617  0.0032
 8950W        W25798  12.868   5.173  12.329  0.2341  0.0223 -0.2679
 8951W        W25799  11.243   0.987  12.557  0.2839  0.2726 -0.0671
 8952W        W25800   9.031   4.398   1.548  0.0941 -0.2505 -0.1368
 8953W        W25801  15.398   3.362  15.892 -0.0930 -0.0043  0.1027
 8954W        W25802   5.126   6.094   1.173 -0.1989 -0.0446  0.0701
 8955W        W25803   8.125   3.489   3.062  0.1083 -0.3089  0.0660
 8956W        W25804   5.002  11.936   1.385  0.1815  0.1763 -0.2504
 8957W        W25805   5.214  10.058  11.808  0.0068  0.1300 -0.2106
 8958W        W25806  10.341   2.209   0.326 -0.0066  0.0562  0.1292
 8959W        W25807   3.043   5.961   5.831 -0.1945 -0.0473 -0.0146
 8960W        W25808   2.482  12.375  11.116 -0.1239 -0.4926  0.1849
 8961W        W25809  16.869  15.975  15.604  0.1657  0.1159  0.3705
 8962W        W25810   9.507   4.679   0.045  0.1391  0.2748 -0.0863
 8963W        W25811   1.318  17.483   5.690 -0.0532  0.0028 -0.2922
 8964W        W25812   8.710   7.947  15.159 -0.1230  0.2893  0.1224
 8965W        W25813   7.087  13.227  12.643  0.3709 -0.1253 -0.0489
 8966W        W25814   8.659  16.715   0.453  0.0951  0.2894 -0.0085
 8967W        W25815   4.990  17.719   3.087 -0.1340 -0.0237 -0.0041
 8968W        W25816  15.838   2.760   1.445  0.1432  0.1881  0.0940
 8969W        W25817   0.470   6.447  11.773 -0.0948  0.0778 -0.2560
 8970W        W25818  13.119  10.691   5.485  0.1506 -0.3188  0.1266
 8971W        W25819  15.976   7.150  15.190  0.2818  0.0361 -0.0429
 8972W        W25820  14.512  16.752   2.825  0.1039  0.2988  0.1055
 8973W        W25821   4.521  15.374  12.491 -0.4874  0.2726 -0.0064
 8974W        W25822   4.844  13.463   4.751 -0.1542  0.1864  0.1659
 8975W        W25823  16.166   5.968   3.191 -0.3449  0.0540  0.1460
 8976W        W25824   1.523   7.024   2.772  0.0774 -0.1161 -0.2522
 8977W        W25825   8.956  14.302  14.546  0.1529  0.1171 -0.0394
 8978W        W25826  16.162  12.623  13.242 -0.1559 -0.1304 -0.3272
 8979W        W25827  15.242   0.593   0.641  0.0811 -0.0826  0.1378
 8980W        W25828   8.007   5.725   1.504 -0.0298 -0.0091  0.1493
 8981W        W25829   2.427  13.060   1.855  0.2834 -0.1876 -0.0984
 8982W        W25830   9.317  10.831  11.237  0.1076  0.0920 -0.1024
 8983W        W25831   5.216   4.169  12.118  0.0418  0.1012  0.0975
 8984W        W25832   0.296  15.712  14.594  0.1393 -0.1491 -0.0729
 8985W        W25833  17.655   6.682   1.701 -0.0962  0.0996  0.0394
 8986W        W25834  13.582  16.704   2.531 -0.2543  0.0161  0.2498
 8987W        W25835   3.806   6.408   2.402 -0.0110  0.1720  0.3157
 8988W        W25836   8.849  10.562   0.022 -0.1183 -0.3285 -0.1216
 8989W        W25837   6.318   6.374  15.532  0.2808 -0.2688  0.3251
 8990W        W25838   9.449   0.300  15.263 -0.1968  0.0666 -0.1131
 8991W        W25839  13.614   5.177   5.456  0.1782  0.0445  0.0680
 8992W        W25840   4.811  14.752  13.459 -0.1040 -0.0162 -0.1270
 8993W        W25841   3.903   5.195   0.526  0.1851 -0.0896  0.2756
 8994W        W25842   1.725   7.960   1.180  0.1234  0.0546 -0.0157
 8995W        W25843   1.800   0.195  12.467 -0.0180 -0.0257  0.3080
 8996W        W25844   9.627  17.591   5.145 -0.2864 -0.0974  0.1866
 8997W        W25845   4.401   7.421   6.228 -0.0330 -0.3048  0.3567
 8998W        W25846   5.957   4.443   4.679 -0.2389  0.0785  0.1055
 8999W        W25847  10.231  15.945  15.973 -0.2167  0.0238  0.2547
 9000W        W25848   5.361   4.345   3.390 -0.1268 -0.2098  0.0383
 9001W        W25849   0.921  17.402  13.722  0.0297 -0.4166  0.2234
 9002W        W25850   2.324  16.066  13.440 -0.3448  0.2324  0.2278
 9003W        W25851  12.400   3.198  12.177  0.0108 -0.0872 -0.0776
 9004W        W25852  16.677   6.201   2.601  0.0106  0.0562 -0.1469
 9005W        W25853   1.658  14.395  14.687 -0.1802  0.1746 -0.1545
 9006W        W25854   6.612   4.183   5.129  0.4414  0.1432 -0.1932
 9007W        W25855   6.260  10.354   1.469 -0.2958 -0.4105  0.1405
 9008W        W25856  15.457   5.023  13.775  0.2162  0.1095 -0.1388
 9009W        W25857  11.629   6.529   2.927 -0.1144 -0.0449  0.0888
 9010W        W25858  12.549   1.099   0.864  0.0310 -0.0092  0.1944
 9011W        W25859   7.271  16.829   0.029  0.3513 -0.2196 -0.0528
 9012W        W25860  11.865  11.999   0.151 -0.0517 -0.0563  0.2451
 9013W        W25861   7.282   0.375  11.765 -0.0855 -0.0802 -0.0643
 9014W        W25862  10.811  15.788   3.803 -0.0684  0.0295 -0.2997
 9015W        W25863   3.942  16.887   4.961  0.1212  0.1242  0.0556
 9016W        W25864   0.448   1.871   3.594 -0.1001  0.1227 -0.1562
 9017W        W25865  12.319  17.179  16.112  0.1697  0.3299 -0.0229
 9018W        W25866  10.601  16.712   4.574 -0.1183 -0.0491  0.3325
 9019W        W25867   9.524   2.060  11.468 -0.0109  0.0035 -0.2686
 9020W        W25868  14.200   1.248   1.779  0.3087 -0.2871 -0.0555
 9021W        W25869  13.692   8.199  11.780 -0.2456 -0.1297 -0.0660
 9022W        W25870  16.673  12.841  13.898 -0.0393  0.2619  0.2301
 9023W        W25871  12.349   6.330   3.714 -0.0913  0.0529  0.2546
 9024W        W25872   4.525   0.392  15.460  0.1057 -0.0064 -0.0202
 9025W        W25873  10.186   6.346   3.132  0.2893  0.1696 -0.1222
 9026W        W25874   3.547   0.104  13.518 -0.0604 -0.0324  0.1582
 9027W        W25875   5.974  11.473   2.528 -0.0551  0.0146 -0.2209
 9028W        W25876  14.643   1.106   4.530  0.0047  0.1246  0.0030
 9029W        W25877  14.045  14.081   0.069 -0.0880 -0.0610  0.1850
 9030W        W25878  11.151   6.620   4.334 -0.1092  0.0236  0.4571
 9031W        W25879  13.670  16.168   4.110 -0.0046 -0.2215 -0.1259
 9032W        W25880  12.228   1.977  13.687 -0.0363  0.1616 -0.0995
 9033W        W25881  13.512   5.945  14.547  0.1541  0.0960 -0.0341
 9034W        W25882   5.394  17.650  16.304  0.1224 -0.1342  0.0948
 9035W        W25883  17.593  16.828   2.518 -0.0932  0.0067 -0.0228
 9036W        W25884   9.484  14.297   1.491  0.1148  0.0870  0.3053
 9037W        W25885  15.677  10.808  13.173 -0.0994 -0.1078 -0.0910
 9038W        W25886   0.078  15.327  13.673  0.1062  0.0817 -0.1332
 9039W        W25887  11.595   0.174   3.996 -0.0766  0.1191 -0.1395
 9040W        W25888   1.356   5.494  15.191  0.1961  0.3790  0.1687
 9041W        W25889  11.938   8.550   0.240  0.1964 -0.1923 -0.1010
 9042W        W25890   1.644  16.056  11.888  0.1255  0.0736  0.0161
 9043W        W25891   1.938  12.683   2.389 -0.2989 -0.0375 -0.0911
 9044W        W25892   0.698   6.080   1.620  0.3233 -0.0078 -0.2564
 9045W        W25893   5.780  17.187   6.344 -0.3091 -0.0791  0.0638
 9046W        W25894  11.555  16.322  15.421 -0.2629  0.1242 -0.1005
 9047W        W25895   9.622  13.856   0.625 -0.1220  0.1606 -0.0869
 9048W        W25896   0.272   5.849   4.658 -0.4041 -0.1114  0.1477
 9049W        W25897   8.798   4.578  16.194  0.2870  0.0272 -0.0915
 9050W        W25898  17.544   4.857  11.730  0.1782  0.0077  0.1621
 9051W        W25899   9.315   8.990  13.298 -0.1559 -0.0790  0.0719
 9052W        W25900  17.150   2.966   2.516  0.3550 -0.1822  0.0481
 9053W        W25901  15.818   8.349   4.374  0.0401  0.2782 -0.1993
 9054W        W25902  17.886  12.804  11.159 -0.0526  0.2536  0.0930
 9055W        W25903   5.199   8.399   1.122 -0.1125 -0.0511 -0.0519
 9056W        W25904   0.864   0.005  12.303  0.0720 -0.0243 -0.2160
 9057W        W25905   2.950   9.709  14.076 -0.1092 -0.1184  0.1487
 9058W        W25906  17.517   1.132   0.787  0.2518 -0.0160 -0.1242
 9059W        W25907  13.255   6.125  14.893  0.2762  0.2405  0.0288
 9060W        W25908   8.731   9.564  11.008  0.4446  0.0639  0.0127
 9061W        W25909  11.261   5.220  11.806  0.1561  0.0259  0.1582
 9062W        W25910  12.826  15.957   4.608 -0.2622 -0.2363  0.0602
 9063W        W25911  10.714   6.475   1.082 -0.1559 -0.1966  0.1580
 9064W        W25912   4.888  12.330  13.419  0.0006 -0.3749 -0.1650
 9065W        W25913   4.991   4.490  15.535  0.1225 -0.0849 -0.1009
 9066W        W25914   8.797  12.971  10.929 -0.2381  0.0182  0.2135
 9067W        W25915  14.597   1.676   5.291 -0.1355  0.0341  0.0676
 9068W        W25916   3.376   6.559  14.506  0.0052  0.2402  0.0256
 9069W        W25917  10.545  12.040  14.713 -0.0067 -0.1130  0.2142
 9070W        W25918  12.410   7.400   4.546 -0.1941  0.0970  0.0563
 9071W        W25919  10.412   6.195  14.693 -0.0207  0.0441 -0.1370
 9072W        W25920   9.696   4.391   5.362  0.0924 -0.1466 -0.1794
 9073W        W25921  14.699  10.971   0.224  0.0432 -0.2010  0.1072
 9074W        W25922  13.414   4.047  12.436  0.1297  0.0243 -0.0678
 9075W        W25923   5.881   7.184   3.860 -0.1920 -0.2264 -0.0954
 9076W        W25924   0.804  14.170  13.217 -0.3370 -0.0044  0.0056
 9077W        W25925   0.440  13.556   2.435 -0.0145  0.1922  0.2869
 9078W        W25926   7.437   7.191  14.837 -0.4794  0.3349 -0.2593
 9079W        W25927   8.071  14.122   2.672 -0.0323  0.0642  0.0708
 9080W        W25928   7.373   1.974  15.000  0.1095 -0.0110  0.1385
 9081W        W25929   5.624   2.372   5.397 -0.2980  0.2833  0.1740
 9082W        W25930  15.675   6.062  16.244 -0.1676 -0.0059 -0.2421
 9083W        W25931   9.279   8.250   3.580  0.1564 -0.1921 -0.1254
 9084W        W25932   8.782   3.718  12.673 -0.0759 -0.0679 -0.4824
 9085W        W25933   3.341  13.903   0.325  0.3991 -0.2974  0.1772
 9086W        W25934   8.641  14.846   0.707 -0.0496  0.1501 -0.1595
 9087W        W25935   3.008   1.297  14.741  0.0230 -0.2052 -0.1330
 9088W        W25936   8.981   5.949  10.779  0.0407 -0.0107  0.0157
 9089W        W25937   6.538  10.918  13.231 -0.2942 -0.2991  0.0736
 9090W        W25938   9.165   8.633   4.518 -0.0821 -0.2513 -0.0860
 9091W        W25939   7.707   8.616  15.329  0.1925  0.2042 -0.1134
 9092W        W25940   2.139  14.618   0.487  0.0664  0.0749 -0.2216
 9093W        W25941  15.078   7.620  14.023 -0.1442  0.1649 -0.0177
 9094W        W25942   6.630   7.674   4.356 -0.1643 -0.1924 -0.0843
 9095W        W25943  16.239   5.726   5.973  0.1638 -0.2050 -0.0202
 9096W        W25944   5.153  15.386   5.411 -0.1384  0.1264 -0.0965
 9097W        W25945   0.350  16.806   4.043 -0.0444 -0.0401  0.0485
 9098W        W25946  12.399   5.064   0.706 -0.3279  0.2868  0.3297
 9099W        W25947   8.238   3.229   0.051  0.2095 -0.0232 -0.1145
 9100W        W25948   8.374  17.649  16.397  0.0334 -0.0993  0.0528
 9101W        W25949  16.121   9.103  11.733 -0.3095  0.1598 -0.1043
 9102W        W25950   2.232   4.451   3.902  0.1225 -0.0186  0.0733
 9103W        W25951  16.113  12.887  14.500 -0.0503 -0.0345 -0.0645
 9104W        W25952   4.223  10.712   1.893 -0.3378 -0.4178 -0.0119
 9105W        W25953   6.428   7.775  14.356 -0.0504  0.0945  0.4339
 9106W        W25954   7.678   0.581   0.157 -0.2218 -0.0826 -0.1747
 9107W        W25955   7.395   1.015  14.988  0.1464  0.2039 -0.1186
 9108W        W25956   3.236  17.212  11.524 -0.0696 -0.1776  0.3863
 9109W        W25957  13.989  10.491   1.125 -0.0159  0.1857 -0.0566
 9110W        W25958   5.132  16.153  15.882 -0.0046  0.0551  0.0751
 9111W        W25959  11.116  11.618   4.834 -0.0670  0.0280  0.2554
 9112W        W25960   8.406  16.355   1.593 -0.1045  0.0524  0.0089
 9113W        W25961  16.013  12.771   0.942 -0.0589 -0.0143  0.1024
 9114W        W25962  10.809   4.892   3.946  0.1463 -0.2962 -0.1939
 9115W        W25963   7.725   9.266   1.297 -0.0456 -0.0920  0.1713
 9116W        W25964  13.132   2.767  15.114  0.2901 -0.4008 -0.1523
 9117W        W25965   7.330  15.807   6.045 -0.1760 -0.2840  0.1278
 9118W        W25966   8.872   2.197   0.341  0.1944  0.2008 -0.2330
 9119W        W25967   4.209   4.132   4.835 -0.3200 -0.1096 -0.2406
 9120W        W25968  15.332   1.933  16.326 -0.3390 -0.0149  0.1175
 9121W        W25969  17.513   0.232  12.170 -0.2678  0.1476  0.0429
 9122W        W25970  11.821  16.644  14.309 -0.2681 -0.0856  0.0940
 9123W        W25971   1.596   6.278   3.551 -0.3384 -0.0216 -0.1220
 9124W        W25972   6.603  12.175   4.954 -0.1565 -0.0740 -0.1073
 9125W        W25973   4.979   0.179  15.504 -0.3469 -0.0496 -0.0860
 9126W        W25974   7.659  10.485   5.247 -0.0554  0.2156  0.0374
 9127W        W25975  14.909   2.823  12.160 -0.0735 -0.1277  0.1503
 9128W        W25976   0.917   0.323   0.230  0.0613  0.1668  0.0206
 9129W        W25977   7.758   4.911  13.483 -0.0858 -0.3230 -0.1026
 9130W        W25978   6.746   8.184   1.585  0.3159  0.0632 -0.1443
 9131W        W25979  11.625   5.657  10.954  0.0100 -0.0179  0.0626
 9132W        W25980   2.848  14.088   4.262  0.3362 -0.2809 -0.0237
 9133W        W25981  10.301  16.406  12.940 -0.1089 -0.0277 -0.2185
 9134W        W25982   1.542   8.441  14.582 -0.2686  0.0524 -0.0034
 9135W        W25983   2.246   3.038   1.712 -0.0014 -0.0203 -0.2588
 9136W        W25984   5.922   1.237  14.016  0.2120  0.0397  0.1196
 9137W        W25985  14.435  13.510  10.385  0.1394  0.0474 -0.1370
 9138W        W25986   7.856  10.059   1.620 -0.0185  0.0401  0.1273
 9139W        W25987  13.986  16.037  13.832 -0.1103 -0.1390 -0.1416
 9140W        W25988  15.332   8.520  14.790 -0.1234 -0.0397  0.0233
 9141W        W25989   0.008   2.932  16.108 -0.0209  0.2556 -0.0863
 9142W        W25990   4.033   5.027   5.276 -0.0508 -0.0321 -0.1942
 9143W        W25991  10.521  13.031  12.206  0.1293 -0.4732 -0.0817
 9144W        W25992   8.737  10.502  13.338 -0.1390 -0.1095  0.4591
 9145W        W25993   3.749  15.862  11.055  0.4817  0.1703 -0.0250
 9146W        W25994  10.125  13.038   5.240 -0.0994 -0.1849 -0.2096
 9147W        W25995   8.684   0.444  11.584  0.0088 -0.3172  0.0430
 9148W        W25996   3.134  11.046  12.897  0.1659  0.1455 -0.1650
 9149W        W25997   3.292  15.164   0.762  0.0999  0.2319 -0.4706
 9150W        W25998   6.817   8.151   4.312 -0.2134 -0.0615 -0.1545
 9151W        W25999  16.417   0.210   4.682 -0.1889 -0.0932  0.1758
 9152W        W26000  12.768  13.289  16.454  0.1695 -0.1466 -0.0085
 9153W        W26001  15.729   7.658   1.931  0.1914 -0.2051 -0.1058
 9154W        W26002   0.144   7.775   3.597 -0.0392 -0.1695  0.0520
 9155W        W26003  15.934  15.289   1.384 -0.2496 -0.0508  0.0673
 9156W        W26004   7.723   5.126  15.506 -0.1036 -0.4805 -0.3977
 9157W        W26005  13.912  11.564   0.190 -0.0896  0.0793  0.1508
 9158W        W26006   5.893  16.537  15.658 -0.1729 -0.0884  0.1093
 9159W        W26007   9.880   1.543  13.890 -0.1874 -0.1469  0.0563
 9160W        W26008   7.628  13.937   1.145 -0.0786 -0.2815 -0.0746
 9161W        W26009   7.856   4.481  12.110 -0.1736  0.0689 -0.1269
 9162W        W26010  13.554  11.465  13.042  0.0697  0.0503 -0.0156
 9163W        W26011   1.545   3.059  16.234 -0.1215 -0.2830 -0.1330
 9164W        W26012  13.387  13.349  14.910  0.2184 -0.0582  0.1196
 9165W        W26013  17.530  12.442   1.927 -0.0112 -0.0641 -0.0990
 9166W        W26014   3.747  16.202   3.232  0.0823  0.0580 -0.0994
 9167W        W26015   9.016  11.757  12.117  0.0175 -0.0748  0.0821
 9168W        W26016   1.157  16.862   2.908 -0.1697 -0.0847  0.3286
 9169W        W26017  14.299   4.838   4.318 -0.1802  0.2415 -0.0519
 9170W        W26018   4.375   6.297   2.983  0.0018 -0.0934 -0.1250
 9171W        W26019   7.982  13.662   5.064  0.0054 -0.2931  0.1660
 9172W        W26020   7.023   6.984   1.142 -0.1415 -0.0672 -0.1381
 9173W        W26021   0.769  10.488  15.430  0.4084  0.1666  0.0342
 9174W        W26022   3.640   7.790   0.304 -0.1237 -0.2767 -0.2015
 9175W        W26023   0.399   1.602   0.806 -0.1704 -0.0451  0.2182
 9176W        W26024  15.312   6.220  15.269 -0.0015  0.1298 -0.0594
 9177W        W26025   9.442  16.665   1.828  0.2262  0.0672  0.1351
 9178W        W26026  11.272   1.717   3.326 -0.2378  0.2297  0.2537
 9179W        W26027   0.317   0.762   2.470  0.2758 -0.0946 -0.0400
 9180W        W26028   8.883   7.806  15.748  0.1592 -0.1183  0.1648
 9181W        W26029   3.992  15.854   4.188  0.0917 -0.1103  0.0054
 9182W        W26030  13.716   5.127  14.664 -0.1926 -0.0848  0.0386
 9183W        W26031   8.322   3.597  14.888  0.0778  0.0724 -0.1313
 9184W        W26032   5.604   5.457  11.885 -0.3551  0.0026  0.0926
 9185W        W26033  17.574   5.215  14.032 -0.1259 -0.1385  0.3340
 9186W        W26034   2.867   8.275  13.150 -0.1394 -0.0054  0.1587
 9187W        W26035  11.492  16.843  13.370  0.0259 -0.1886 -0.3923
 9188W        W26036  11.176   4.617  11.012 -0.0755  0.0423 -0.0641
 9189W        W26037   0.971   9.695  15.660  0.2575  0.0726  0.0039
 9190W        W26038   4.489   2.670  11.917 -0.3464 -0.1290  0.0921
 9191W        W26039  11.373   3.008   4.144 -0.0398 -0.1477  0.1168
 9192W        W26040   4.729  15.504   4.395  0.2302  0.0160 -0.0296
 9193W        W26041   5.763   7.186  15.764 -0.0049 -0.1578 -0.0211
 9194W        W26042  17.181  11.805   3.836 -0.0993 -0.1073  0.0688
 9195W        W26043   2.697   4.530   5.250  0.1084 -0.2594 -0.0759
 9196W        W26044   0.989   7.470  13.822  0.0734  0.1508  0.1507
 9197W        W26045  14.838   4.367   4.933  0.0161 -0.1543  0.2136
 9198W        W26046  17.060  16.922   5.110 -0.0709 -0.1585 -0.2425
 9199W        W26047   4.386   3.249   3.402 -0.0474 -0.0511  0.0197
 9200W        W26048   0.699   8.656  12.270  0.1311 -0.1376  0.0275
 9201W        W26049  12.774   3.388   4.225  0.0967 -0.0855 -0.2629
 9202W        W26050   4.983  16.510   3.991  0.2536  0.0469 -0.3101
 9203W        W26051  12.919  10.956  11.862  0.0740  0.1831  0.4774
 9204W        W26052  15.031  10.737  11.164  0.1753  0.0540  0.0778
 9205W        W26053  12.552  12.243   3.756 -0.2659  0.1156  0.1249
 9206W        W26054   5.180   0.571   1.007 -0.1090  0.1756  0.1099
 9207W        W26055   1.340   1.628   1.144 -0.1346  0.2170  0.1849
 9208W        W26056  16.599   0.335   2.947 -0.3006 -0.2944  0.1265
 9209W        W26057   7.192  14.676  14.827 -0.2437  0.2105 -0.1610
 9210W        W26058   3.220  10.507  12.940 -0.0540 -0.2068 -0.0275
 9211W        W26059  11.570  15.265  16.050  0.0300  0.0861  0.0219
 9212W        W26060   1.586   2.727   2.361 -0.1224 -0.0402 -0.3943
 9213W        W26061  14.293   6.801  15.805 -0.0437  0.2366 -0.1545
 9214W        W26062  11.063   7.443   2.479 -0.2897 -0.2761 -0.1015
 9215W        W26063   1.627  11.682   4.702 -0.0140 -0.1255 -0.2408
 9216W        W26064  10.262   9.482  15.714 -0.0094 -0.0021  0.1477
 9217W        W26065  15.310   1.845  12.908  0.3294  0.0446 -0.3917
 9218W        W26066  11.606   9.271   5.219  0.0922 -0.1284  0.0184
 9219W        W26067  16.697   6.046  12.861 -0.3434  0.3902  0.2050
 9220W        W26068   2.914  15.038  12.367 -0.1413 -0.1030  0.3061
 9221W        W26069   8.796   1.281  11.523  0.0996  0.1243  0.0199
 9222W        W26070   1.992   7.702  16.409 -0.0381 -0.0246 -0.1933
 9223W        W26071  12.099   7.504   3.945  0.1376 -0.2567  0.0631
 9224W        W26072   8.041   6.045   0.570 -0.1176 -0.1414  0.0904
 9225W        W26073   8.741  13.799  15.419  0.0527  0.0599  0.1277
 9226W        W26074  11.830   3.902  13.349  0.0959 -0.0830  0.0498
 9227W        W26075  15.240   7.990   1.305  0.1554  0.1681  0.1657
 9228W        W26076   5.815   5.077   3.935  0.1046 -0.0425 -0.0352
 9229W        W26077   8.602   0.412   4.341  0.0217  0.3136 -0.4993
 9230W        W26078   2.002   0.400  12.873 -0.2701  0.1546 -0.1045
 9231W        W26079   2.192   3.974   4.819  0.3714  0.2968 -0.0148
 9232W        W26080   2.336   0.506   3.911  0.0123 -0.2441  0.0383
 9233W        W26081  10.313  14.109  13.641 -0.0200 -0.0026  0.0432
 9234W        W26082  13.755   1.296   2.706 -0.2097  0.2400  0.0005
 9235W        W26083   6.834  13.924  13.029  0.1662 -0.0110  0.2713
 9236W        W26084  17.482  13.074   3.141 -0.0607  0.1519  0.1003
 9237W        W26085   5.328  16.699  11.745  0.2838  0.2880 -0.1397
 9238W        W26086  16.563  13.157   2.172  0.2372  0.0828  0.0725
 9239W        W26087   8.932  12.436  16.304  0.0999  0.0977 -0.0060
 9240W        W26088   3.079   4.608   4.545 -0.1448 -0.0590 -0.0169
 9241W        W26089  14.090   1.835   4.077 -0.3173  0.3212 -0.3197
 9242W        W26090   4.056   0.259   3.870  0.0549 -0.0326  0.1513
 9243W        W26091   9.493  15.971   4.166 -0.4196  0.2082  0.0226
 9244W        W26092  11.542  12.672  16.005 -0.3162 -0.1580 -0.1275
 9245W        W26093  11.256  13.105  14.131 -0.3001  0.1473 -0.2168
 9246W        W26094  16.618  10.291   1.993 -0.4797 -0.2473  0.1014
 9247W        W26095   6.585   6.368  13.489 -0.2341  0.0104 -0.4302
 9248W        W26096   2.264  12.392  11.556  0.1902  0.2434 -0.0651
 9249W        W26097   8.643   9.447  14.748  0.1133  0.1363  0.0182
 9250W        W26098  14.669  14.738   5.636  0.0874 -0.0117 -0.1914
 9251W        W26099  10.919  12.109   4.969 -0.2796 -0.1761 -0.0399
 9252W        W26100   1.196  11.512  12.901 -0.1922  0.0480  0.0061
 9253W        W26101   3.095   3.030  13.771  0.1505 -0.1469  0.0390
 9254W        W26102   2.233   9.971  10.640 -0.0013 -0.0628 -0.0246
 9255W        W26103  16.792  10.454  14.025 -0.2203  0.3069 -0.0018
 9256W        W26104  11.431   7.823   1.582 -0.2535  0.0577  0.0925
 9257W        W26105   1.192  11.088  10.822 -0.0769  0.0655 -0.3316
 9258W        W26106  10.212   4.388   2.806 -0.2892  0.0356 -0.1852
 9259W        W26107   3.955  10.821   4.187  0.2313  0.3281  0.1439
 9260W        W26108  15.646   8.566   2.038  0.1283 -0.2004 -0.1348
 9261W        W26109   9.774  10.877   6.244 -0.1541 -0.0061  0.0037
 9262W        W26110   8.197   2.732  13.146  0.1914  0.0486  0.1596
 9263W        W26111  11.845   8.661  11.443  0.1391 -0.1044 -0.3149
 9264W        W26112   1.701   6.604   2.582  0.2337  0.1587  0.2169
 9265W        W26113   2.915  11.772  11.460  0.0606  0.0828  0.2690
 9266W        W26114  11.537   4.338   2.997  0.0652 -0.2053  0.0684
 9267W        W26115  17.421  12.913   0.630  0.3941 -0.0950  0.0748
 9268W        W26116   3.042  17.050   0.077 -0.1452  0.2629 -0.0910
 9269W        W26117  16.047  14.138   0.727  0.0081  0.1644  0.0260
 9270W        W26118   0.539   0.503  11.706  0.0605  0.0534  0.1168
 9271W        W26119   5.161   7.436  14.366 -0.1007  0.1534  0.0090
 9272W        W26120  10.154  15.570   4.275 -0.1343 -0.0393  0.1506
 9273W        W26121  14.572  12.998  11.177 -0.3296 -0.1494 -0.0722
 9274W        W26122  12.381  13.799   1.007 -0.0566  0.4144 -0.3358
 9275W        W26123   2.335   6.586  13.537 -0.1301  0.1298  0.3913
 9276W        W26124   6.387  13.538  13.153 -0.2079 -0.4325 -0.0276
 9277W        W26125  13.553   2.414   1.552  0.1484  0.0438 -0.0678
 9278W        W26126   9.305  13.873   1.646 -0.0233 -0.3219  0.2429
 9279W        W26127  16.247   8.038   0.940 -0.1620  0.0206  0.0510
 9280W        W26128   9.166   5.979  15.974 -0.2532  0.0445  0.1213
 9281W        W26129  15.132  16.700  11.757  0.0977 -0.2102 -0.0643
 9282W        W26130   9.138  17.080  13.228 -0.2389  0.1209  0.0969
 9283W        W26131  13.076   1.082   4.180 -0.1547 -0.0107  0.0827
 9284W        W26132   3.776  13.444  15.027 -0.1310  0.2251  0.1342
 9285W        W26133  14.775  15.619   0.513  0.0208 -0.1129 -0.2523
 9286W        W26134   9.507  14.219  12.686  0.0633  0.1775  0.1134
 9287W        W26135   1.677  16.797   4.617  0.1499  0.2170 -0.2429
 9288W        W26136   7.862  10.109   3.784  0.0710 -0.0968  0.2852
 9289W        W26137  16.543   2.280   2.955  0.6945  0.2921 -0.2175
 9290W        W26138  15.143  13.261  11.699 -0.1536 -0.0686 -0.0799
 9291W        W26139   8.749  12.065  12.378  0.2919 -0.0234  0.2158
 9292W        W26140   0.576  15.204   1.422  0.0619  0.0073  0.1325
 9293W        W26141   3.585   9.134   0.265  0.0515  0.1638  0.1703
 9294W        W26142   9.218   8.492  14.749  0.2205  0.3163  0.0665
 9295W        W26143   6.271  17.748   5.603 -0.0008 -0.0043 -0.0331
 9296W        W26144   1.727  12.643  14.859 -0.1350  0.1091  0.2505
 9297W        W26145   3.286  17.126   3.028  0.2475  0.1990 -0.2803
 9298W        W26146  15.233   9.345   1.475  0.0606 -0.1245  0.1534
 9299W        W26147   1.740   2.700  11.749  0.2015  0.0931 -0.0364
 9300W        W26148   5.827   2.695   3.237 -0.1874  0.1693  0.0328
 9301W        W26149  16.586   6.513  15.528  0.1143  0.0860  0.1540
 9302W        W26150  11.890  10.042   0.302 -0.0248 -0.0495  0.0834
 9303W        W26151  15.685  11.963  15.512 -0.0418  0.0123  0.2793
 9304W        W26152  14.711  13.323  16.310  0.1413 -0.1213  0.4708
 9305W        W26153   2.836  10.872  16.021 -0.2400 -0.1726 -0.0457
 9306W        W26154  17.037  15.797   2.770  0.2566 -0.0950  0.1249
 9307W        W26155   1.990   6.229   2.635  0.1397  0.0371 -0.1323
 9308W        W26156   8.190   0.487   3.581 -0.2075  0.0864  0.1101
 9309W        W26157  14.558  15.916  11.807  0.3240  0.0418 -0.1787
 9310W        W26158   9.461   1.687  14.052 -0.0425 -0.0711 -0.1639
 9311W        W26159   5.097   7.532  13.907 -0.1620  0.0717  0.1940
 9312W        W26160   1.506   5.019   4.777  0.1014  0.0545 -0.0213
 9313W        W26161  12.062  13.171   1.751 -0.2055 -0.1090  0.2044
 9314W        W26162   6.737  16.344   4.776  0.2542  0.1770 -0.0204
 9315W        W26163   0.308  10.463   1.064  0.0262  0.0025  0.1042
 9316W        W26164  13.567  13.583  11.874 -0.1048  0.0114 -0.0842
 9317W        W26165  11.740   0.866   3.277  0.2846 -0.1697 -0.1222
 9318W        W26166   9.865   0.469   0.008 -0.0304 -0.0835  0.0041
 9319W        W26167  12.861   5.002  15.667 -0.2980  0.0656  0.0695
 9320W        W26168  12.806   3.903   3.375 -0.0063 -0.1982 -0.0100
 9321W        W26169  14.140  16.579   0.769 -0.0964  0.6434 -0.0055
 9322W        W26170  12.783   8.578  14.398 -0.2199  0.0996 -0.1387
 9323W        W26171   0.262   9.400  16.285 -0.2112 -0.0808  0.0388
 9324W        W26172  12.089   3.004  12.966  0.0683  0.1574 -0.4522
 9325W        W26173  12.249   2.647   4.062  0.0247 -0.2553 -0.2526
 9326W        W26174   5.700   6.545  15.052  0.2576 -0.0477 -0.0485
 9327W        W26175  14.935  10.253   1.588  0.0487  0.1016 -0.3388
 9328W        W26176  10.399   5.060   1.418 -0.0818 -0.0471 -0.0864
 9329W        W26177   9.336  17.174  13.715  0.3237 -0.0781  0.3255
 9330W        W26178   7.421   9.793   2.020 -0.1099 -0.1545 -0.2811
 9331W        W26179   3.299   8.757   0.284 -0.1625  0.1538 -0.0332
 9332W        W26180  12.683  16.510   3.355 -0.0214  0.0094  0.1114
 9333W        W26181  15.707   4.254  15.905  0.0468  0.2482  0.3064
 9334W        W26182   1.643   8.667  16.082 -0.0174  0.3825 -0.2445
 9335W        W26183   9.911  12.788  16.274 -0.2111 -0.3427 -0.0265
 9336W        W26184  16.461  12.621   2.777 -0.1119  0.1614 -0.1416
 9337W        W26185   7.614  12.169   4.628 -0.1820 -0.0949 -0.0264
 9338W        W26186   4.657  15.819   1.263 -0.0018 -0.1237 -0.0823
 9339W        W26187  12.472  12.362   2.017 -0.1229 -0.1093  0.2706
 9340W        W26188   1.036  11.883   0.245 -0.0052 -0.2639 -0.1892
 9341W        W26189  15.826   3.565   4.994 -0.0281 -0.5325 -0.4577
 9342W        W26190  16.906   1.982  15.557 -0.0951 -0.6251  0.0511
 9343W        W26191   1.914   6.363   2.125  0.0900 -0.2939 -0.0749
 9344W        W26192   5.849   5.680   3.240  0.0848  0.0654 -0.0841
 9345W        W26193  11.116  10.830   1.218 -0.2441  0.0789 -0.1004
 9346W        W26194  12.610   7.379  16.044 -0.0848  0.0038 -0.2692
 9347W        W26195  16.759  14.548  12.159 -0.0546  0.0038  0.0375
 9348W        W26196  12.471   6.282  12.025  0.1309  0.0201  0.0406
 9349W        W26197   1.400   7.430   2.367  0.3580 -0.1327  0.1300
 9350W        W26198   6.664   1.654   3.663  0.0101  0.3537  0.1947
 9351W        W26199   5.714  12.449  13.231 -0.2037  0.3147  0.0976
 9352W        W26200   0.948   3.052   4.268  0.2224 -0.0128  0.0970
 9353W        W26201  12.585  13.393   0.684 -0.0712 -0.2908 -0.0574
 9354W        W26202  10.105   7.402  10.450 -0.1118  0.0318  0.2243
 9355W        W26203   3.229  12.797   4.498 -0.3012 -0.1816 -0.2047
 9356W        W26204  10.799  12.407   5.346 -0.2666  0.1392  0.0305
 9357W        W26205  17.763   2.151   1.689  0.1048  0.0540  0.3268
 9358W        W26206  13.485   9.684  13.075  0.1463 -0.3585 -0.2258
 9359W        W26207   3.300   6.212  13.623 -0.0466  0.1058  0.0040
 9360W        W26208   5.327   9.371  13.069  0.0920  0.0158 -0.0551
 9361W        W26209   4.001  13.492   3.806  0.2010 -0.0034  0.1117
 9362W        W26210  11.590   6.081  10.699 -0.0845  0.0997  0.0776
 9363W        W26211   4.536  13.799   4.497 -0.0181 -0.2484 -0.0150
 9364W        W26212   5.535  15.093   3.884  0.0627  0.0175 -0.0724
 9365W        W26213  10.648   2.202   5.056 -0.3414 -0.0507 -0.1560
 9366W        W26214  16.794   6.117  15.324 -0.1503 -0.2341  0.0077
 9367W        W26215  14.990  13.910   0.976  0.0460  0.0891  0.0924
 9368W        W26216   5.115   7.281  12.697  0.0137 -0.2170  0.0084
 9369W        W26217   5.779   8.476  13.885 -0.0735  0.1287  0.3679
 9370W        W26218   8.856  13.419   3.921 -0.1694  0.1474  0.0290
 9371W        W26219   0.017   7.537  14.882  0.1014 -0.3315 -0.0188
 9372W        W26220  12.750   5.513  10.921 -0.1204  0.1291 -0.2762
 9373W        W26221   8.509  14.190  12.669 -0.3112 -0.2951 -0.0061
 9374W        W26222   0.178   2.887  15.644 -0.0444  0.1418  0.1361
 9375W        W26223   6.697  17.496  16.080  0.1591 -0.2657 -0.3587
 9376W        W26224  10.036   4.992  12.658 -0.1515 -0.0677 -0.0389
 9377W        W26225   0.807   7.378  14.363 -0.0004 -0.1984 -0.0275
 9378W        W26226   3.900  13.630   5.018  0.0074  0.2807 -0.2956
 9379W        W26227   7.850   8.608   3.291  0.1255 -0.2675 -0.0890
 9380W        W26228  14.288   2.367  13.825  0.2724  0.4439 -0.0797
 9381W        W26229   4.894   1.879  13.192  0.0384 -0.0474  0.1772
 9382W        W26230   6.561  10.314   3.214 -0.0319 -0.0555 -0.0588
 9383W        W26231   0.736   7.923  12.293  0.2080  0.0599 -0.2159
 9384W        W26232   6.073   8.314  12.578  0.1110 -0.3400 -0.2017
 9385W        W26233   4.544   6.725  12.523  0.2463 -0.2056 -0.1250
 9386W        W26234   0.135   7.888   1.941 -0.0357  0.0112 -0.1177
 9387W        W26235  17.014  14.982  14.715  0.0327 -0.0747 -0.1159
 9388W        W26236   3.022   6.772   1.000 -0.0604  0.0548 -0.1650
 9389W        W26237   8.440  13.655  14.439 -0.3213 -0.2532 -0.1086
 9390W        W26238  14.145  12.584  12.710 -0.0499  0.0049  0.3042
 9391W        W26239  13.523  12.883  13.669  0.2029  0.0964  0.0538
 9392W        W26240   8.991   3.923   3.490 -0.1555  0.2895 -0.1906
 9393W        W26241   3.358  16.583   4.354  0.0200  0.1702  0.2665
 9394W        W26242   7.821   8.997  14.089 -0.1387  0.2443  0.0618
 9395W        W26243   6.925  14.566  11.839  0.1415  0.1913  0.1628
 9396W        W26244  12.963  13.837   3.298 -0.0365 -0.1182 -0.0790
 9397W        W26245  15.398  16.402  12.882  0.0620  0.0234 -0.1484
 9398W        W26246   3.811  17.344   2.230 -0.0263 -0.0971 -0.1076
 9399W        W26247  11.166  17.576  12.064 -0.0015 -0.0395  0.3761
 9400W        W26248   5.296  15.178  10.854 -0.2149 -0.1805  0.2140
 9401W        W26249  10.618  15.399   0.361 -0.3764  0.3239  0.3799
 9402W        W26250  12.769   1.475   2.251  0.0599 -0.0570 -0.2093
 9403W        W26251  11.626   0.910  13.168  0.3409 -0.1580  0.3269
 9404W        W26252   4.505  13.685   1.546  0.1959  0.1063  0.1020
 9405W        W26253   9.764   5.599   3.584 -0.2423  0.1075 -0.0497
 9406W        W26254  11.614   1.585   1.126 -0.1250  0.1023  0.0394
 9407W        W26255   1.727   8.206   3.544 -0.1272 -0.0448  0.0145
 9408W        W26256   5.170   0.138  13.451 -0.0346 -0.1100 -0.1707
 9409W        W26257   8.065  16.115   1.181  0.0390  0.0120  0.0997
 9410W        W26258   2.100  13.201   1.476 -0.0911  0.1563  0.0726
 9411W        W26259   0.869   7.333  11.688  0.1147 -0.2011 -0.1314
 9412W        W26260   0.862  16.525  15.186  0.0670 -0.0126 -0.1373
 9413W        W26261   2.372   5.544  12.806  0.1378 -0.1272  0.0784
 9414W        W26262  15.608   4.979   1.546  0.2581  0.1566  0.3388
 9415W        W26263   6.997   1.266  16.291  0.0261 -0.1957 -0.0622
 9416W        W26264   1.492   9.295   4.476 -0.3469  0.0206 -0.1382
 9417W        W26265  12.579  11.163  15.592  0.0574  0.2350 -0.0220
 9418W        W26266   1.964   6.402   0.336 -0.0108 -0.0777  0.2517
 9419W        W26267   5.750   3.468  13.754  0.0286  0.0054  0.0122
 9420W        W26268  11.043  14.485   3.864  0.0052 -0.3498  0.0327
 9421W        W26269   1.193   1.652   3.813  0.1123 -0.1262  0.3456
 9422W        W26270  13.181  10.563   4.342 -0.0642  0.4486  0.0365
 9423W        W26271   0.893  16.735   1.066  0.0658  0.0651  0.2000
 9424W        W26272   0.231  10.399  14.079 -0.0370 -0.2912 -0.1773
 9425W        W26273   5.215  16.402  14.865 -0.0699 -0.1513  0.2639
 9426W        W26274  13.968   1.202   0.532 -0.0866 -0.0279  0.2432
 9427W        W26275   9.282   7.249  13.583 -0.3135  0.2346 -0.1755
 9428W        W26276  16.798  11.650   1.465 -0.1205 -0.0929 -0.0563
 9429W        W26277  13.087   9.177   3.573  0.0738  0.1785 -0.0538
 9430W        W26278  17.826   1.523   0.996 -0.1826  0.0249 -0.0379
 9431W        W26279   8.604   8.517  13.935  0.0137 -0.0286  0.0935
 9432W        W26280   8.167   9.892  12.963  0.0632  0.2251  0.1060
 9433W        W26281  12.769  17.485   1.085  0.2670 -0.0747 -0.1974
 9434W        W26282  15.315  15.195   0.180 -0.0644 -0.1609  0.3056
 9435W        W26283   2.734  16.550  11.348  0.0929 -0.1898 -0.0545
 9436W        W26284   7.025   9.786  12.082 -0.4221  0.3052  0.0296
 9437W        W26285   7.139  14.045   1.166  0.1081 -0.0685  0.0816
 9438W        W26286  10.370   3.711  12.963  0.0126 -0.1155 -0.0367
 9439W        W26287   8.975   5.088   1.658  0.1696 -0.2294  0.1938
 9440W        W26288  12.284   2.285  11.101 -0.0732 -0.0272 -0.1300
 9441W        W26289   1.210   1.928  13.291  0.0193  0.2442 -0.0020
 9442W        W26290  15.482   9.976  16.412 -0.1976 -0.1074  0.4088
 9443W        W26291   4.654   5.626  15.258 -0.1638 -0.0074 -0.1360
 9444W        W26292  15.172  16.681  14.905  0.0376 -0.0221  0.0757
 9445W        W26293   3.123  16.642  16.259  0.3494  0.0404 -0.0520
 9446W        W26294   7.818  11.165   4.619  0.0723 -0.1905 -0.2323
 9447W        W26295   0.493   4.714   2.839 -0.1853 -0.0349  0.0901
 9448W        W26296  10.172   5.845   2.486 -0.0055  0.0092 -0.0998
 9449W        W26297  17.837  17.040  14.153 -0.3284  0.3010  0.1659
 9450W        W26298  17.648  16.225   2.487 -0.0832  0.2723 -0.1324
 9451W        W26299  16.186  12.386  11.413 -0.1226  0.0684  0.1293
 9452W        W26300   9.537  10.992  12.567 -0.3980  0.1558  0.2672
 9453W        W26301  12.713   4.637  15.417  0.2813  0.1194  0.2626
 9454W        W26302  15.408  12.011   1.510 -0.1375 -0.2737 -0.2601
 9455W        W26303   7.848  14.869  13.315  0.0346  0.0697 -0.2272
 9456W        W26304   2.408   8.013  10.493 -0.0610 -0.1721 -0.0810
 9457W        W26305   4.935  16.200   0.529  0.1253 -0.1634 -0.3246
 9458W        W26306   4.334  16.530  11.515 -0.5053  0.1784  0.0913
 9459W        W26307  15.928   0.087  14.959 -0.0131  0.0834  0.2396
 9460W        W26308  17.181   9.515  15.196  0.0939  0.1874  0.0609
 9461W        W26309   7.238   8.373   4.540  0.2916  0.1630  0.2819
 9462W        W26310   3.622   9.708   3.427  0.2040  0.0115  0.4039
 9463W        W26311  11.738  10.999  13.228 -0.2920  0.2031 -0.1184
 9464W        W26312   5.518   9.225   1.377 -0.0742 -0.2726 -0.1880
 9465W        W26313   7.168   2.764   4.038  0.0251 -0.0750  0.3800
 9466W        W26314   8.818   1.478  13.247  0.0263  0.1540  0.0108
 9467W        W26315  10.606   0.279   4.378  0.2920  0.1402  0.1789
 9468W        W26316   3.375   4.575  13.269 -0.1035 -0.1895 -0.2264
 9469W        W26317   0.442   0.601   2.003 -0.0627  0.1915 -0.1029
 9470W        W26318  17.631  16.246  12.381  0.3787  0.1128 -0.0022
 9471W        W26319   5.880  13.774   0.400  0.0087 -0.1307 -0.3674
 9472W        W26320  15.748  11.140  11.645 -0.0316  0.1471 -0.0736
 9473W        W26321  13.211  10.794  13.981  0.0860  0.0267  0.1640
 9474W        W26322   6.694   4.318  14.859 -0.3079 -0.0780 -0.0071
 9475W        W26323   3.489   7.082  14.267 -0.0940 -0.1335  0.1610
 9476W        W26324  14.081   4.659   0.028 -0.0178 -0.1108 -0.4655
 9477W        W26325  11.120  13.449   1.825  0.2841  0.0978  0.3334
 9478W        W26326  14.026   6.401  13.329 -0.0510  0.1390  0.0008
 9479W        W26327   7.211   1.235  13.071 -0.0481 -0.0695 -0.1868
 9480W        W26328   2.588  10.916  12.903  0.1676 -0.0938  0.0567
 9481W        W26329  17.762   5.260   3.802  0.0862  0.1253 -0.1599
 9482W        W26330  16.202   7.225   1.094 -0.1098 -0.3679 -0.3419
 9483W        W26331  10.511  10.574   2.866 -0.0849 -0.0291  0.2168
 9484W        W26332   1.808  11.036  15.233  0.2392 -0.3465 -0.1022
 9485W        W26333  17.549  15.904   2.088  0.2631 -0.3059  0.2640
 9486W        W26334  12.842  11.493  15.283 -0.0615  0.1410 -0.1970
 9487W        W26335  17.758   5.412   0.843 -0.0937  0.0100 -0.0350
 9488W        W26336   9.920  17.058  14.708  0.3381  0.4015 -0.0792
 9489W        W26337   8.623   2.693   3.629 -0.0517 -0.2641  0.1516
 9490W        W26338  11.452  14.497   4.394  0.2092 -0.2651  0.2040
 9491W        W26339  17.375   4.418  13.853  0.3413  0.2617  0.0044
 9492W        W26340  10.848  15.774  11.834  0.0684 -0.0701 -0.1337
 9493W        W26341   1.446  11.110   5.915  0.0929 -0.1934  0.2710
 9494W        W26342   0.381  10.649  12.644  0.4082  0.0509 -0.1654
 9495W        W26343   6.580   3.800  15.875  0.0287 -0.2384  0.0368
 9496W        W26344  16.140   8.854  12.180 -0.1315  0.0909 -0.0129
 9497W        W26345  11.277   6.364  15.720 -0.2896  0.0047 -0.1034
 9498W        W26346   2.473   9.911   5.817  0.0901 -0.1618 -0.1175
 9499W        W26347   2.627   1.514   5.044  0.1556 -0.0773 -0.0372
 9500W        W26348   3.805   6.770   5.426 -0.0291 -0.0049 -0.0503
 9501W        W26349   7.139   9.532   1.774  0.2011 -0.1911  0.3645
 9502W        W26350   2.387  11.606  13.492 -0.0703  0.0417 -0.6434
 9503W        W26351  13.945  12.608   4.059  0.2115 -0.1515 -0.1104
 9504W        W26352   0.833  17.065  15.101 -0.2106 -0.1942  0.1583
 9505W        W26353   5.095   6.398  11.434 -0.1643 -0.2421  0.1421
 9506W        W26354  13.804  16.289   2.652  0.3667  0.5862 -0.1531
 9507W        W26355  17.017   8.762   2.022  0.0185 -0.1825  0.2143
 9508W        W26356  15.612  16.437  13.484  0.0115 -0.1184  0.1144
 9509W        W26357   2.303  10.621   2.911  0.0566  0.1981  0.0816
 9510W        W26358   8.557   6.612   2.556  0.2749  0.2335  0.2710
 9511W        W26359   3.553  17.773   2.139  0.1570  0.0049  0.1733
 9512W        W26360   3.835   9.740  12.951  0.2012 -0.2623  0.1376
 9513W        W26361  11.996   9.461   4.932 -0.2016 -0.0105  0.0351
 9514W        W26362  11.959   9.742  15.368 -0.1435  0.1448 -0.1161
 9515W        W26363   8.948   3.607   1.615 -0.0469 -0.3588  0.2563
 9516W        W26364   4.299  15.165   5.641  0.0212 -0.3429  0.0043
 9517W        W26365  10.748  15.005  11.172  0.0990  0.0474  0.0493
 9518W        W26366  17.130   6.810   0.024 -0.3972 -0.1699 -0.1522
 9519W        W26367  16.212   5.809   4.037 -0.0585  0.2376 -0.0052
 9520W        W26368   1.211  17.805   1.253 -0.1328 -0.1509 -0.0026
 9521W        W26369   3.172   9.891   1.834 -0.1167  0.0975  0.0564
 9522W        W26370   1.689   4.325  11.268  0.0424 -0.2283  0.1338
 9523W        W26371   6.180   4.173   0.795  0.0054 -0.0404 -0.0737
 9524W        W26372   8.217   0.246   2.990 -0.0252 -0.0649 -0.1654
 9525W        W26373   0.286   1.855   4.340 -0.1805  0.0946 -0.1495
 9526W        W26374  13.567  11.351   0.494  0.0406 -0.1368  0.1643
 9527W        W26375  13.354  10.684   3.760 -0.0971 -0.0135  0.2289
 9528W        W26376   1.871  17.791  16.317 -0.2827  0.1013 -0.0473
 9529W        W26377  12.052   4.543   3.607 -0.0799 -0.2943  0.0499
 9530W        W26378   5.901  13.267   0.227  0.2879 -0.0755 -0.0349
 9531W        W26379   0.013   7.866  16.244  0.0207 -0.1948 -0.1178
 9532W        W26380   9.101   7.186   3.841  0.1173  0.2276 -0.1495
 9533W        W26381  12.364   5.757  15.434  0.1586  0.1094  0.0009
 9534W        W26382   2.382  16.363  11.013  0.2031 -0.1313  0.0186
 9535W        W26383  15.641   9.711  10.286 -0.1384  0.1897  0.2126
 9536W        W26384   3.678  15.367  15.322 -0.0859 -0.4467  0.2173
 9537W        W26385   8.991   4.750   0.110  0.4122 -0.2225 -0.0413
 9538W        W26386  15.748   9.271   1.440 -0.0117  0.1815 -0.0761
 9539W        W26387   3.218   2.668   5.497 -0.1265  0.0102 -0.2685
 9540W        W26388  17.038   7.817  11.784 -0.0922 -0.0136 -0.0487
 9541W        W26389   9.317  15.676   2.933  0.2371  0.2421 -0.2026
 9542W        W26390   9.951   4.984   0.557 -0.0789 -0.1140  0.1876
 9543W        W26391   5.062   1.932   3.326 -0.1137 -0.1590 -0.0815
 9544W        W26392  15.527   8.709   0.350 -0.2218  0.1411 -0.1578
 9545W        W26393   1.095  15.890  15.524 -0.0948 -0.2108 -0.1160
 9546W        W26394   4.508  17.152  11.739  0.1051  0.4303  0.0696
 9547W        W26395   9.719  16.710  11.282 -0.1068  0.1475  0.0046
 9548W        W26396  13.618   9.816   2.137 -0.2015  0.0247 -0.1746
 9549W        W26397   3.314  12.938   2.462  0.0303 -0.0673 -0.0862
 9550W        W26398   5.297   2.728  12.165 -0.3402  0.1851 -0.0931
 9551W        W26399   7.417   5.246  12.087  0.2658  0.2684 -0.2709
 9552W        W26400   2.065  14.358  13.778 -0.1654 -0.0386  0.0426
 9553W        W26401  10.343   5.340   5.672 -0.0152  0.3105 -0.0856
 9554W        W26402  16.379  16.868   3.749 -0.0782 -0.0518  0.0216
 9555W        W26403  13.475   4.465   5.519  0.0359  0.4070  0.1270
 9556W        W26404   9.431  13.650  16.201  0.0966 -0.2408  0.0996
 9557W        W26405  11.843  14.418   2.551  0.0161 -0.1490 -0.1579
 9558W        W26406   2.360   3.497  14.245 -0.0066 -0.1584  0.2365
 9559W        W26407   8.890  11.425   5.539 -0.0133 -0.1940  0.0595
 9560W        W26408   5.151   3.162  11.194 -0.1168  0.1310 -0.3980
 9561W        W26409   7.633  15.033   0.860 -0.1093 -0.0742 -0.0226
 9562W        W26410   5.135  15.934  14.469 -0.3358 -0.1648  0.0429
 9563W        W26411   5.818   9.397  15.266  0.1901  0.0390 -0.3678
 9564W        W26412   0.667  15.049  11.365 -0.0294  0.2516 -0.0527
 9565W        W26413   9.768  12.603   4.372 -0.1029  0.2865  0.2873
 9566W        W26414   5.596   5.009   0.850 -0.1643 -0.0649 -0.0642
 9567W        W26415   9.397   4.872   1.423  0.0730 -0.2425 -0.1121
 9568W        W26416  15.403  12.166  12.887  0.0528 -0.3933  0.0591
 9569W        W26417   5.397   7.775   0.545  0.1831  0.1768 -0.0705
 9570W        W26418   0.447  11.143  14.531  0.1761  0.2188 -0.0058
 9571W        W26419  11.830   1.185   1.447 -0.1687 -0.3146  0.1004
 9572W        W26420   2.397   7.092  14.922 -0.1021 -0.0819  0.0471
 9573W        W26421   7.317   2.178   4.053  0.4926  0.0335 -0.2316
 9574W        W26422   4.422  17.754  13.702 -0.1124 -0.1675  0.0246
 9575W        W26423   0.658  13.501  12.811 -0.2037  0.0068 -0.0251
 9576W        W26424   2.031  17.462   0.307  0.1977 -0.0818  0.3924
 9577W        W26425   1.873  16.527  12.799 -0.0329  0.0668  0.0303
 9578W        W26426   9.528   7.139   4.981 -0.0133  0.1309  0.5069
 9579W        W26427  10.084  15.072   4.663  0.1104  0.3589  0.1226
 9580W        W26428  14.121  17.400  14.855 -0.0552  0.0041 -0.2080
 9581W        W26429  11.191  11.269   2.868 -0.1684  0.2009  0.1150
 9582W        W26430  17.249  11.083   0.118  0.1330  0.1094 -0.2803
 9583W        W26431   1.849  13.030  11.829  0.0537 -0.0675  0.2377
 9584W        W26432   5.924  10.710  11.027 -0.2700 -0.2649 -0.0193
 9585W        W26433  15.050   4.317  14.209  0.1926  0.0065  0.1084
 9586W        W26434   4.679   4.546   2.280  0.0061  0.0635 -0.0133
 9587W        W26435   8.149  12.132  12.928 -0.0147  0.1319 -0.4086
 9588W        W26436   9.344   8.557  11.224 -0.0427 -0.0961 -0.0067
 9589W        W26437  15.757  15.625   5.850 -0.1624  0.2077 -0.3297
 9590W        W26438   2.647  14.551  13.540 -0.2118  0.2652 -0.2212
 9591W        W26439  11.492   9.592  16.190  0.2501  0.0928  0.2294
 9592W        W26440   8.763  17.326  12.944  0.0136  0.0724  0.0263
 9593W        W26441   3.044   5.379  16.155  0.1477  0.1293 -0.0461
 9594W        W26442   8.515   6.735  12.328  0.2051  0.0454  0.3830
 9595W        W26443   2.830   5.356  13.458  0.3063  0.0384  0.0123
 9596W        W26444   1.936  14.127  12.166  0.0323 -0.0385 -0.2421
 9597W        W26445   4.963   8.604   5.930 -0.0631 -0.2193  0.2859
 9598W        W26446   8.636   0.588   0.495 -0.2693 -0.2120 -0.1138
 9599W        W26447  14.061  15.427   3.801  0.2733 -0.1945  0.1366
 9600W        W26448  12.575  16.258  16.168 -0.0181  0.0540 -0.2587
 9601W        W26449   0.948  17.314   4.731  0.2498  0.2759 -0.0292
 9602W        W26450  12.839   3.155  15.531 -0.0108  0.0480 -0.3145
 9603W        W26451  17.290   6.830   5.833 -0.0492  0.3522  0.0030
 9604W        W26452   7.942   6.060   3.111 -0.1355  0.0002  0.2177
 9605W        W26453  10.730   8.840   2.908 -0.1045  0.0666 -0.2079
 9606W        W26454  13.537  12.746  15.925 -0.0189  0.0364  0.0698
 9607W        W26455  12.166  10.834   3.050 -0.0237 -0.1315  0.0975
 9608W        W26456  11.547   2.778  11.785 -0.0391  0.1801 -0.4484
 9609W        W26457  17.663  15.290   4.477 -0.0474  0.0654 -0.5110
 9610W        W26458   8.336   8.861  12.120 -0.1808  0.0193 -0.0809
 9611W        W26459   8.064   8.390   2.465 -0.2220 -0.2746 -0.3713
 9612W        W26460   2.746  11.617   0.999 -0.4301 -0.0252 -0.1374
 9613W        W26461   8.100   9.053   1.815  0.0034  0.3049  0.2558
 9614W        W26462   7.710  16.858   1.320 -0.0269 -0.0385 -0.1103
 9615W        W26463   3.895   0.379   3.311  0.0887  0.1632 -0.0863
 9616W        W26464  13.237  15.655  14.258  0.1356  0.1572 -0.1445
 9617W        W26465   4.725   8.996  15.906  0.0962 -0.2586 -0.1480
 9618W        W26466  15.386  13.740  10.576  0.1219  0.1965 -0.1856
 9619W        W26467  11.603  17.468   3.642 -0.0004  0.3484 -0.2336
 9620W        W26468  11.992   0.302   3.677 -0.1596 -0.0481 -0.0324
 9621W        W26469  14.565  17.793   1.624  0.3910 -0.0944  0.2605
 9622W        W26470   0.111   3.807   1.740 -0.0211  0.0344 -0.0211
 9623W        W26471   4.788   8.747   1.317 -0.0142  0.1472  0.2537
 9624W        W26472   0.029  17.101  13.634 -0.0549 -0.0936 -0.0812
 9625W        W26473   5.236  15.695   2.900 -0.0726 -0.4838 -0.1896
 9626W        W26474   2.119  17.014  15.765 -0.1887  0.2120  0.0299
 9627W        W26475   4.027  16.149  11.361  0.2642 -0.0848 -0.2280
 9628W        W26476   1.148   6.608  10.365 -0.1620  0.0823 -0.0309
 9629W        W26477  16.927   9.838  13.974 -0.1959  0.2665  0.0412
 9630W        W26478  11.254  15.391   0.462  0.0698 -0.1912  0.0720
 9631W        W26479  10.111  15.976  15.023  0.0439  0.2629 -0.0195
 9632W        W26480   9.970  15.432   5.018 -0.0755  0.0783  0.3851
 9633W        W26481   1.367   4.512   1.806 -0.1043 -0.1789  0.2193
 9634W        W26482  12.185  17.359   4.266  0.1160 -0.0671  0.1600
 9635W        W26483   4.019   8.077  12.561 -0.0016  0.2841 -0.0379
 9636W        W26484   0.157   7.692   4.430 -0.1239  0.1029  0.2637
 9637W        W26485   5.997  11.670   1.233  0.0144 -0.1109 -0.0336
 9638W        W26486  17.817  10.333   1.984 -0.0742 -0.0056  0.1346
 9639W        W26487  13.138  12.298   1.228 -0.2835 -0.0318 -0.3288
 9640W        W26488   1.777  10.309  12.163  0.0736 -0.0397 -0.1784
 9641W        W26489   0.944  12.091   1.648  0.3322 -0.0867 -0.0340
 9642W        W26490  15.743   8.002   1.577 -0.1787  0.0842  0.0656
 9643W        W26491   2.326  12.434  14.561  0.3751 -0.1941  0.0717
 9644W        W26492   4.211   1.835   4.462 -0.0787 -0.1421  0.0433
 9645W        W26493  11.344   8.514   3.371 -0.2774  0.3027  0.0971
 9646W        W26494   8.590   4.172   2.721  0.0236  0.0808 -0.1118
 9647W        W26495  12.496   5.622   2.018 -0.2688  0.0154 -0.1501
 9648W        W26496  14.847  13.908  11.180  0.0312  0.1651 -0.0017
 9649W        W26497   9.195   0.874   1.625 -0.3879 -0.1402 -0.0454
 9650W        W26498  14.301  15.221  11.434  0.0240 -0.0415 -0.3644
 9651W        W26499  10.724   1.419   0.635  0.0601  0.1885 -0.3665
 9652W        W26500   2.030   8.478   1.324 -0.0724  0.0684 -0.1959
 9653W        W26501  17.318   4.014  12.541 -0.2312 -0.0464 -0.0188
 9654W        W26502  14.381   1.902   1.049 -0.3760 -0.1536  0.0388
 9655W        W26503   8.890   1.834   4.077 -0.0231  0.2101 -0.1088
 9656W        W26504   6.246   6.863  16.048 -0.2347  0.0093  0.1249
 9657W        W26505   5.903   8.881   5.262  0.1559  0.0158 -0.1655
 9658W        W26506   3.352  10.454   5.295  0.0900 -0.1610  0.1755
 9659W        W26507   9.900   0.429   3.749 -0.1473  0.1840 -0.1039
 9660W        W26508   3.027   3.916   3.440  0.0663 -0.3015  0.0311
 9661W        W26509   2.535  10.003  14.486  0.1721  0.0283  0.0328
 9662W        W26510  10.245  14.350  15.921  0.3415 -0.1056  0.2184
 9663W        W26511   3.790  13.813  15.386  0.1012 -0.2394  0.0024
 9664W        W26512  16.874  13.137  14.923  0.0362  0.1357  0.0726
 9665W        W26513   9.132   8.344  14.288 -0.0149  0.0775 -0.0151
 9666W        W26514   6.651   5.369   1.044  0.1349  0.0733 -0.2032
 9667W        W26515   2.145  14.657   4.630  0.1648 -0.2605  0.0656
 9668W        W26516   2.181  14.876  11.508  0.1320 -0.2399 -0.3102
 9669W        W26517   6.408   3.824   2.597  0.2161  0.0349 -0.3119
 9670W        W26518  14.731  11.211   1.442  0.0086  0.3138 -0.2909
 9671W        W26519  17.462  14.272  15.816 -0.2978  0.0040  0.0491
 9672W        W26520   8.167   9.659   2.567 -0.0657 -0.2202 -0.1000
 9673W        W26521   8.543  10.401   2.031  0.0499 -0.2460 -0.0570
 9674W        W26522  10.800   9.394  13.977  0.0182 -0.0835  0.3514
 9675W        W26523   3.683   4.222  14.256  0.1187 -0.2478 -0.1346
 9676W        W26524   5.545   4.877  16.210 -0.0139 -0.1015  0.0244
 9677W        W26525  10.186   4.498  14.471  0.2728  0.2539 -0.1236
 9678W        W26526   0.573   1.849  15.545 -0.0728 -0.1002 -0.0291
 9679W        W26527   8.500  16.854  15.802  0.0798  0.1229  0.0195
 9680W        W26528  11.185  16.021  12.820 -0.1583 -0.2782  0.1158
 9681W        W26529   6.762   3.462  13.972  0.2416  0.2981 -0.0821
 9682W        W26530  10.233   3.375  14.486  0.1254 -0.2035 -0.0407
 9683W        W26531  10.756   9.592   4.795 -0.0331  0.1767  0.4375
 9684W        W26532   8.787  14.325   4.677 -0.1691  0.1124  0.1503
 9685W        W26533   0.362   2.865   2.838 -0.2848 -0.0055  0.1296
 9686W        W26534  13.970  17.240  12.730 -0.0946  0.2690  0.1784
 9687W        W26535  17.453   2.507   1.444 -0.1137  0.0817 -0.0092
 9688W        W26536  14.822  14.261   3.950  0.1951  0.2303  0.2353
 9689W        W26537  13.344   1.547  14.460  0.0339  0.2527 -0.1139
 9690W        W26538   7.064   6.139  13.488  0.0067  0.1154 -0.0149
 9691W        W26539   9.897   3.724   0.389  0.0159  0.0155  0.2654
 9692W        W26540  17.129   4.613   3.857  0.1018 -0.0118 -0.1030
 9693W        W26541  14.654  10.696  10.011  0.1449 -0.3073 -0.1554
 9694W        W26542   8.577   6.572  14.914 -0.0545 -0.0706 -0.0325
 9695W        W26543  17.395   6.557  16.189  0.0021  0.1732  0.2412
 9696W        W26544   4.962  12.966   3.971 -0.1335 -0.0620 -0.2265
 9697W        W26545   3.187   9.193  16.386 -0.3422 -0.4062 -0.2015
 9698W        W26546  16.338   6.742   0.316 -0.0772 -0.0585 -0.4365
 9699W        W26547   2.489  11.052   2.541  0.0917  0.3158  0.1747
 9700W        W26548   3.114  10.787  12.364 -0.0255 -0.2660 -0.2875
 9701W        W26549  14.773   5.969   4.311  0.2191 -0.1173 -0.1046
 9702W        W26550  15.243  14.579   0.358  0.0665 -0.3783  0.2255
 9703W        W26551  14.403  11.336   1.953  0.1532  0.1077 -0.3356
 9704W        W26552   2.326   2.705   1.373 -0.1495  0.1215  0.2268
 9705W        W26553   9.126  12.571  15.470 -0.1025  0.2143  0.0422
 9706W        W26554   3.154   5.336  15.199 -0.0106 -0.0009  0.0162
 9707W        W26555   1.722   1.132   3.645  0.2209 -0.0187 -0.1880
 9708W        W26556   3.392  11.701   5.904 -0.0693 -0.0628  0.1414
 9709W        W26557   0.469   5.366  15.844  0.0431  0.0364  0.0632
 9710W        W26558  10.624  10.823   1.146  0.1214  0.0583  0.2596
 9711W        W26559   0.833  17.519   4.256 -0.1673  0.1555  0.4500
 9712W        W26560   2.479  11.032  13.546  0.1518 -0.3000  0.0760
 9713W        W26561   3.851   0.592   2.413  0.0127 -0.0163 -0.2162
 9714W        W26562  14.502   2.154   3.459 -0.2317  0.2964 -0.2930
 9715W        W26563   2.362   4.396   4.873 -0.1824  0.1111  0.0268
 9716W        W26564  16.120   5.543   4.485 -0.2059  0.0378 -0.1066
 9717W        W26565  12.886   8.705  16.294  0.0100  0.0766  0.2564
 9718W        W26566  10.777   4.695   1.678 -0.2495  0.3345 -0.0057
 9719W        W26567   9.245  11.932   3.532  0.0863  0.0302 -0.0016
 9720W        W26568  14.772  12.662  13.870 -0.1514 -0.0867  0.2085
 9721W        W26569   7.104   2.824  12.579  0.2661  0.1766 -0.2172
 9722W        W26570   6.220   3.104   0.769  0.2511  0.1434 -0.2115
 9723W        W26571   7.566  11.111  11.929 -0.1744  0.1379 -0.1273
 9724W        W26572  17.541   8.716   5.050  0.0214 -0.2766  0.2567
 9725W        W26573  11.089  11.655  11.405  0.0369  0.1408  0.1054
 9726W        W26574   1.516  13.936   0.701  0.2803 -0.2837  0.0059
 9727W        W26575  16.858  12.544   4.092  0.0418 -0.0922  0.0179
 9728W        W26576   9.486  15.828  11.666 -0.1458 -0.0562  0.3833
 9729W        W26577   5.911   0.177   1.697  0.2172  0.1529 -0.2847
 9730W        W26578   7.809   5.616   0.701 -0.1417  0.1382  0.1694
 9731W        W26579   1.380   9.279   1.495  0.0333  0.0181 -0.0395
 9732W        W26580  11.554  16.165   2.585  0.2235  0.0923  0.0589
 9733W        W26581  13.274   4.927  12.431  0.0757 -0.2445 -0.0622
 9734W        W26582  12.325  15.519   2.224  0.3401 -0.1867 -0.0471
 9735W        W26583   4.806   4.261  16.371 -0.0948 -0.1520 -0.1547
 9736W        W26584   8.347  17.434   4.833  0.0349  0.5281 -0.2452
 9737W        W26585  12.649   1.543  10.109 -0.1501 -0.0780  0.1432
 9738W        W26586   8.547  13.491   3.515 -0.2420 -0.0719  0.0722
 9739W        W26587   8.125  13.140   5.094 -0.0337  0.0224  0.1051
 9740W        W26588  17.148   1.535  13.285  0.0849  0.1372  0.1117
 9741W        W26589  16.979   2.823   4.124 -0.2228  0.1491  0.1201
 9742W        W26590   9.741  17.885   4.641 -0.1934  0.0782 -0.0753
 9743W        W26591   3.006   6.559  15.986  0.1037 -0.2489  0.2744
 9744W        W26592  10.529   6.976   3.606 -0.0471 -0.1781  0.1245
 9745W        W26593   7.387  10.504   3.652 -0.1124  0.1910  0.0671
 9746W        W26594   2.826   6.232  14.454  0.3927 -0.0625  0.1989
 9747W        W26595   8.683  17.266  15.510  0.1970  0.1463 -0.1863
 9748W        W26596  11.108   1.603  10.380  0.1169  0.0343 -0.1717
 9749W        W26597   2.891   2.679  13.256 -0.1415  0.0347 -0.1566
 9750W        W26598   2.796   9.516   2.766 -0.2680 -0.4386 -0.1037
 9751W        W26599   5.365   1.652  13.161  0.1526  0.0070  0.0277
 9752W        W26600   5.629   2.461   1.356 -0.0437 -0.0200  0.0179
 9753W        W26601  15.191   9.376   5.140  0.1132  0.1289  0.1065
 9754W        W26602   5.209   3.502   4.991 -0.1506  0.0524 -0.0719
 9755W        W26603   0.469  12.480  10.321 -0.1322 -0.0548  0.0772
 9756W        W26604  16.906  10.588   1.710 -0.0301  0.3781  0.0935
 9757W        W26605   3.873  11.624   0.437  0.0080  0.0548  0.2159
 9758W        W26606   8.959  10.896   0.980  0.0133  0.0621  0.0159
 9759W        W26607   3.896  14.508   4.694 -0.0685  0.3682 -0.0664
 9760W        W26608   6.742   1.761   4.150  0.0016  0.1983  0.1127
 9761W        W26609   6.053  12.285   0.404 -0.0203 -0.1804  0.0318
 9762W        W26610  10.993   4.914  11.506  0.0279 -0.0727 -0.0789
 9763W        W26611  14.332  11.152   1.121  0.0973 -0.1715 -0.2341
 9764W        W26612  15.809   5.957   1.294  0.3206 -0.1090 -0.2326
 9765W        W26613  13.078  17.738  11.040 -0.3365  0.3455  0.0540
 9766W        W26614   4.519   1.505  11.564  0.1697 -0.2644  0.1792
 9767W        W26615   4.473   6.579   1.557 -0.0375  0.1248 -0.1606
 9768W        W26616  16.550   6.654  14.404 -0.1983  0.0904  0.1454
 9769W        W26617  13.887   1.209   5.104  0.1195  0.0589 -0.0527
 9770W        W26618   9.772  14.996  11.639 -0.4840  0.0022 -0.0652
 9771W        W26619   6.771   3.799   1.850  0.0808  0.0647 -0.2555
 9772W        W26620  12.286   4.652  16.326 -0.0757 -0.1590 -0.1080
 9773W        W26621  13.171  10.698   1.939 -0.0022 -0.2470  0.2324
 9774W        W26622  10.747   1.659  15.029  0.2226  0.0424  0.0463
 9775W        W26623   0.868   6.836   6.087  0.1009  0.0094  0.1801
 9776W        W26624   7.367   3.062  11.784  0.0455  0.0271  0.1759
 9777W        W26625  16.139  15.234  10.709  0.1589  0.3351  0.0437
 9778W        W26626  17.050  16.717  14.097  0.3421  0.1101  0.0906
 9779W        W26627   1.233   5.133  14.088  0.2002  0.2298  0.1122
 9780W        W26628  16.610   6.655   4.322 -0.1190 -0.1240  0.1608
 9781W        W26629  16.378   4.106   0.216 -0.3323 -0.0398 -0.2259
 9782W        W26630   2.524  12.593   4.990  0.0262  0.0588  0.3601
 9783W        W26631   4.589   7.462   0.286 -0.0381 -0.0082  0.0123
 9784W        W26632   8.328   3.367  13.722  0.0704  0.1519 -0.4861
 9785W        W26633   9.941   7.956  11.570  0.0290 -0.0423  0.0204
 9786W        W26634   3.860  17.226   5.408 -0.0223  0.0034 -0.0088
 9787W        W26635  16.687   0.796  16.050 -0.1869 -0.0135  0.0448
 9788W        W26636   5.115  11.229  15.198  0.5220 -0.0196  0.2082
 9789W        W26637   8.263   6.637   1.970  0.1619  0.3104 -0.0909
 9790W        W26638  12.625  11.399  12.705 -0.0849 -0.0160 -0.3611
 9791W        W26639   3.857   2.886   3.976  0.0937 -0.2210 -0.0125
 9792W        W26640   1.933  17.229  15.294 -0.2134  0.1792  0.0470
 9793W        W26641  13.334  11.124  11.093  0.0517  0.2306  0.1767
 9794W        W26642  15.041   7.548   3.621  0.1059 -0.0370  0.2399
 9795W        W26643   0.467   9.244   2.855 -0.0688  0.0821 -0.2428
 9796W        W26644   2.853   2.925  14.262 -0.1722 -0.0453  0.1017
 9797W        W26645   6.339   0.744   1.474 -0.1342 -0.0189 -0.1912
 9798W        W26646   0.054   9.270  11.757  0.0047  0.2088 -0.3114
 9799W        W26647   4.828  15.171  12.143  0.1414  0.0071  0.0672
 9800W        W26648   0.612  17.809  13.080  0.1314 -0.1322  0.0432
 9801W        W26649  13.384  13.104   2.712 -0.0738 -0.2570  0.1683
 9802W        W26650   3.394   9.572   5.623 -0.0534  0.2592  0.1291
 9803W        W26651  10.207  11.203  15.954  0.2239  0.1029  0.1458
 9804W        W26652   8.737  13.813  14.793  0.1282 -0.4651 -0.1542
 9805W        W26653  10.084  17.668   4.349 -0.3494  0.2001 -0.0580
 9806W        W26654  17.094  15.593  12.703  0.0452  0.1208 -0.0914
 9807W        W26655   6.888   9.143   1.325  0.0871 -0.1908  0.2970
 9808W        W26656  12.083  15.235   1.439  0.0070 -0.0118 -0.1274
 9809W        W26657   6.469   8.504   1.983 -0.2180  0.0083  0.3275
 9810W        W26658   2.189   1.426   1.386  0.0122  0.0708  0.2003
 9811W        W26659  17.753   7.639   2.929 -0.1682 -0.1149 -0.2087
 9812W        W26660  15.325  14.663  13.588 -0.1208 -0.0445 -0.0792
 9813W        W26661  11.577  12.169  15.245 -0.2378 -0.1131  0.0103
 9814W        W26662   0.292   2.321   3.474  0.2729  0.0153  0.1050
 9815W        W26663   9.244   2.563  14.052 -0.1232 -0.3091  0.0943
 9816W        W26664   6.324  10.793   1.357 -0.2135 -0.0435  0.1424
 9817W        W26665   7.640  12.929   4.910 -0.0326 -0.1630 -0.0849
 9818W        W26666  16.158  11.423  10.863 -0.0481  0.0320 -0.0326
 9819W        W26667   5.283  13.682  15.219  0.2023 -0.2238  0.2444
 9820W        W26668  11.285   7.489  13.658 -0.1316  0.0563  0.0224
 9821W        W26669   7.320  12.335  15.542 -0.0899  0.0925 -0.0165
 9822W        W26670  17.484   5.118  11.279  0.0021  0.3903 -0.3904
 9823W        W26671   7.157   8.161  15.787  0.0863 -0.3472 -0.0726
 9824W        W26672   7.535  17.187   4.709  0.0976 -0.1797 -0.1197
 9825W        W26673  10.511  14.553   1.442  0.0659  0.0614 -0.0082
 9826W        W26674  14.717  13.705  14.426  0.1999  0.0427 -0.1265
 9827W        W26675  12.907   5.394   4.598 -0.0090  0.1446 -0.0890
 9828W        W26676   6.875   7.281   2.326  0.2459 -0.0801 -0.1428
 9829W        W26677  12.158   5.429  14.564 -0.0305  0.1438 -0.0210
 9830W        W26678  17.753   0.443   4.896  0.1607 -0.3932 -0.0388
 9831W        W26679   7.162  16.918   3.285 -0.3244  0.0743  0.0100
 9832W        W26680  11.131   0.984  12.083  0.3789  0.0801  0.1349
 9833W        W26681   3.528  13.488  14.606  0.4157 -0.1072  0.0052
 9834W        W26682   4.945   1.856   3.863  0.1890  0.1712 -0.1334
 9835W        W26683   1.112   3.139  13.909  0.0087  0.3093 -0.0916
 9836W        W26684  10.251   6.127  14.201 -0.1504 -0.2160  0.1793
 9837W        W26685  12.550  14.518   2.747 -0.3368  0.0792 -0.0578
 9838W        W26686   6.832   3.886   0.269 -0.0943 -0.1218 -0.2114
 9839W        W26687  14.396   2.296  12.398  0.1355 -0.1631  0.3805
 9840W        W26688  17.597   7.628   3.423  0.2140 -0.1147  0.0978
 9841W        W26689   7.704  14.512  14.519  0.1913 -0.2078  0.0480
 9842W        W26690   5.163   7.736   4.375  0.2650  0.3003 -0.2983
 9843W        W26691   5.386   6.627   1.820  0.1113  0.0837 -0.4003
 9844W        W26692   0.529   4.906  15.627 -0.0231 -0.1589  0.1275
 9845W        W26693   8.842   4.508  12.110 -0.0517  0.0253  0.0271
 9846W        W26694   9.703   6.778   0.182 -0.3833 -0.1427  0.2520
 9847W        W26695  13.727   8.453   2.009  0.2960 -0.3363  0.2482
 9848W        W26696   3.182   0.358  12.625  0.1102  0.0883  0.0965
 9849W        W26697  17.676  14.830  12.055 -0.0901  0.0711 -0.3405
 9850W        W26698   0.514   8.050  13.318  0.1324 -0.1261 -0.1783
 9851W        W26699  13.316   7.728   3.132  0.0083 -0.3434  0.0722
 9852W        W26700   6.722  14.844   1.991  0.0027 -0.1422 -0.3078
 9853W        W26701   0.004   1.205   2.570 -0.1675 -0.0527 -0.0362
 9854W        W26702   4.329   8.138  15.048  0.1282 -0.0263  0.2089
 9855W        W26703  16.987   1.147   4.046 -0.0144  0.0087  0.0073
 9856W        W26704  17.680  15.463  15.829  0.1295 -0.4682  0.0525
 9857W        W26705   4.535  14.139   4.142  0.1009  0.1076 -0.0568
 9858W        W26706   8.934   8.591  13.260  0.0065 -0.1331  0.1692
 9859W        W26707   4.725   0.122   4.825  0.1344  0.0529  0.1152
 9860W        W26708  12.437   7.697  12.349  0.2254  0.2248 -0.2099
 9861W        W26709   0.882   6.571  15.022 -0.1062  0.0693  0.0862
 9862W        W26710   4.267  11.759   5.813 -0.1073 -0.0003 -0.1022
 9863W        W26711  12.034  14.127  12.475 -0.3250 -0.1095  0.0739
 9864W        W26712   6.743  11.227   1.458 -0.0537 -0.1991 -0.4768
 9865W        W26713   2.659   7.794   2.201  0.1214  0.1546  0.2106
 9866W        W26714  13.084   8.693   5.337  0.0525 -0.3283  0.0937
 9867W        W26715  15.609   2.980   1.810 -0.5045  0.3978  0.1876
 9868W        W26716   4.388  12.566   3.341 -0.3543 -0.0810 -0.0014
 9869W        W26717  10.859   7.277   3.370  0.3004 -0.1507  0.2468
 9870W        W26718  10.514   1.311   4.147  0.0460  0.0986 -0.0276
 9871W        W26719  15.555   1.630   0.801 -0.0440  0.0656 -0.2223
 9872W        W26720   1.717  11.507  11.488  0.2421  0.3323  0.1955
 9873W        W26721   7.689   4.143  15.131  0.0435  0.0755  0.0376
 9874W        W26722  13.910   9.341   4.063  0.0282  0.1414  0.3805
 9875W        W26723   0.803   8.055   4.793  0.1661  0.0280  0.1476
 9876W        W26724  10.125  16.905  16.063 -0.0787 -0.0623 -0.2851
 9877W        W26725  11.595   7.801   4.828  0.3415 -0.0719  0.0405
 9878W        W26726  12.647  11.447   4.370  0.0045 -0.3564  0.4278
 9879W        W26727   4.809  14.630   4.836 -0.1533 -0.0984 -0.0624
 9880W        W26728  10.579   8.141  12.973 -0.0407  0.2435  0.0950
 9881W        W26729  13.104   3.114   1.026  0.1723  0.0983 -0.0326
 9882W        W26730   5.448  11.730   3.145 -0.0701 -0.2318  0.0558
 9883W        W26731   8.245  16.238  12.223  0.3912  0.0853  0.2371
 9884W        W26732   0.233   0.080   4.826 -0.2095  0.3406  0.0751
 9885W        W26733   6.386   7.606   3.083 -0.3334 -0.0171  0.2309
 9886W        W26734   6.425  12.773  15.609 -0.1369  0.0320  0.5820
 9887W        W26735   9.231   6.262  12.035 -0.1149 -0.1411  0.0330
 9888W        W26736   3.610  13.176  13.996 -0.0646 -0.4503 -0.2295
 9889W        W26737   3.706   4.673   3.742 -0.1685 -0.0011 -0.1336
 9890W        W26738  14.085   2.518  11.908  0.1497  0.3233 -0.1469
 9891W        W26739   8.864   2.663   0.565 -0.1102 -0.2403  0.1628
 9892W        W26740   5.493  10.569   6.100  0.0696 -0.1916  0.2539
 9893W        W26741  12.557   3.555   3.772 -0.1358  0.0797 -0.0131
 9894W        W26742  13.227   8.267  11.590  0.2160  0.0945  0.1520
 9895W        W26743  13.454   3.670   0.737 -0.2604  0.4284 -0.3280
 9896W        W26744  11.009   5.030  13.129  0.2081 -0.2257  0.1523
 9897W        W26745   3.813  14.682  16.451 -0.1057  0.0487 -0.1167
 9898W        W26746  15.614  11.070   2.852  0.1500  0.1403 -0.1641
 9899W        W26747   7.224  16.224   4.839 -0.0858  0.3075 -0.0118
 9900W        W26748   2.920   8.071  16.345 -0.1690 -0.1075 -0.0164
 9901W        W26749   0.705  15.887   3.765  0.0808 -0.0973  0.1122
 9902W        W26750  11.853   6.850  12.222 -0.1518  0.0526  0.0695
 9903W        W26751  17.048   9.366  16.248  0.0609  0.2359 -0.0093
 9904W        W26752   5.483   8.054  13.840  0.2331  0.2175  0.1204
 9905W        W26753  11.056  11.425  12.177  0.1316  0.0644 -0.0836
 9906W        W26754   9.434   0.366  16.160  0.1607 -0.0402  0.0578
 9907W        W26755   6.145   5.964  15.710 -0.1734  0.2257  0.2467
 9908W        W26756   0.446   5.342   2.313 -0.1442 -0.0544 -0.3691
 9909W        W26757  16.823  15.389   1.828  0.1387  0.1422  0.2138
 9910W        W26758   0.625  13.824   2.020 -0.1241 -0.0446 -0.3841
 9911W        W26759   1.436   6.120  15.897 -0.1557 -0.1586 -0.1503
 9912W        W26760  13.067  13.273  15.414  0.0309  0.2169 -0.1334
 9913W        W26761  13.063   4.318   4.466 -0.0495  0.3522 -0.4821
 9914W        W26762   0.759   8.588  13.494  0.3395 -0.0057  0.2080
 9915W        W26763   1.500   4.006  16.214  0.0407 -0.2570  0.0422
 9916W        W26764   0.205   9.935  15.286 -0.2658  0.1423 -0.1376
 9917W        W26765   8.765   9.016   1.302  0.1901  0.1999 -0.2061
 9918W        W26766   5.057   5.351  15.346 -0.3425  0.0894  0.3429
 9919W        W26767  17.762   3.563  15.748 -0.1503  0.1794 -0.0203
 9920W        W26768  17.113   3.477   5.733 -0.2194  0.0214 -0.1306
 9921W        W26769   4.505   2.307   4.431  0.0243  0.1390  0.3245
 9922W        W26770   2.234  17.295  12.395  0.0916  0.1355  0.3261
 9923W        W26771   7.270   1.290  14.515 -0.0560 -0.0015  0.3536
 9924W        W26772   8.855  11.563  11.087  0.1554  0.0359 -0.0822
 9925W        W26773   8.818   6.823   1.952  0.1875 -0.0845 -0.2267
 9926W        W26774   2.105  10.173  13.787  0.0876 -0.0373 -0.0280
 9927W        W26775   3.613   9.546  16.471 -0.1124 -0.2358  0.0838
 9928W        W26776   9.375   6.821   1.698  0.1194  0.0219  0.0193
 9929W        W26777   3.392  10.174  15.864 -0.1390  0.1498 -0.0583
 9930W        W26778   0.736   3.667  12.752  0.4609 -0.0332  0.1872
 9931W        W26779   6.243  10.469  16.467 -0.2389 -0.1866 -0.1471
 9932W        W26780  16.333   3.986   2.491  0.1326  0.1152 -0.1178
 9933W        W26781  10.700  10.287   0.427  0.0345 -0.1848  0.1285
 9934W        W26782   3.084   5.851   2.165  0.2665  0.0518  0.1588
 9935W        W26783   6.505   4.496   4.723 -0.0815  0.0828 -0.1907
 9936W        W26784  15.358  10.643   1.880 -0.0029  0.0229  0.2991
 9937W        W26785   9.347  13.138   2.586 -0.2826  0.0488  0.2455
 9938W        W26786  12.498   9.295   4.747 -0.0465 -0.1501  0.1141
 9939W        W26787   9.378   8.229   4.068  0.0759 -0.0895 -0.1898
 9940W        W26788   5.407   1.754  11.241  0.1635 -0.2272  0.3099
 9941W        W26789   7.622   1.397  10.909  0.2830  0.0380  0.2565
 9942W        W26790  13.300  11.876   3.290 -0.1888  0.0285 -0.0294
 9943W        W26791  11.897   7.526   0.606  0.4231 -0.0209  0.0574
 9944W        W26792   2.201  12.816   3.570  0.2914  0.0227  0.0335
 9945W        W26793   4.302  15.391   4.144 -0.3307 -0.0831  0.2024
 9946W        W26794   7.020   2.289  14.697 -0.0434  0.1821  0.0826
 9947W        W26795   6.031  15.791   0.885  0.0972 -0.2253 -0.1702
 9948W        W26796  13.683  13.888  13.614  0.0349  0.0330  0.0267
 9949W        W26797   2.041   5.587  14.042  0.0068  0.1902 -0.6845
 9950W        W26798   1.821   0.645  15.202  0.0983 -0.0450 -0.0225
 9951W        W26799   8.394  12.863   1.512 -0.2202  0.3953 -0.1198
 9952W        W26800  14.197  15.926  12.866 -0.2143 -0.0973 -0.1046
 9953W        W26801  17.587  10.164   4.852  0.2451 -0.1270 -0.2857
 9954W        W26802   9.060   3.508  11.137 -0.1099 -0.1774 -0.2034
 9955W        W26803   2.102   0.386  15.551 -0.2517 -0.1406 -0.0558
 9956W        W26804   6.137  10.458   2.341  0.0463 -0.0680 -0.0412
 9957W        W26805   3.248  12.297   4.221  0.1336 -0.2201  0.1372
 9958W        W26806   5.766   8.168   2.672  0.0807 -0.0005 -0.2105
 9959W        W26807   0.126   8.946  14.876 -0.0591  0.0297  0.0436
 9960W        W26808  14.333  14.140   4.091 -0.0571  0.2504  0.1719
 9961W        W26809   2.127   0.076   3.523  0.2524 -0.0526  0.0596
 9962W        W26810   5.266   9.861  13.346  0.1886 -0.2046 -0.0575
 9963W        W26811   7.335   0.360   3.484 -0.0434  0.1610 -0.3581
 9964W        W26812   2.407   4.738  14.325 -0.0159 -0.2205 -0.0482
 9965W        W26813   9.989   7.398   4.831  0.1261 -0.5524 -0.4444
 9966W        W26814  10.590   8.839   3.769  0.2289 -0.1272 -0.2025
 9967W        W26815   5.868  10.327  11.288  0.3329  0.3856 -0.3169
 9968W        W26816   0.921  12.323  10.200  0.2808 -0.0171  0.2102
 9969W        W26817   5.865  14.529   1.601 -0.2351  0.0041 -0.2807
 9970W        W26818   3.740  12.193   5.126  0.3351 -0.2122  0.4567
 9971W        W26819   8.202  10.335  15.914  0.2093 -0.1176  0.0997
 9972W        W26820   0.751   3.063  15.679 -0.1274 -0.1440  0.1649
 9973W        W26821   4.574   5.545   4.494 -0.1162  0.2957  0.0421
 9974W        W26822   4.592  14.599   3.863  0.1619  0.0235  0.3673
 9975W        W26823   2.949  10.456   4.542 -0.0325  0.0325 -0.2008
 9976W        W26824   1.474  14.779   0.482  0.0734  0.0123 -0.0680
 9977W        W26825  12.556   5.574   2.557  0.0035  0.1173 -0.2598
 9978W        W26826   2.913   2.951   2.126 -0.1338 -0.2099 -0.0340
 9979W        W26827  13.921  11.287  13.355  0.2115 -0.1237 -0.2602
 9980W        W26828   5.576   8.748  11.763  0.1863  0.4701  0.1679
 9981W        W26829   0.691   9.848   0.667  0.0127  0.0764  0.0694
 9982W        W26830   1.945   9.553   1.778  0.0666 -0.2336  0.1684
 9983W        W26831   1.756   3.779  12.831  0.3777 -0.0657 -0.0225
 9984W        W26832   8.915  10.078   1.903  0.1219 -0.0801  0.0606
 9985W        W26833  11.787   0.138  11.461 -0.2592 -0.1371 -0.1017
 9986W        W26834   8.002  13.245   2.687  0.0675 -0.0341  0.2045
 9987W        W26835  12.244   6.714   0.790 -0.2194 -0.0784 -0.1416
 9988W        W26836  12.722   8.811   3.592  0.3785 -0.1856  0.1052
 9989W        W26837   5.564  13.542   3.458 -0.3420  0.1509 -0.0813
 9990W        W26838   9.779   9.199  14.093  0.0049 -0.0418 -0.0224
 9991W        W26839  13.590  17.615   1.446 -0.0026 -0.1765 -0.1761
 9992W        W26840  11.126  15.692   2.101  0.1377 -0.0974  0.1068
 9993W        W26841   5.202   9.946   4.849  0.0282  0.3366  0.0379
 9994W        W26842  15.855   8.460   3.808 -0.3241 -0.1144  0.0821
 9995W        W26843  17.581   9.990  16.280  0.0692 -0.3688  0.1930
 9996W        W26844  14.863  11.528  15.641  0.0816  0.1162  0.0785
 9997W        W26845  12.586  11.345   6.140  0.1728 -0.1407 -0.1313
 9998W        W26846   9.833   3.215   1.153 -0.3091  0.0048  0.1731
 9999W        W26847  13.926   7.326   1.395  0.3842  0.0648 -0.2314
10000W        W26848   1.984   9.492  14.117  0.3729  0.0928 -0.3267
10001W        W26849  17.875   6.314  16.166  0.0195 -0.0418  0.2749
10002W        W26850  15.056   9.346   3.305 -0.1437 -0.0475  0.1380
10003W        W26851   9.283  16.670   0.452 -0.1832 -0.0718 -0.1611
10004W        W26852  12.029  12.106   2.349  0.0100  0.0774 -0.1905
10005W        W26853   1.911  15.566   2.710  0.1899 -0.2887 -0.0840
10006W        W26854  10.914   1.264  12.806  0.1770  0.0109  0.1771
10007W        W26855  12.229  14.608  12.890  0.1203 -0.1187  0.2710
10008W        W26856  16.459  12.964  12.342 -0.0522 -0.1517  0.0925
10009W        W26857   6.284   6.684  14.458  0.0613 -0.3081  0.0971
10010W        W26858  17.135   1.963   5.980 -0.3214  0.1925 -0.1808
10011W        W26859  12.584  13.155   2.161  0.0657 -0.0463 -0.1173
10012W        W26860   6.206  12.157   1.301  0.4703  0.0783  0.2536
10013W        W26861   3.416   9.315   1.083  0.1375 -0.0392  0.1880
10014W        W26862  16.050  17.610   3.309  0.0835  0.4701  0.1441
10015W        W26863  16.281   2.153  14.630 -0.0450  0.1008 -0.0878
10016W        W26864  10.712   6.926  15.069 -0.0116 -0.1100 -0.1393
10017W        W26865   5.079   6.783   4.644 -0.0913 -0.5932 -0.2732
10018W        W26866  15.876  15.193  12.023 -0.1249  0.2030 -0.0908
10019W        W26867   0.922   6.337   0.694 -0.0175 -0.0015  0.3382
10020W        W26868  10.624  10.401   1.570  0.0105  0.0291 -0.1364
10021W        W26869   1.965   9.885   2.228 -0.2572  0.2472 -0.0495
10022W        W26870   3.310  12.822   3.929  0.0073 -0.1370 -0.0137
10023W        W26871   4.040  17.258   0.991 -0.0533 -0.1012  0.2630
10024W        W26872   8.961   4.586  13.055  0.0432 -0.1096  0.3256
10025W        W26873   9.649  16.758   3.182  0.1683 -0.1604 -0.0200
10026W        W26874   6.183  11.655   5.375  0.0817 -0.2147  0.1486
10027W        W26875   9.535   3.064   4.675 -0.0708 -0.0227 -0.1387
10028W        W26876  13.755   4.623  14.594  0.0739 -0.4511 -0.2671
10029W        W26877   4.990   8.418   1.624  0.0615  0.0726  0.3789
10030W        W26878  17.411   3.474  12.658 -0.3099 -0.3260  0.0094
10031W        W26879  10.318   8.178   0.772 -0.2249  0.0500 -0.0979
10032W        W26880   8.205   3.908   2.400  0.0519  0.1329  0.0648
10033W        W26881  13.110   3.454   4.670 -0.2612  0.1835  0.1765
10034W        W26882   8.817   5.268  16.275 -0.1148  0.1355 -0.1664
10035W        W26883  17.628  11.645  11.643  0.3099  0.0516 -0.0860
10036W        W26884   5.959   6.270  14.620 -0.1254 -0.0318 -0.0080
10037W        W26885   3.972  14.382   0.370 -0.2265  0.1058  0.0184
10038W        W26886  12.855   6.565  12.128 -0.0148  0.1472 -0.1120
10039W        W26887   4.276  16.805  12.456 -0.3480 -0.2278 -0.1343
10040W        W26888  12.984   1.548   4.948 -0.1416 -0.1443  0.0251
10041W        W26889   8.285   3.391   3.619 -0.0538 -0.0115  0.0060
10042W        W26890   3.688   3.324   0.500 -0.0092 -0.0608 -0.0783
10043W        W26891  14.954  14.713  11.602 -0.0962  0.1074  0.1378
10044W        W26892   3.846  14.615  14.051  0.0700  0.1864 -0.5032
10045W        W26893   2.940   9.937  12.732  0.0385 -0.0710  0.2260
10046W        W26894  16.298   6.920   4.657 -0.1150 -0.4301 -0.0610
10047W        W26895  10.253   8.034   4.257 -0.1702 -0.1365 -0.3218
10048W        W26896  13.000   8.121  13.772 -0.1539 -0.2315  0.0442
10049W        W26897   0.255  11.567  11.725 -0.1320  0.1637  0.0037
10050W        W26898  15.295   9.579  13.820 -0.1156  0.0024  0.2671
10051W        W26899   2.201  11.457   1.788 -0.2649  0.1576  0.0673
10052W        W26900   9.519  10.546   3.085  0.0115 -0.2421  0.2949
10053W        W26901   9.259  13.531   4.858  0.1279 -0.0329  0.0689
10054W        W26902   0.003  16.005   3.931  0.1774  0.0650  0.2724
10055W        W26903  11.974  14.597   4.339  0.0150  0.0169 -0.0620
10056W        W26904   4.239  15.556   0.275  0.1913 -0.1747 -0.2482
10057W        W26905  11.716   6.562   1.619 -0.1084  0.4029  0.2162
10058W        W26906   3.821   9.446   2.611 -0.2149  0.0013  0.0246
10059W        W26907  13.363  17.003   5.153  0.1028  0.2477 -0.0142
10060W        W26908   5.927   3.728   2.471 -0.4264 -0.1774  0.0306
10061W        W26909   0.734  12.483  12.618 -0.1276  0.0740 -0.0238
10062W        W26910  12.160  14.358   3.006 -0.0055  0.3585 -0.1005
10063W        W26911   2.280   8.078  12.378  0.0009 -0.0558  0.0989
10064W        W26912   6.330   1.612  11.639 -0.1495  0.0115 -0.2135
10065W        W26913   6.616   5.811   1.367  0.1000  0.3605  0.0146
10066W        W26914   5.794   2.211   3.400  0.0922 -0.0418  0.0448
10067W        W26915   4.698   2.894  13.535  0.0430  0.0523 -0.0983
10068W        W26916   8.977   8.843   0.192  0.2731  0.0025  0.0420
10069W        W26917   5.437  15.870  15.539 -0.0988 -0.0755 -0.0848
10070W        W26918  10.298  12.456   4.530 -0.1738 -0.0280 -0.1745
10071W        W26919   4.770   2.182  15.918  0.1603  0.0934  0.0489
10072W        W26920   1.128   8.410   0.720 -0.2000  0.0694 -0.1820
10073W        W26921   8.119   5.959  15.352 -0.0568 -0.2163 -0.2000
10074W        W26922   9.739   9.697   4.535  0.1673  0.0911 -0.1112
10075W        W26923   6.042  10.147   4.674  0.2100 -0.3389  0.0409
10076W        W26924  15.434  11.575  14.822 -0.1163 -0.1440  0.0498
10077W        W26925   5.052  17.161   1.248  0.1189  0.1318 -0.1870
10078W        W26926   1.226  14.083   2.086 -0.1608 -0.2324 -0.0456
10079W        W26927   6.697   3.301   3.349  0.1078  0.0182 -0.1916
10080W        W26928   1.014  10.656  11.398  0.4204  0.1121  0.2326
10081W        W26929   4.497   2.953   0.789 -0.0170  0.2067  0.1317
10082W        W26930   2.763  14.573   0.775  0.0876  0.3339 -0.2525
10083W        W26931  15.342  15.520   3.921  0.2491  0.0869  0.2337
10084W        W26932   3.923   3.939  12.193  0.0565 -0.1519 -0.5941
10085W        W26933  16.346   7.720  16.025 -0.1879  0.0134 -0.3861
10086W        W26934  13.185   5.171  13.688  0.0739 -0.0881  0.1489
10087W        W26935  14.244  13.676  14.262  0.0632  0.1667 -0.0280
10088W        W26936   8.364  11.698   0.846  0.1672 -0.1586 -0.1733
10089W        W26937  17.684   8.736  13.496  0.2201  0.1775  0.0239
10090W        W26938  17.361  13.164  11.371  0.1178 -0.0678 -0.3263
10091W        W26939   8.246   7.785  15.383 -0.0539 -0.1779  0.0016
10092W        W26940  13.108  14.258   0.103  0.1333  0.3803  0.1929
10093W        W26941  17.777  13.579   1.358  0.0895 -0.0307 -0.0069
10094W        W26942  14.594   1.302  12.411 -0.2636  0.0169  0.0832
10095W        W26943   4.108   9.340  15.905 -0.1095 -0.1469 -0.1488
10096W        W26944   7.115   4.940   6.125 -0.1190 -0.0754 -0.3368
10097W        W26945  16.011   1.543   1.206 -0.2800 -0.0335 -0.1295
10098W        W26946   3.087   1.727  15.511 -0.0357  0.0434  0.0381
10099W        W26947  16.098   7.676   1.354  0.2014  0.1028 -0.1121
10100W        W26948  12.887   2.478   2.989 -0.2034  0.0969 -0.0797
10101W        W26949   4.181  11.195   4.486 -0.0390  0.5344  0.1952
10102W        W26950   6.060   0.015   0.884  0.1510  0.1556 -0.1346
10103W        W26951  11.386   9.432  12.123  0.1148 -0.4071 -0.1276
10104W        W26952   0.060   0.355   0.404  0.0602  0.0462 -0.1492
10105W        W26953  11.570  13.368  12.202 -0.0280 -0.0760  0.0102
10106W        W26954   5.160   0.781  12.409  0.0942  0.0394 -0.1698
10107W        W26955   1.258   8.073  12.103  0.2888  0.0871 -0.0615
10108W        W26956  14.863  17.418  14.298  0.1884 -0.2307 -0.2171
10109W        W26957   3.445   6.650   3.199 -0.1283  0.1129 -0.0598
10110W        W26958   8.592   9.081  14.371 -0.1658 -0.0578  0.1285
10111W        W26959  13.311  10.576  11.926 -0.0339  0.1932 -0.0025
10112W        W26960  15.884  15.557   3.695  0.3016 -0.4135 -0.0913
10113W        W26961  14.676  16.606  11.646  0.0118  0.0728 -0.3068
10114W        W26962  13.462  17.773   2.636  0.1739  0.0092 -0.1235
10115W        W26963   9.275   5.342  14.809 -0.0190  0.0332 -0.1056
10116W        W26964   2.485   4.709   3.352  0.2661  0.2357  0.2682
10117W        W26965   2.196  10.738  12.699 -0.1118 -0.3478  0.0631
10118W        W26966   7.722  10.166  13.630 -0.0298  0.0118  0.1448
10119W        W26967   3.065  13.143  13.925  0.1892 -0.1526 -0.0777
10120W        W26968   3.606  12.000  11.871  0.0460  0.0752  0.2344
10121W        W26969   4.492  14.750  13.841  0.1586  0.0170 -0.1119
10122W        W26970  11.911   8.572  14.843 -0.0352  0.1629  0.2179
10123W        W26971  13.508   9.267   1.917 -0.0434 -0.0412 -0.0436
10124W        W26972  13.515   9.707  14.788 -0.1504  0.0944  0.1752
10125W        W26973   4.629   5.122  10.975 -0.0174 -0.1892 -0.2405
10126W        W26974  13.170   0.839  16.160 -0.0101 -0.0454 -0.2233
10127W        W26975  16.480   1.979   3.477  0.3275  0.2414 -0.0387
10128W        W26976  13.047   8.201   5.337 -0.4593  0.1840 -0.1934
10129W        W26977   7.353  17.459  11.769 -0.0134  0.1400 -0.3054
10130W        W26978   2.638  12.156  16.453  0.0301  0.3268  0.0795
10131W        W26979  13.450   7.388   4.413  0.2309  0.1737 -0.0088
10132W        W26980   2.416   4.884  15.762  0.1018  0.0810  0.0895
10133W        W26981   2.602  14.700  12.523  0.5352 -0.2018 -0.1426
10134W        W26982   7.009   9.249  15.033  0.3644  0.0919  0.0604
10135W        W26983   6.216   4.346  16.396  0.0599 -0.0383  0.1195
10136W        W26984   8.136   4.343  15.223  0.2023  0.0539 -0.0124
10137W        W26985  13.540   1.994   2.102  0.0227 -0.0797 -0.2140
10138W        W26986  11.533  17.074  11.110  0.1378  0.0868  0.1031
10139W        W26987   8.023   4.422   2.213 -0.2548  0.0475  0.2264
10140W        W26988  14.967  10.977   2.110 -0.0585  0.0783  0.0923
10141W        W26989  12.245   8.434   4.332  0.0460 -0.0447  0.1029
10142W        W26990   0.741  12.779   0.691 -0.1269  0.0164 -0.0831
10143W        W26991  11.964  13.399  16.428  0.0391 -0.1190 -0.0043
10144W        W26992   4.232  13.059  10.544  0.2130  0.2072 -0.1042
10145W        W26993  15.932  10.322  11.923 -0.0353  0.1054 -0.2478
10146W        W26994   9.856  14.372  13.724 -0.1460 -0.0219  0.0969
10147W        W26995  15.681  14.334   4.184  0.1216  0.0137 -0.0304
10148W        W26996   3.124   3.766   4.955  0.1075 -0.1611  0.1831
10149W        W26997   2.807   5.674   0.012 -0.0991  0.0384 -0.0129
10150W        W26998   0.520  10.008   5.277 -0.0965  0.1075  0.3138
10151W        W26999   4.578   4.128   2.033 -0.2206  0.0126 -0.2966
10152W        W27000   5.858   9.357  13.839 -0.1449 -0.2114  0.0668
10153W        W27001  13.379   6.723  12.376 -0.4984  0.0458 -0.1034
10154W        W27002  15.294   2.719   0.970 -0.1332 -0.1047  0.1614
10155W        W27003  12.339  15.645  12.118  0.0540  0.5348 -0.1035
10156W        W27004   6.245  17.786   1.973  0.2102 -0.1659  0.0243
10157W        W27005   0.490  14.198   3.993  0.0004 -0.2735 -0.0345
10158W        W27006   4.425   5.930   6.263  0.2173  0.2261 -0.0274
10159W        W27007  16.743   9.625   3.207 -0.1821 -0.0893  0.0181
10160W        W27008   2.643   9.253   0.634 -0.2294  0.0171 -0.3351
10161W        W27009  15.161  15.377  14.096  0.0358 -0.2448  0.0558
10162W        W27010  11.635   4.631   1.997  0.3298  0.0151  0.0011
10163W        W27011   3.192   7.493   4.776 -0.0402 -0.1615  0.3886
10164W        W27012  14.994   5.916   1.427  0.1815  0.1174  0.1223
10165W        W27013  10.811   3.797  11.664 -0.1574  0.2631  0.1496
10166W        W27014   3.387  14.055   2.174  0.1972  0.1166 -0.2291
10167W        W27015  12.839  16.019  15.665  0.0463  0.0636 -0.5562
10168W        W27016  11.971  17.465   0.506 -0.1001 -0.2385  0.3027
10169W        W27017   6.776  11.177   3.456  0.0790 -0.1491  0.2249
10170W        W27018  16.469  11.798  14.321  0.0113  0.1326 -0.0337
10171W        W27019   2.575  12.726  13.153  0.2156  0.4237  0.1092
10172W        W27020  15.650   7.258  12.277 -0.0709  0.0324 -0.2107
10173W        W27021   2.323  10.127   3.841  0.0548 -0.0777 -0.3412
10174W        W27022  17.387  13.201  12.301  0.1928  0.0128 -0.1628
10175W        W27023   8.915  14.281   2.332  0.0778 -0.3728  0.0134
10176W        W27024   0.583  15.746   0.932  0.1376  0.1928  0.0850
10177W        W27025   1.556  14.841   2.846 -0.1869 -0.2984 -0.2013
10178W        W27026   1.198  16.158  12.234  0.2456  0.1591  0.0330
10179W        W27027   9.506   8.382  13.935  0.0037 -0.1174 -0.0274
10180W        W27028  10.172   6.791   4.437 -0.2362  0.0121  0.0144
10181W        W27029   5.698  13.872   5.471 -0.1053 -0.2882  0.1612
10182W        W27030  12.633   9.220  12.525  0.1341  0.1984  0.0482
10183W        W27031   6.535   1.018   2.898  0.0625  0.0424  0.0669
10184W        W27032   8.227  15.577   3.121 -0.1210  0.1948 -0.1438
10185W        W27033   4.388  13.433  15.179  0.0715 -0.0641  0.0559
10186W        W27034   4.940   8.055  13.850 -0.0572 -0.0696 -0.3911
10187W        W27035   5.967  13.335   1.577  0.3832  0.2525  0.1266
10188W        W27036   2.713   3.505   2.392 -0.0953  0.1554  0.0419
10189W        W27037   0.818  17.724   2.426 -0.0368  0.0554  0.0738
10190W        W27038   4.797   6.398  15.713  0.1432  0.0714 -0.0282
10191W        W27039  14.329   5.418   4.350 -0.0943 -0.0173 -0.1921
10192W        W27040  12.757   0.407  12.591  0.3869 -0.1286  0.2150
10193W        W27041   5.480  11.108   4.130  0.1761 -0.3338 -0.0855
10194W        W27042   6.154  13.615   5.579 -0.0944  0.2163 -0.1763
10195W        W27043   3.323  14.342  14.117  0.0669  0.3063  0.1944
10196W        W27044   7.420  10.581  11.668 -0.1965  0.1412  0.2815
10197W        W27045  13.593   4.511   0.238  0.1524  0.0912 -0.1653
10198W        W27046  11.446  14.845   2.317 -0.2203 -0.1172 -0.3073
10199W        W27047  17.394  14.804   3.647 -0.0140  0.4101 -0.1954
10200W        W27048  10.636  14.259  11.386  0.1735  0.3341 -0.0694
10201W        W27049  10.426   5.929  12.234  0.0019  0.0338  0.2783
10202W        W27050  10.247   8.500  11.820  0.1244 -0.1807  0.0950
10203W        W27051   3.047  17.736  12.816 -0.1842 -0.3989 -0.4103
10204W        W27052   3.917   6.942  12.469  0.1011 -0.1854 -0.3295
10205W        W27053   1.361   6.716  11.875  0.0531 -0.0760 -0.0919
10206W        W27054  14.076   6.637   6.114 -0.2305  0.0962  0.0502
10207W        W27055  11.247  17.416   2.615 -0.0570 -0.3993  0.0505
10208W        W27056   9.845   5.754   4.082 -0.0282  0.0734 -0.0607
10209W        W27057  17.242   1.441   3.715  0.0667  0.0982 -0.0377
10210W        W27058   3.769  15.324   6.206 -0.1161 -0.2688 -0.1435
10211W        W27059   5.415  10.581  15.336  0.0077  0.0708 -0.0701
10212W        W27060   5.920   9.143  12.658 -0.1273  0.1005 -0.1370
10213W        W27061   3.783   7.298   5.496  0.0135  0.1275  0.0848
10214W        W27062   0.761  15.531   3.303 -0.2736  0.0216 -0.0574
10215W        W27063   8.982  17.176   0.523  0.1920 -0.1079 -0.0675
10216W        W27064  16.857  10.943   1.017  0.1922  0.2280  0.0636
10217W        W27065  12.338   1.382  16.206  0.3256  0.2583 -0.1657
10218W        W27066  14.497  14.714   2.829 -0.0449 -0.1535 -0.0513
10219W        W27067  11.618   6.792   3.341  0.2090 -0.1757  0.3481
10220W        W27068   8.366   6.723  11.637  0.0298 -0.1128 -0.1884
10221W        W27069  16.794   9.135  12.262  0.2822  0.1313 -0.1317
10222W        W27070   5.535   4.976   1.386  0.0347 -0.0369 -0.1792
10223W        W27071  13.688   0.143   0.188  0.0752 -0.1539 -0.0625
10224W        W27072   6.151  11.984  13.826 -0.1119 -0.2029  0.2844
10225W        W27073   6.649   5.076   3.909 -0.0786 -0.0475 -0.1503
10226W        W27074   3.156  10.453   2.828 -0.0755  0.2187  0.1054
10227W        W27075  11.660   9.809  14.447  0.3344 -0.3096  0.1759
10228W        W27076   2.965  14.077   2.871 -0.3284 -0.2272  0.0973
10229W        W27077   0.017  14.955   3.699 -0.0910  0.3315  0.0734
10230W        W27078  12.192   2.048  12.431  0.1831 -0.0500  0.0956
10231W        W27079   1.432   8.584   5.197  0.0808 -0.0498 -0.0981
10232W        W27080   5.223   0.301   5.175 -0.0245 -0.0860 -0.0688
10233W        W27081  17.664   8.794   0.946  0.0073 -0.0474 -0.2128
10234W        W27082   6.819  15.648   3.810  0.3257  0.0751  0.2832
10235W        W27083  17.739   6.378   0.935 -0.0939  0.0682  0.1249
10236W        W27084  15.887   2.866   3.302  0.1532 -0.0807  0.0344
10237W        W27085   7.322   0.523  16.092  0.0558 -0.0206  0.1191
10238W        W27086   4.274  11.766   1.698  0.0684  0.0607 -0.1361
10239W        W27087  12.750  16.007   2.946  0.0812 -0.3584 -0.2600
10240W        W27088   1.906   4.374  15.826  0.1421  0.1826  0.3150
10241W        W27089   7.981  13.196  13.665  0.2625  0.0013  0.1660
10242W        W27090   2.347  10.657  13.218  0.0140 -0.0708 -0.2467
10243W        W27091  11.909   2.393   3.772  0.0493 -0.4208  0.0069
10244W        W27092   4.631  16.045  15.732  0.1358  0.1351  0.0333
10245W        W27093  17.461  14.493   2.873 -0.1310 -0.1695 -0.0131
10246W        W27094   9.787  15.519   1.638 -0.1186 -0.1500 -0.3984
10247W        W27095   1.463   7.993   4.024 -0.2575 -0.0276  0.0860
10248W        W27096  14.709  11.961  14.231 -0.1287 -0.0852 -0.2007
10249W        W27097   4.914   3.040   3.318  0.1200  0.2692  0.2597
10250W        W27098  10.990   4.652  15.402  0.2221 -0.2964 -0.0894
10251W        W27099   3.969  11.374   3.507 -0.1729 -0.2096  0.2817
10252W        W27100  11.106   2.402  11.488 -0.2045  0.1893  0.0279
10253W        W27101  15.844   6.478   1.245 -0.2155 -0.2376  0.1007
10254W        W27102   3.711  14.105   3.841  0.4281  0.0346  0.0748
10255W        W27103   3.098   3.296  16.035 -0.0120  0.1442 -0.0342
10256W        W27104   3.726  16.878  12.221 -0.1221  0.1077  0.2024
10257W        W27105  13.870   1.028  11.499  0.2055 -0.0997 -0.0095
10258W        W27106   6.928  10.002   3.249  0.1215  0.2007  0.5801
10259W        W27107   1.974  14.558  11.901 -0.2611 -0.1621  0.1154
10260W        W27108  13.225  15.166   3.097 -0.0351 -0.1587  0.0906
10261W        W27109   7.094   7.286   4.433 -0.1102 -0.0883 -0.0690
10262W        W27110   0.687   5.921  12.026 -0.0472  0.0608 -0.1808
10263W        W27111  11.858  12.919  11.599 -0.2204  0.1915  0.1432
10264W        W27112   1.346   7.114   3.376 -0.1747  0.0399 -0.3619
10265W        W27113   3.986   6.077   4.325  0.0278 -0.2041  0.2752
10266W        W27114  14.019  15.760   0.029 -0.0435  0.4605  0.0061
10267W        W27115  11.059  12.176   0.674 -0.1453  0.1130 -0.4775
10268W        W27116  10.333   4.338  16.332  0.0351 -0.1544 -0.0539
10269W        W27117   6.549  15.665   1.708  0.1722  0.2416  0.1289
10270W        W27118  16.298   4.644  13.821  0.3246 -0.0583  0.1163
10271W        W27119   4.190   5.285  11.278  0.0600  0.0829  0.2738
10272W        W27120   5.307   3.733  13.360  0.2114 -0.2540  0.1802
10273W        W27121   7.188   8.639  12.612 -0.1237 -0.0700 -0.3545
10274W        W27122   4.633  15.432  14.484  0.2531  0.3612  0.1831
10275W        W27123   5.291   2.447  11.688 -0.1052 -0.0369  0.0336
10276W        W27124   9.718  14.742  16.084  0.0479 -0.0040 -0.0626
10277W        W27125   6.429  16.115  16.360  0.0715  0.0619 -0.0842
10278W        W27126   4.835   3.668  13.151 -0.0398  0.2836 -0.4901
10279W        W27127   2.220  14.040  12.563  0.4712 -0.0948  0.1344
10280W        W27128  17.541   8.579  16.256 -0.0350  0.3335  0.1774
10281W        W27129   9.871   9.578   0.053  0.2873  0.0901 -0.2489
10282W        W27130   7.201   9.709  16.285  0.1569 -0.0554 -0.1558
10283W        W27131   6.754   6.363  13.027  0.0418  0.3285 -0.0805
10284W        W27132   9.330   6.693   5.661  0.1227 -0.1007 -0.1050
10285W        W27133  14.641   9.487  11.956  0.0333 -0.1934 -0.1202
10286W        W27134  12.108   3.243  14.450  0.1118  0.2241  0.2163
10287W        W27135   7.089  10.853  11.933 -0.0125 -0.1296  0.0709
10288W        W27136  13.687  10.789  14.137 -0.0817 -0.3636 -0.0897
10289W        W27137  13.353   8.431  13.625 -0.0713  0.0598 -0.1568
10290W        W27138  16.692  11.027   0.318  0.1918  0.0133  0.0419
10291W        W27139   7.096   1.716  13.443 -0.0164 -0.0565  0.1835
10292W        W27140   2.325   5.759   3.478 -0.0366 -0.1144  0.1914
10293W        W27141  15.981  10.540   3.743  0.0264  0.0594  0.0844
10294W        W27142   8.388   2.411  16.332  0.1851 -0.0558  0.0684
10295W        W27143  11.868   9.556  13.759  0.3293  0.1545  0.0451
10296W        W27144   9.008   8.418  15.719  0.2120 -0.2898  0.1819
10297W        W27145   6.885  14.664   2.486 -0.1064 -0.0495 -0.1780
10298W        W27146   8.702   6.096  12.074 -0.2754  0.1733  0.2496
10299W        W27147  15.990   9.181   4.544 -0.2687  0.0163  0.3497
10300W        W27148   7.451   1.776  11.634 -0.1341  0.0944 -0.0787
10301W        W27149   7.528  14.138   5.765  0.4162  0.3372 -0.0233
10302W        W27150   5.641   8.811   4.255  0.2032  0.1012  0.0371
10303W        W27151   5.195   8.037   5.318 -0.2012 -0.1404  0.1172
10304W        W27152   2.261  17.576   2.751 -0.2275  0.1235 -0.2968
10305W        W27153  10.723  16.702  15.327 -0.0843 -0.2176 -0.0488
10306W        W27154   5.726  12.688  11.959  0.2027 -0.4400 -0.1619
10307W        W27155  16.967  17.689   1.932  0.2517  0.0420 -0.0628
10308W        W27156   5.399  15.051  13.991 -0.1841  0.1383 -0.1255
10309W        W27157   2.346   8.270  12.871  0.1182 -0.1659  0.1535
10310W        W27158   3.968   1.962   0.734 -0.4819  0.0133 -0.0182
10311W        W27159   5.474   6.421   0.371  0.4022  0.1453 -0.2148
10312W        W27160   1.711  10.008   3.032 -0.0780 -0.1063 -0.0345
10313W        W27161  17.764  14.406  11.211  0.0805 -0.1055 -0.1020
10314W        W27162  11.129   9.671  14.434  0.1805 -0.2783 -0.0987
10315W        W27163   5.668   9.264   4.492  0.2176  0.0615  0.1261
10316W        W27164   5.793  15.334   3.498  0.0081 -0.1057 -0.3438
10317W        W27165   4.786   4.523  13.201 -0.0815  0.1104 -0.4124
10318W        W27166  17.724  11.345  13.068 -0.0341 -0.0101  0.1802
10319W        W27167  13.049   3.663  13.865  0.0906 -0.1097  0.0286
10320W        W27168   6.570   7.150   3.053 -0.0574 -0.2211 -0.0395
10321W        W27169  11.556  12.702  14.169 -0.2101 -0.1435 -0.0438
10322W        W27170   7.945  14.593  15.425  0.3978 -0.0299  0.0371
10323W        W27171  16.670  12.767   4.532  0.1427  0.1730  0.5461
10324W        W27172   4.300  11.174  13.430  0.1003  0.0279  0.0194
10325W        W27173   4.531   5.867  13.305  0.0730  0.1779  0.0020
10326W        W27174   0.196  16.200   4.875 -0.2872  0.1344 -0.0517
10327W        W27175   5.980  10.128   1.136 -0.0357 -0.2429  0.2676
10328W        W27176  13.145   9.902   0.794 -0.0320  0.0698  0.1239
10329W        W27177   6.941   1.640  14.847 -0.2722  0.0830  0.2843
10330W        W27178  13.102   8.672  14.753 -0.0317 -0.0440  0.0050
10331W        W27179  16.673  12.831  14.377 -0.1023 -0.0839 -0.1967
10332W        W27180   8.627   8.989   3.633 -0.3927 -0.1337 -0.0825
10333W        W27181   3.986   5.882   0.132 -0.0765 -0.1422  0.0439
10334W        W27182  17.872  11.553   0.343 -0.1347  0.0008 -0.3137
10335W        W27183   4.525   5.341   3.313 -0.1757 -0.0342 -0.1019
10336W        W27184  13.414  13.692   2.197  0.0464  0.3683  0.0687
10337W        W27185   1.479  15.823   2.653 -0.2798  0.2576 -0.2071
10338W        W27186   7.023   0.934   1.534  0.1368  0.1472  0.2120
10339W        W27187  15.148   3.198  12.520  0.1079  0.1488 -0.4889
10340W        W27188   3.838  15.188   5.663 -0.1260 -0.1392 -0.1328
10341W        W27189  15.817   8.204   2.706  0.0788 -0.0351  0.1750
10342W        W27190   1.343  11.949   2.022  0.0309  0.1099 -0.1326
10343W        W27191   3.073   6.780   2.872 -0.0744 -0.0637  0.1909
10344W        W27192  11.377   5.047  13.730 -0.3003  0.2910  0.1993
10345W        W27193  16.173  16.675   0.616  0.1903 -0.0607 -0.0986
10346W        W27194  10.120   4.516   1.429 -0.0634  0.0204  0.0171
10347W        W27195  11.534   1.986   0.884 -0.3144  0.1403 -0.0529
10348W        W27196   8.950   0.174   0.510  0.0757  0.2509 -0.2005
10349W        W27197  13.494   5.045   3.956 -0.0509  0.0397  0.0289
10350W        W27198   9.114   3.613  12.279  0.2130 -0.0277 -0.1469
10351W        W27199   4.435  17.010   5.175 -0.0021 -0.0316 -0.0432
10352W        W27200   2.499  11.203   4.280 -0.1118  0.0197  0.4506
10353W        W27201  10.741   2.542  15.467 -0.0460 -0.2258  0.0173
10354W        W27202  11.953  10.480  14.073 -0.2199  0.0629 -0.0349
10355W        W27203  11.742   6.260   3.417 -0.0634 -0.3135 -0.0643
10356W        W27204   2.961   8.887  15.037  0.2453 -0.0748 -0.0784
10357W        W27205  15.984  14.114   2.713  0.2326  0.1949  0.1713
10358W        W27206  14.713   2.363   5.951  0.1582  0.2307  0.4613
10359W        W27207   4.613  12.177   4.217 -0.0562  0.1746 -0.0527
10360W        W27208   1.779  15.653  16.441  0.2101 -0.3216 -0.1045
10361W        W27209  16.718  17.686  14.002 -0.0691 -0.0905  0.1189
10362W        W27210   5.585   8.228  14.917 -0.0195 -0.1343 -0.1156
10363W        W27211  11.935  16.339  15.904 -0.1729 -0.2580 -0.1651
10364W        W27212   8.158  17.876   3.556  0.2067  0.0931  0.2259
10365W        W27213  13.071   6.462   1.911  0.0630  0.0989  0.0203
10366W        W27214  14.192  13.416  13.419  0.0279  0.5398  0.0844
10367W        W27215   9.325   2.034   3.888  0.2256 -0.0581  0.0331
10368W        W27216  17.620  14.276   2.112  0.2794  0.3408  0.1355
10369W        W27217   0.626   3.285  12.459  0.3316  0.0093 -0.2688
10370W        W27218   8.635  11.963  15.266  0.2534  0.0677  0.2575
10371W        W27219   4.745  11.788   3.902  0.2133  0.5877 -0.1618
10372W        W27220  14.839   3.556  13.160 -0.1054  0.0356 -0.1438
10373W        W27221   3.052   1.738  14.953  0.2212  0.0262  0.0572
10374W        W27222  11.364   2.620  14.341  0.1889 -0.0809 -0.0660
10375W        W27223   1.938  12.596  16.214 -0.5196  0.3540  0.0842
10376W        W27224   5.616  15.176  14.431 -0.1538  0.0193  0.2923
10377W        W27225   9.484   8.750  14.369  0.3006 -0.0018  0.0224
10378W        W27226   3.476   5.698  12.217  0.0739 -0.2083 -0.1037
10379W        W27227  15.945  11.943  11.434  0.0051  0.2390  0.3804
10380W        W27228   9.281   7.751   3.816 -0.0924  0.3608  0.2102
10381W        W27229  13.473  12.650   0.086 -0.0380  0.1700  0.0554
10382W        W27230  12.839   7.853   5.550  0.0444  0.1014 -0.0695
10383W        W27231  14.634   8.208  14.404 -0.1509  0.1253 -0.0010
10384W        W27232  16.467   1.589   2.228  0.4365  0.1689  0.0430
10385W        W27233   0.109  11.693  12.755 -0.0121 -0.0956  0.1378
10386W        W27234  10.754   2.302  13.694  0.2898  0.2449 -0.0579
10387W        W27235  17.845  14.866  15.043  0.0826  0.2258 -0.2326
10388W        W27236   6.415   5.946  12.962 -0.0361  0.0385 -0.1642
10389W        W27237  10.379   3.344   4.626  0.0244  0.1526 -0.2200
10390W        W27238   0.103   4.617   0.457  0.1231  0.2470  0.2687
10391W        W27239  14.856  10.437  12.857 -0.1247 -0.2771  0.1448
10392W        W27240  10.583  16.958   1.291  0.2010  0.1313 -0.0499
10393W        W27241   5.082   8.395  13.346 -0.1481 -0.1428 -0.2042
10394W        W27242   0.662  11.066  13.647  0.3249 -0.2148  0.0906
10395W        W27243   4.349   3.757  15.529 -0.1258  0.0307 -0.2603
10396W        W27244   7.754   3.112  11.343 -0.0282 -0.2780  0.2295
10397W        W27245   4.933   2.316  14.192 -0.0917 -0.1411  0.1026
10398W        W27246   4.453  16.465  14.826  0.1089 -0.1316 -0.2831
10399W        W27247  11.763   5.013  12.142  0.1474 -0.0708  0.0231
10400W        W27248  11.895  10.722   5.635  0.3220  0.0692 -0.1670
10401W        W27249  11.000  14.583   1.708 -0.0214 -0.1818  0.0724
10402W        W27250  17.240  15.311  16.071 -0.0730  0.0409 -0.2998
10403W        W27251   1.606   2.156   0.378 -0.0194 -0.0227  0.1817
10404W        W27252  17.393  17.578  12.250 -0.1505  0.0536  0.1975
10405W        W27253   7.299   5.458  13.869  0.2690  0.1863 -0.1995
10406W        W27254   2.960  13.454  11.581  0.0268 -0.1698  0.0124
10407W        W27255   8.216   1.991   0.084  0.0431  0.1477 -0.1126
10408W        W27256   4.991   4.490   3.055  0.2180 -0.1137 -0.3520
10409W        W27257   2.193  12.892   3.121  0.3571  0.0117 -0.0554
10410W        W27258  17.161   1.015  16.116 -0.2793 -0.0819 -0.0980
10411W        W27259   8.276  15.576   0.397  0.0608  0.1872  0.0283
10412W        W27260   2.375   2.484  16.452  0.0898  0.1519 -0.0669
10413W        W27261  12.755   7.612  14.567  0.2071  0.1258 -0.0390
10414W        W27262   7.019   9.048   0.826  0.0700  0.1695  0.0337
10415W        W27263   6.053   3.419  15.516  0.2466  0.0164 -0.3476
10416W        W27264   2.216  12.925  11.442  0.1946  0.2246 -0.2144
10417W        W27265   7.376   6.279  13.114  0.0357  0.1813  0.0823
10418W        W27266  17.592  17.357   3.391 -0.1401 -0.4703 -0.0366
10419W        W27267  14.306  15.479   0.469  0.2355 -0.1477  0.2694
10420W        W27268   5.420   0.029   1.670  0.2174 -0.2463 -0.0949
10421W        W27269  10.257   0.376  14.625  0.1310 -0.1084  0.1778
10422W        W27270   5.880   3.038   3.630 -0.1546  0.2849  0.2376
10423W        W27271  15.319  10.719   4.287 -0.2008  0.1846  0.0428
10424W        W27272  15.354  10.611   5.482 -0.0091  0.1537 -0.2512
10425W        W27273   0.150  11.271  12.164  0.1725  0.1323  0.0112
10426W        W27274  17.812   6.314  14.810 -0.0127  0.0829  0.2356
10427W        W27275   7.889  15.997   3.373 -0.4723  0.0115  0.1417
10428W        W27276   5.737  10.873  13.247  0.0458  0.0085 -0.1667
10429W        W27277   1.271  16.003  14.576 -0.1382  0.0116 -0.0164
10430W        W27278   2.931   0.197  15.046  0.2524  0.1597  0.3715
10431W        W27279   2.782   6.132   2.437 -0.0474  0.3935 -0.1437
10432W        W27280  12.569  15.765  13.684 -0.0825  0.2223 -0.0680
10433W        W27281  16.430   6.669   5.469 -0.1520 -0.1434  0.0044
10434W        W27282  15.047  12.930   4.069 -0.0085  0.3201  0.0455
10435W        W27283   8.175  15.610  14.347 -0.0091  0.0256 -0.3973
10436W        W27284  17.131   5.615   3.718 -0.0028  0.0729  0.1852
10437W        W27285  16.710  11.383  14.689 -0.0793 -0.1379  0.0449
10438W        W27286   2.037   6.644  16.302 -0.1440  0.2220  0.0594
10439W        W27287   5.174   8.363  11.558  0.0996  0.2203 -0.0495
10440W        W27288   8.537   6.380   0.510 -0.0902  0.1016 -0.2431
10441W        W27289  17.371   1.091  13.413  0.3009  0.1073  0.2193
10442W        W27290   4.147  15.975   1.245 -0.1651  0.4018 -0.0202
10443W        W27291   7.919   8.139   4.803 -0.2817  0.1924 -0.1719
10444W        W27292   7.792  13.000  13.227  0.1506  0.0904  0.0037
10445W        W27293  10.543   7.871  14.127 -0.2731  0.0886  0.1223
10446W        W27294   1.379  17.707   0.535  0.0970  0.0050  0.2515
10447W        W27295   6.747   0.027  15.620 -0.3597 -0.2214  0.1248
10448W        W27296   8.293  13.676   2.705 -0.1913  0.1060 -0.2104
10449W        W27297  14.801  12.232  11.103  0.2623  0.0512 -0.0572
10450W        W27298  12.165   8.893   2.913 -0.1887  0.1843 -0.1606
10451W        W27299  14.164   2.332   3.884  0.2364  0.0976 -0.1281
10452W        W27300   0.560  16.941  16.232 -0.1225 -0.0338 -0.1454
10453W        W27301  11.407   6.211  16.195  0.1288  0.3623  0.3889
10454W        W27302   5.230  14.804  14.411  0.0687 -0.3971 -0.0860
10455W        W27303   5.936   3.829   0.057  0.4947 -0.0090  0.2302
10456W        W27304   2.999  12.583   1.074  0.1067 -0.3830 -0.0859
10457W        W27305   8.244   4.128  13.428  0.2070  0.0883 -0.0007
10458W        W27306   4.046  12.392   2.326 -0.4442 -0.1822  0.0994
10459W        W27307  14.566  11.839  11.210  0.3323  0.2407  0.0941
10460W        W27308   9.438  14.089  15.896  0.1120  0.1195  0.1328
10461W        W27309   4.176   3.267   2.982  0.1015  0.2327 -0.3433
10462W        W27310   9.446  12.484  12.201 -0.0381  0.0852  0.1499
10463W        W27311  17.720   7.692   1.176 -0.0516  0.3943  0.0250
10464W        W27312   9.985   5.937   4.590  0.2004 -0.2808  0.2231
10465W        W27313   8.934  12.816   2.821  0.0131 -0.0051 -0.0428
10466W        W27314  15.728   8.598  13.466 -0.2632 -0.1736  0.0694
10467W        W27315  13.888   2.480  12.458 -0.1231  0.1256 -0.1578
10468W        W27316   2.249  16.412   2.324 -0.0633 -0.3282 -0.1669
10469W        W27317   3.538   7.555   1.825  0.1280 -0.0397 -0.0303
10470W        W27318  16.141   1.147   5.077 -0.0577  0.3013  0.4183
10471W        W27319   3.391   1.473  13.341 -0.0580 -0.0447 -0.0283
10472W        W27320   0.114   2.596  13.251  0.1030  0.1147 -0.2505
10473W        W27321  10.317   0.385  13.628  0.1162 -0.3396 -0.1083
10474W        W27322   5.127   3.217   0.820  0.1921  0.2388  0.1473
10475W        W27323   0.380   7.578  13.157  0.0948  0.0767 -0.2512
10476W        W27324   6.818   8.808  12.940 -0.0932 -0.3426  0.2369
10477W        W27325  10.394   4.798   5.785  0.1254 -0.1480  0.0874
10478W        W27326  11.881   0.275  12.281 -0.0327  0.2928 -0.1785
10479W        W27327  16.887  15.048   1.424  0.0262 -0.1078  0.0379
10480W        W27328  17.624   1.578   2.397  0.0895 -0.1137  0.1060
10481W        W27329  17.785   7.579  14.379  0.0190  0.3593 -0.2657
10482W        W27330   9.202  11.080  13.997  0.2226  0.1054  0.0132
10483W        W27331   8.783  14.615  10.693  0.1497  0.1802  0.0498
10484W        W27332   7.536   4.538   5.078 -0.0535 -0.1245  0.2672
10485W        W27333   8.442   7.497  14.848  0.0826 -0.2279 -0.0324
10486W        W27334   3.293  13.694  13.047  0.0962  0.3206 -0.0519
10487W        W27335   9.352   9.639  16.251  0.1997 -0.4657  0.0778
10488W        W27336  12.296   6.275   0.573  0.0846 -0.0232 -0.1862
10489W        W27337   9.797  13.774  15.800 -0.1574 -0.2112 -0.1159
10490W        W27338  16.053  11.811   3.846  0.0427  0.0200  0.0826
10491W        W27339  13.789   9.847   3.577  0.2345  0.0149  0.1368
10492W        W27340   9.470  12.396  15.907 -0.0968  0.0679  0.0389
10493W        W27341   5.010  15.132   4.685  0.0726  0.2766  0.1770
10494W        W27342   5.017  11.741  12.199  0.2066 -0.0233 -0.0756
10495W        W27343   6.221   7.852  16.083  0.2184 -0.0969  0.1947
10496W        W27344  13.129   9.992   1.299  0.0069 -0.0794 -0.2003
10497W        W27345   7.612   9.036  11.806  0.1783 -0.0477 -0.1254
10498W        W27346  11.924  15.543   0.345 -0.0297 -0.0421  0.1066
10499W        W27347   2.466  10.064   2.300 -0.0013 -0.1009 -0.0504
10500W        W27348  13.856  16.052  13.309  0.1098 -0.2280  0.1159
10501W        W27349   8.400   5.408   1.470 -0.4061 -0.1963  0.2425
10502W        W27350   8.967  12.982  15.093 -0.0550  0.0454  0.1987
10503W        W27351  15.610   9.666   2.810 -0.0350  0.0514  0.0460
10504W        W27352   6.546   0.678  11.392 -0.3227  0.2681 -0.0961
10505W        W27353   7.298   4.169  13.455 -0.1432 -0.0340 -0.1389
10506W        W27354  13.797  11.679   4.439 -0.0363  0.0987  0.1495
10507W        W27355   0.195   2.513  16.327  0.0633 -0.0334 -0.4731
10508W        W27356   2.920  16.807   1.891  0.1307  0.3909 -0.2584
10509W        W27357   9.182   4.021  12.456  0.1579  0.1198 -0.0769
10510W        W27358  17.320   2.105  11.742 -0.1178  0.2823 -0.0288
10511W        W27359   3.000  10.671   4.132 -0.3477 -0.1310  0.2275
10512W        W27360   2.083  15.781   3.729  0.2617  0.2915 -0.1590
10513W        W27361  14.252   4.525  15.853  0.0533  0.4896 -0.1138
10514W        W27362  11.006   1.868  16.202 -0.2206  0.3799  0.0920
10515W        W27363   1.887  16.881  12.288 -0.2722  0.5630 -0.1095
10516W        W27364   2.317   9.461  16.412  0.1898 -0.0526 -0.1420
10517W        W27365  11.929   2.901  13.458  0.3082 -0.0629  0.2331
10518W        W27366   9.820   7.705   0.180  0.2655  0.2168 -0.2464
10519W        W27367   4.144   2.586   0.476 -0.1896  0.1984 -0.0759
10520W        W27368  15.673   0.431   2.044  0.3581 -0.0758 -0.2469
10521W        W27369   1.091  15.831  13.580 -0.0597  0.1935 -0.0203
10522W        W27370   7.762  11.393  11.558 -0.1953  0.0342 -0.3502
10523W        W27371  13.266  17.822   3.460  0.1976 -0.2125 -0.2699
10524W        W27372  16.356  15.352   5.451  0.2583 -0.2303 -0.0479
10525W        W27373  13.111   6.494   0.367 -0.0471 -0.1881  0.0178
10526W        W27374  13.468  17.708   4.328  0.1233  0.3934  0.0010
10527W        W27375  13.098   1.790   0.287 -0.1685 -0.0041  0.1477
10528W        W27376  11.206   3.337  11.369  0.3570  0.0084 -0.0445
10529W        W27377   5.841   7.299   0.273 -0.2303  0.0559  0.1603
10530W        W27378   5.919   0.686   1.726 -0.0958  0.2023 -0.0707
10531W        W27379   0.098   0.303  12.294 -0.0051 -0.1528  0.2012
10532W        W27380  10.562   8.332  12.154  0.3145  0.1704  0.1023
10533W        W27381   1.605   0.746   1.234 -0.1245  0.2829  0.0036
10534W        W27382  16.675  16.092   5.678  0.0452 -0.3938 -0.2669
10535W        W27383  12.092  12.857  14.314  0.3001  0.0811  0.3880
10536W        W27384  11.564   6.916   1.962 -0.2576  0.1182  0.0377
10537W        W27385  16.300   9.504  16.375 -0.2277  0.0090 -0.0072
10538W        W27386   9.020   4.630   6.082 -0.1888 -0.2376 -0.1918
10539W        W27387  13.213   9.765  11.828  0.1593  0.0547  0.3263
10540W        W27388  16.041  12.291   3.645  0.1082  0.5495  0.3186
10541W        W27389  13.933   4.281  11.653  0.2098 -0.1095 -0.0559
10542W        W27390   7.800   5.559   3.353 -0.0105  0.0321 -0.2944
10543W        W27391   3.756   1.710   1.613 -0.0385 -0.0131 -0.0624
10544W        W27392  16.921  13.088  11.927 -0.1834  0.1444 -0.0516
10545W        W27393  17.269   7.965   3.576  0.1045  0.0487  0.0155
10546W        W27394  12.034   9.648  14.227  0.0678  0.1974  0.1285
10547W        W27395   3.113  17.788   1.896  0.2416  0.0781 -0.3037
10548W        W27396   5.814   7.056  16.258  0.2990  0.1004  0.0503
10549W        W27397   0.302   3.677  11.457  0.0854 -0.1192  0.2044
10550W        W27398  10.337   1.065   1.465 -0.1108  0.1561 -0.2436
10551W        W27399  16.747   6.765   1.408 -0.0084 -0.1968  0.2196
10552W        W27400   1.936  17.015   3.373 -0.0315 -0.0495 -0.1241
10553W        W27401   7.751   0.147  11.656 -0.0835  0.1412  0.0222
10554W        W27402   3.043   8.578   4.790 -0.2303  0.2109 -0.3858
10555W        W27403   6.529  11.448   3.113 -0.0026  0.1320 -0.0175
10556W        W27404   3.088  16.636  14.769 -0.1697  0.0162  0.1798
10557W        W27405   0.114  11.625  15.836  0.0593 -0.0338  0.1338
10558W        W27406  15.291  12.525   3.448  0.1238  0.1802 -0.0036
10559W        W27407  12.251  17.882  11.247  0.2643 -0.0245  0.5410
10560W        W27408   2.305   0.096   6.410  0.0945 -0.1979 -0.1846
10561W        W27409   8.348   9.081   6.459 -0.0047 -0.0946  0.0410
10562W        W27410   4.806   0.978   4.877  0.0163  0.2462 -0.3207
10563W        W27411  14.495  11.509  11.661 -0.0392 -0.0703 -0.1257
10564W        W27412  16.548   7.036   3.914 -0.0573  0.2630 -0.0935
10565W        W27413   4.984   9.120  16.390  0.0942 -0.1791 -0.0208
10566W        W27414  10.129   0.891  15.533 -0.0057 -0.1155  0.0051
10567W        W27415   6.446  13.687   0.394  0.1504  0.1487 -0.0956
10568W        W27416  15.413   8.477   3.564 -0.1349  0.1423 -0.2386
10569W        W27417   4.661  14.948  16.052  0.0436  0.0729  0.1520
10570W        W27418  12.769  10.175  15.780 -0.0709 -0.2258  0.3162
10571W        W27419  11.015  15.033   3.365 -0.2584 -0.2209  0.0726
10572W        W27420  14.254  10.388   2.578 -0.0569  0.1460  0.0816
10573W        W27421   8.884   9.798  16.041  0.3960  0.0301  0.0465
10574W        W27422   9.701  17.828  16.310 -0.2673 -0.3495  0.2403
10575W        W27423   7.998  10.408   2.083  0.1451 -0.2112 -0.0297
10576W        W27424   1.123   3.667   0.249 -0.1612  0.0931  0.2721
10577W        W27425  11.963   0.303   5.693  0.1115 -0.1948 -0.1202
10578W        W27426  11.050  14.322  12.700  0.1087  0.0047  0.1842
10579W        W27427   0.884   0.090  15.415  0.1523  0.2305  0.1873
10580W        W27428   6.271   5.439  16.227  0.2554  0.2574 -0.1882
10581W        W27429   3.366   8.067   4.054  0.1177  0.1788  0.0425
10582W        W27430   3.913  13.940   2.408 -0.2711 -0.1086  0.0333
10583W        W27431  15.468   1.508   5.072  0.0804 -0.0135  0.1587
10584W        W27432   8.140   0.495   4.907  0.1950 -0.2403  0.0030
10585W        W27433   4.549   3.749   4.847 -0.1899 -0.0469  0.1313
10586W        W27434   6.285  16.564  11.278  0.2733 -0.1044 -0.0123
10587W        W27435  15.628   7.111   2.875  0.0824 -0.0643  0.2001
10588W        W27436  14.410   1.278   3.911  0.1697  0.0673 -0.1914
10589W        W27437  16.271   9.013  10.443  0.1278 -0.0349  0.3672
10590W        W27438   6.891  12.031   2.539 -0.0350 -0.1260 -0.1203
10591W        W27439   4.988   7.023   2.627 -0.0171 -0.1020  0.2682
10592W        W27440   5.565  14.548  12.411  0.0276  0.0619 -0.1965
10593W        W27441  11.332   6.458   1.992 -0.1907 -0.2513 -0.2320
10594W        W27442  13.339   0.822  11.839 -0.3148 -0.1028 -0.2901
10595W        W27443   7.490   3.060   4.537  0.1847 -0.0813  0.1236
10596W        W27444   8.748  17.308   2.588  0.1156 -0.1007  0.0476
10597W        W27445   8.718   5.646   2.214 -0.0692  0.0154  0.2845
10598W        W27446  11.936   0.468  13.199  0.0817  0.0135  0.1757
10599W        W27447  14.107   0.671  12.737 -0.3143  0.0935  0.1537
10600W        W27448  10.463   6.934  12.565  0.1550 -0.0202  0.1052
10601W        W27449   7.703   9.499   1.774  0.1044 -0.0773  0.0853
10602W        W27450  14.842   8.250  15.718  0.0520 -0.0402 -0.0748
10603W        W27451  12.404  14.023  12.094  0.0290  0.0906  0.0957
10604W        W27452  13.880   6.114   0.938 -0.4758 -0.1578 -0.3132
10605W        W27453  10.382   9.660   0.255  0.1187 -0.2938 -0.3921
10606W        W27454   1.095   7.263  12.922 -0.0968  0.0284  0.3460
10607W        W27455  11.385  11.777   0.791  0.3992  0.1184  0.2583
10608W        W27456  16.975  16.827  15.061  0.0566  0.2047 -0.2017
10609W        W27457   1.046  11.698   3.161 -0.0602  0.2496  0.1928
10610W        W27458   5.452  16.731   4.541 -0.3497  0.3244  0.2094
10611W        W27459   6.833   1.755  16.081  0.2900  0.2575 -0.0325
10612W        W27460  13.125   3.658   1.780  0.0430 -0.0642 -0.0030
10613W        W27461  10.397   7.493  13.701  0.0209 -0.3559 -0.0922
10614W        W27462   1.223   7.832   5.088  0.7122  0.3603  0.1066
10615W        W27463  11.009  17.595   3.507  0.0915  0.1845  0.4617
10616W        W27464  13.751   9.420   6.120 -0.1549 -0.0063  0.1050
10617W        W27465   6.635  11.341   5.289  0.2790 -0.0106  0.0172
10618W        W27466   5.419  15.319   3.185 -0.0606 -0.1489 -0.0395
10619W        W27467  14.421   4.524  11.358 -0.1149  0.0892 -0.0056
10620W        W27468   4.920  15.872   3.729 -0.1705 -0.0509 -0.1569
10621W        W27469   2.145   3.670  15.106  0.1498  0.1835 -0.2319
10622W        W27470   3.078   6.043   0.410 -0.0018 -0.0449  0.0307
10623W        W27471  15.497   9.483   2.363  0.0584  0.2333 -0.0909
10624W        W27472   3.070  16.456   1.417  0.0398 -0.2304  0.0215
10625W        W27473   8.801   9.458  12.710 -0.2056  0.1026  0.0202
10626W        W27474  10.418   8.284  16.297 -0.1934 -0.1156  0.0910
10627W        W27475   9.678   1.672  15.682  0.0695 -0.1514  0.1981
10628W        W27476   0.917  11.901  12.749 -0.2306  0.0930 -0.3208
10629W        W27477  15.814   4.219  11.665  0.2779  0.1296  0.1681
10630W        W27478  15.851  11.595  11.853  0.2813  0.3277  0.1592
10631W        W27479  15.351   5.184   5.998  0.1235  0.0281 -0.2112
10632W        W27480   8.869   0.911  12.417 -0.0134 -0.4363 -0.0317
10633W        W27481   7.374   4.304   1.011  0.3623 -0.1857  0.0902
10634W        W27482   9.545   4.831   3.901  0.2529  0.1289  0.3513
10635W        W27483  10.891  11.644   0.660 -0.0643 -0.1649  0.1658
10636W        W27484  10.076  10.125   1.715  0.0044 -0.2031  0.0452
10637W        W27485   5.202  10.320   2.121  0.4174  0.2563 -0.2633
10638W        W27486  11.837   2.947   3.811  0.4332  0.0909 -0.2238
10639W        W27487   2.154   4.017   1.750 -0.0165 -0.2942 -0.2623
10640W        W27488  13.231  15.078  12.697 -0.1648  0.0555  0.0601
10641W        W27489  17.716  16.523  11.585 -0.2004  0.0445 -0.2247
10642W        W27490   1.570  17.589  14.339 -0.0071 -0.0261  0.0383
10643W        W27491  13.870  13.451  15.006 -0.1580  0.0755  0.0125
10644W        W27492  17.439   8.329   3.237  0.0469 -0.1032 -0.0958
10645W        W27493  12.365  10.082  11.616  0.2193  0.0815  0.4445
10646W        W27494   4.214   9.964   2.128 -0.1467 -0.0511 -0.2095
10647W        W27495   7.604  16.999  11.285  0.1113  0.0955 -0.0530
10648W        W27496   8.968   0.364  15.184  0.2124 -0.0686  0.1825
10649W        W27497   4.627  15.295  15.432  0.2681 -0.0888  0.0711
10650W        W27498   4.304  16.167   2.942  0.2783 -0.0580  0.0058
10651W        W27499   6.326  15.560  15.240  0.0865  0.0607 -0.1934
10652W        W27500  15.499   2.373   1.263  0.0897 -0.2900  0.2969
10653W        W27501   9.582   7.589   5.150 -0.2534  0.1243  0.0053
10654W        W27502   2.188  15.351  11.762 -0.0472 -0.0379  0.0186
10655W        W27503   1.662  14.434   3.402 -0.0359  0.5364  0.1133
10656W        W27504   7.889  12.287   0.349 -0.2967  0.2676  0.0373
10657W        W27505   5.754   1.272  13.489 -0.1418 -0.0050 -0.0555
10658W        W27506   3.138  10.648   5.896  0.1811 -0.2491  0.0902
10659W        W27507  12.590   5.470   0.434  0.1020 -0.2781 -0.1125
10660W        W27508   9.667   5.933  11.428 -0.2004 -0.2848  0.2302
10661W        W27509   6.200   7.519   4.043  0.1188  0.3104 -0.1846
10662W        W27510  15.886   3.399  16.063 -0.2844 -0.0529  0.2130
10663W        W27511   3.422  16.912   4.798 -0.0487 -0.1570  0.1744
10664W        W27512  11.870  14.971  12.089 -0.0575 -0.1524  0.2485
10665W        W27513  16.315  12.497   1.336 -0.3766 -0.2101  0.3538
10666W        W27514   3.298   3.934   1.149 -0.0480  0.2262 -0.1075
10667W        W27515   1.254   5.796   2.808  0.0655 -0.1135 -0.0397
10668W        W27516  11.135   4.469   2.764 -0.0491 -0.2163  0.0107
10669W        W27517   2.530   9.091   2.871 -0.1317  0.0928 -0.0471
10670W        W27518   4.272  15.034  11.273 -0.1505 -0.0229 -0.0108
10671W        W27519   1.283   5.002   2.611  0.0253  0.0212  0.1758
10672W        W27520  10.255   7.421  14.219 -0.1152  0.3565  0.0082
10673W        W27521  11.786   5.975  12.566 -0.1011  0.3274  0.1459
10674W        W27522   8.315   4.134  12.047 -0.0233  0.0229  0.0871
10675W        W27523  11.513  16.496  16.213  0.1983 -0.1745 -0.2893
10676W        W27524   3.338   0.865  12.569  0.0046  0.1234  0.0092
10677W        W27525  16.559  10.582   1.215 -0.4243  0.2482 -0.3089
10678W        W27526   1.804   7.258   3.137 -0.1292  0.1522  0.0418
10679W        W27527   0.957   9.227  12.834  0.1062  0.0294 -0.4228
10680W        W27528  12.691  13.876   4.579 -0.1157 -0.1858 -0.3318
10681W        W27529   0.537  15.146  13.140  0.1604 -0.0631  0.0001
10682W        W27530  17.501   1.611   0.644  0.1583 -0.2364  0.0084
10683W        W27531   1.335   7.644  14.819 -0.1459  0.1082  0.0163
10684W        W27532   5.645  15.037  12.453 -0.1252 -0.1735  0.1794
10685W        W27533  17.397  10.130   2.235  0.1369  0.2654  0.1137
10686W        W27534   7.147  14.740   1.684 -0.0085  0.0469 -0.0050
10687W        W27535   0.896  12.507  16.280  0.0072 -0.1953 -0.1716
10688W        W27536  15.722  14.932  15.201  0.2981  0.2517  0.0800
10689W        W27537   5.355   8.252   3.056 -0.2592 -0.0661  0.2580
10690W        W27538  16.751  15.402  16.155 -0.0282  0.3622  0.1964
10691W        W27539   1.770   1.781   1.391  0.0052  0.0354 -0.2686
10692W        W27540   6.680   2.994   2.863  0.2474  0.2695  0.0884
10693W        W27541  15.391  14.064  12.011 -0.0442  0.3339 -0.1165
10694W        W27542   3.252   8.479   1.116 -0.0759  0.0595 -0.0514
10695W        W27543   2.633   2.987  12.236 -0.0154  0.0090 -0.1412
10696W        W27544   9.434  12.944   3.920  0.2451 -0.0157 -0.0526
10697W        W27545   0.540  12.372   3.911  0.0711  0.0859 -0.1119
10698W        W27546   5.318  11.648  13.147 -0.0211  0.0142 -0.0536
10699W        W27547   4.950   8.427  16.093  0.4057  0.0836 -0.2675
10700W        W27548  13.881  10.139   3.010 -0.1677 -0.0333  0.1333
10701W        W27549  10.711  10.616  14.271  0.1779 -0.1606 -0.3045
10702W        W27550   5.087   1.823  12.700  0.2457 -0.0685  0.2186
10703W        W27551  14.903   7.387  12.707  0.2102  0.2501  0.1462
10704W        W27552   4.084   0.992   1.527  0.3165  0.1114  0.0591
10705W        W27553   1.697  17.367  13.128  0.1398 -0.0164  0.2298
10706W        W27554   7.685  10.359   2.975 -0.0785 -0.0793 -0.0105
10707W        W27555   4.870  12.175   0.777 -0.0423 -0.0904  0.0265
10708W        W27556   2.756   9.310  14.315  0.0829  0.0876 -0.0477
10709W        W27557   9.810   9.981  13.495  0.4131  0.2043 -0.1239
10710W        W27558   9.769  11.924   1.317  0.0504  0.0790 -0.3667
10711W        W27559  12.799  11.873   3.474  0.0833  0.1549  0.2159
10712W        W27560   3.765   2.093   0.333  0.0903  0.1102  0.1022
10713W        W27561   8.349  16.894   2.982 -0.1400  0.3117  0.1492
10714W        W27562  14.080   6.305  13.987 -0.2449  0.2419  0.3329
10715W        W27563  13.992  16.511  14.972 -0.0948 -0.1353 -0.1632
10716W        W27564  16.174  14.131   3.285 -0.1510 -0.3226  0.0491
10717W        W27565   5.203  10.204   5.278 -0.1818  0.0747 -0.0172
10718W        W27566   2.110   6.830  15.856  0.2260  0.1024 -0.1380
10719W        W27567   7.825   5.434   2.297 -0.0548 -0.0612 -0.0614
10720W        W27568  13.966   0.255  11.218  0.0141  0.2422  0.0829
10721W        W27569   2.435   1.117   6.281  0.0092  0.1482  0.2920
10722W        W27570  12.114   1.384  11.606 -0.3933  0.1149 -0.0300
10723W        W27571   9.866  13.017   5.818 -0.1229 -0.1364  0.0275
10724W        W27572  12.951  10.008  12.276 -0.2093  0.0569 -0.0642
10725W        W27573   1.853   7.254  11.371 -0.4288  0.1282  0.1330
10726W        W27574  13.134   4.317   0.244 -0.0596  0.1198  0.3422
10727W        W27575  13.533   3.438  16.119 -0.4144  0.0283  0.0431
10728W        W27576  15.362   7.228  13.328  0.0443  0.0342 -0.1010
10729W        W27577   8.691  10.923  12.966  0.2569 -0.0284  0.4889
10730W        W27578  16.146  15.348  13.397  0.0487  0.1877  0.1588
10731W        W27579  14.328   1.749   1.558 -0.0536 -0.2303  0.2168
10732W        W27580   8.351  14.339  11.690 -0.0596 -0.0068  0.1279
10733W        W27581   0.028   7.157  12.011 -0.0750  0.1412 -0.1577
10734W        W27582  17.478   2.642   4.061  0.2356  0.0154 -0.1573
10735W        W27583   9.117   9.617   2.906  0.1159 -0.0875  0.3851
10736W        W27584   1.886  12.594   4.448 -0.1333 -0.1080 -0.0669
10737W        W27585  11.862  13.146  13.145 -0.0698  0.1153 -0.1563
10738W        W27586   4.201   0.159   4.930  0.0685  0.1629 -0.0433
10739W        W27587   2.187   4.793  15.028 -0.1650  0.1814 -0.2427
10740W        W27588   5.562   0.751   0.059  0.1526  0.2248  0.0231
10741W        W27589   7.989   3.361  10.988  0.2925 -0.0306  0.5451
10742W        W27590  16.016  11.318   3.703 -0.0234  0.0863 -0.1067
10743W        W27591   5.781  15.037  11.077  0.0789  0.1145  0.0271
10744W        W27592   8.365  14.510   4.714  0.0932  0.0051  0.2311
10745W        W27593   5.725   7.679  15.084  0.1514 -0.1736  0.1497
10746W        W27594  10.475  12.997  15.242  0.0407 -0.1982 -0.3771
10747W        W27595   4.501   6.012   4.369  0.1502 -0.3242 -0.0544
10748W        W27596  11.850   3.560   2.995 -0.3704 -0.0352  0.1965
10749W        W27597  13.300  13.503  14.279 -0.1601  0.0966 -0.1707
10750W        W27598   0.208   8.490   1.228  0.0879 -0.0733 -0.1452
10751W        W27599   7.317  16.597   0.713 -0.0333  0.2988  0.0753
10752W        W27600  12.306   0.489   0.107 -0.2283 -0.1888 -0.3873
10753W        W27601  12.614  11.186   0.638  0.2008  0.0835 -0.0055
10754W        W27602   7.909   5.352  11.832  0.2337  0.1168 -0.1320
10755W        W27603  10.115   9.612  12.789 -0.0225 -0.0631 -0.0927
10756W        W27604  12.324   4.670  14.033  0.0919  0.2612 -0.0494
10757W        W27605   6.682  16.802   3.075 -0.0664  0.3142  0.3525
10758W        W27606  16.835   8.858   2.514  0.1168  0.1974 -0.1024
10759W        W27607   3.707   2.654   4.387  0.1409 -0.0306  0.3286
10760W        W27608   9.682   2.964  11.385  0.0693  0.2481 -0.2313
10761W        W27609  14.503  12.749   4.008  0.0637 -0.2605 -0.2007
10762W        W27610  13.225   0.506  12.255  0.2582  0.1793  0.1835
10763W        W27611   5.109  14.701   2.296  0.1113  0.0303 -0.2474
10764W        W27612  17.091   2.945   1.462 -0.0424 -0.1825 -0.1510
10765W        W27613  12.181   3.442  13.991 -0.2298 -0.0334  0.1370
10766W        W27614  12.850   4.249   2.998  0.3105 -0.0842  0.0695
10767W        W27615  12.665  10.085  12.975  0.2597 -0.1793  0.0081
10768W        W27616   9.651   4.002  15.687 -0.1181  0.1793  0.0547
10769W        W27617   2.605   9.778   0.494  0.1449 -0.2115  0.0749
10770W        W27618   7.203   1.982  14.035 -0.1645  0.1094  0.0298
10771W        W27619  16.796   2.893   3.679  0.1158  0.0239  0.1577
10772W        W27620  14.983  10.351   1.061  0.1718 -0.2318 -0.1131
10773W        W27621   2.014   9.706  11.591  0.1167  0.0224  0.0426
10774W        W27622  15.157   7.048   3.615 -0.0417 -0.0936 -0.1809
10775W        W27623   5.486   5.402  15.594  0.1414 -0.3414 -0.2293
10776W        W27624   9.364   9.116  16.180 -0.3215 -0.0412  0.0969
10777W        W27625  16.919   8.214   3.257  0.2289 -0.1314  0.0757
10778W        W27626   5.597   9.535  11.959  0.0511 -0.1108  0.1379
10779W        W27627   3.396  14.189  13.155  0.1142  0.1188 -0.2387
10780W        W27628  14.874   6.630  12.508  0.4151  0.0502 -0.1049
10781W        W27629   7.162   4.765  15.583 -0.0249  0.0647 -0.0686
10782W        W27630   4.519   8.939  11.434 -0.2940 -0.5073 -0.1704
10783W        W27631  11.988  12.927  16.032 -0.2191 -0.1305  0.1822
10784W        W27632   0.565  12.996  12.963  0.1572 -0.0204  0.1952
10785W        W27633   7.393   1.818   2.596 -0.0373  0.2476 -0.0333
10786W        W27634  10.698  16.185   5.700  0.0387  0.0422 -0.0163
10787W        W27635  11.250   4.000  13.503  0.1179  0.1453 -0.1361
10788W        W27636   4.336   5.769  11.659  0.1359 -0.1815  0.1654
10789W        W27637  12.316   2.113   0.799 -0.2215  0.3472  0.1060
10790W        W27638  11.347   6.963  13.828 -0.2607  0.1034  0.4837
10791W        W27639   3.624  10.512  12.661  0.1556 -0.0224  0.2336
10792W        W27640   2.450   2.532   2.336 -0.0903 -0.1213 -0.0907
10793W        W27641   1.277   4.917  12.383  0.2965  0.1388  0.5014
10794W        W27642   2.030   6.414  13.121  0.1461 -0.0116 -0.2763
10795W        W27643  11.909  14.704   0.151 -0.0657  0.0856  0.1679
10796W        W27644  10.500  14.690   4.539 -0.1742 -0.0728  0.1995
10797W        W27645   9.582   0.001  13.138 -0.0710 -0.0799 -0.1735
10798W        W27646   8.513   3.900   6.248 -0.3154 -0.0660 -0.0474
10799W        W27647  17.279  13.740  16.102  0.0851 -0.0667  0.2112
10800W        W27648  11.171   4.058  14.041 -0.0105 -0.1541 -0.1330
10801W        W27649  16.930   1.333  10.958  0.0725 -0.1181 -0.4208
10802W        W27650   9.953  16.897  15.159 -0.0023  0.4307  0.1277
10803W        W27651   5.271  11.310  14.639  0.1381 -0.0602  0.1249
10804W        W27652  16.711   6.062   3.134 -0.0581  0.0852 -0.3197
10805W        W27653   8.715   0.436  13.956  0.1068  0.1396  0.0130
10806W        W27654   4.794   5.539   0.665 -0.1444 -0.0555 -0.0820
10807W        W27655  16.534   4.462  13.330 -0.2720 -0.0099 -0.0243
10808W        W27656   8.322   6.793  13.189 -0.1627 -0.1579  0.1639
10809W        W27657   5.717   3.205   2.106  0.1735  0.2714  0.0969
10810W        W27658   4.352   3.093  12.108  0.2020 -0.2985  0.1997
10811W        W27659   4.025   8.673  16.458 -0.2808  0.3142  0.2940
10812W        W27660  12.529   1.597   3.089 -0.2955 -0.1620 -0.0511
10813W        W27661  10.682  10.024  11.660  0.0282  0.0147 -0.0302
10814W        W27662   4.460  16.329  15.365 -0.1230  0.1402 -0.3180
10815W        W27663  12.917  11.531  15.788  0.2991 -0.0440  0.4226
10816W        W27664   6.506   1.995  12.230  0.1324  0.0615  0.1371
10817W        W27665  13.724   3.041  16.421 -0.2540  0.2561 -0.0451
10818W        W27666  16.471   0.406   1.456 -0.1118 -0.0400 -0.1425
10819W        W27667  14.113   0.882   2.554  0.3307  0.0742 -0.0921
10820W        W27668  15.398   7.892   5.072  0.0885  0.2867  0.3514
10821W        W27669  12.694   6.569   0.651 -0.2439  0.1570 -0.0584
10822W        W27670  12.244   2.959  11.312 -0.0672 -0.1426  0.1449
10823W        W27671   1.197   5.719  14.803  0.1095 -0.1778 -0.3416
10824W        W27672   6.015   9.452  12.267  0.2383  0.1102 -0.2172
10825W        W27673   5.302  16.354  11.409  0.0544 -0.1976 -0.0647
10826W        W27674  16.422   9.729  14.754  0.0160 -0.3369 -0.2237
10827W        W27675   1.951  14.630  15.563  0.0433 -0.0157  0.0903
10828W        W27676  10.745   1.243  14.621 -0.0802  0.1347 -0.0779
10829W        W27677   0.247   5.123   0.964  0.0249 -0.5380 -0.1101
10830W        W27678  16.463  15.220   2.082  0.0086 -0.0070 -0.3061
10831W        W27679   6.473   8.721  15.309 -0.0423 -0.0264  0.2954
10832W        W27680  11.272  14.373  13.716 -0.1650  0.2236 -0.2960
10833W        W27681   6.704  12.845   0.052 -0.0110 -0.1497 -0.0008
10834W        W27682   3.311  17.634  13.269  0.2810 -0.0265 -0.2359
10835W        W27683   3.719   5.405  11.053 -0.0371 -0.0193 -0.0870
10836W        W27684  10.878   2.647   5.166  0.0576  0.1253 -0.2151
10837W        W27685   6.778   6.870   1.980  0.3395 -0.2185 -0.0359
10838W        W27686   9.947  15.983  11.934 -0.3351 -0.2106  0.2480
10839W        W27687  16.479   6.887  12.592 -0.2472 -0.1369  0.0164
10840W        W27688  10.305   9.008  15.492  0.1512 -0.0037 -0.2325
10841W        W27689   1.741  14.299   0.945  0.0544  0.1599 -0.2327
10842W        W27690   4.733   1.601   1.020 -0.1229  0.3186  0.2471
10843W        W27691  17.059   0.652  13.628  0.1014 -0.3194  0.1545
10844W        W27692   9.629  14.582   0.537 -0.2744 -0.0395  0.0731
10845W        W27693  14.153   4.317  14.207 -0.2022  0.1356  0.0279
10846W        W27694  11.919   6.133  14.913  0.1270 -0.1735 -0.3358
10847W        W27695   7.389   8.729  16.259  0.0383 -0.0559 -0.2452
10848W        W27696  10.348   0.058   3.941 -0.2871  0.2080 -0.0895
10849W        W27697   3.499  10.199   1.396 -0.0900  0.2409  0.1475
10850W        W27698  16.274  17.213  10.596  0.0240 -0.1923  0.1619
10851W        W27699   8.466   4.302   6.000  0.0473  0.0077  0.1718
10852W        W27700   1.905   2.712   4.343  0.1357 -0.1229 -0.3046
10853W        W27701   2.877  13.207   0.673  0.0440  0.0772  0.1525
10854W        W27702  10.005  16.339   3.119  0.2161  0.2012 -0.1146
10855W        W27703   7.962  14.666  16.398  0.2203  0.1181  0.0114
10856W        W27704   3.976  12.255  15.670 -0.4950  0.0508 -0.0083
10857W        W27705   6.701   0.935  15.481  0.0957  0.0786  0.1011
10858W        W27706   2.505  16.815   2.161 -0.2918 -0.0465  0.0408
10859W        W27707  10.543  10.676  13.702  0.2201  0.2048 -0.1036
10860W        W27708  12.065  14.562  15.763 -0.2816 -0.0394 -0.1608
10861W        W27709   3.620   0.178  15.504 -0.5778 -0.0231  0.3459
10862W        W27710  14.234  15.729  14.458  0.0962 -0.0393 -0.3610
10863W        W27711  12.634  15.158   4.313  0.0710  0.3349 -0.1829
10864W        W27712   2.617   7.648   4.140  0.2078  0.1223  0.1100
10865W        W27713  16.263   6.947  15.574 -0.1778 -0.0191 -0.2462
10866W        W27714  10.756   6.819   5.521  0.2511  0.0535  0.0855
10867W        W27715  16.562   1.260   4.699 -0.1686  0.1839 -0.2718
10868W        W27716   2.353   9.401  12.330  0.0844  0.0489  0.2637
10869W        W27717   8.696  11.838   1.510  0.3228  0.0641 -0.0282
10870W        W27718  14.068   5.264   4.756 -0.0259 -0.2349  0.0249
10871W        W27719   9.398   7.785  10.839  0.0672  0.2198 -0.0080
10872W        W27720   1.244  17.336  14.120  0.0405  0.0274  0.0036
10873W        W27721   1.601  15.377   2.266  0.2005  0.1670 -0.4007
10874W        W27722   0.243   9.278  15.767 -0.0525  0.2322  0.0182
10875W        W27723  13.130   5.344   5.523  0.0935 -0.1046 -0.0570
10876W        W27724   2.811  17.698   4.583 -0.1356  0.1896 -0.2125
10877W        W27725  11.337  14.032   3.016 -0.1146  0.4050 -0.0982
10878W        W27726  13.022   5.781   2.423  0.0414  0.1044 -0.0097
10879W        W27727  12.351   8.031  11.868 -0.1838 -0.1094  0.0691
10880W        W27728  15.200   9.319   4.198 -0.3198  0.0026  0.0246
10881W        W27729  12.797   2.655   1.190 -0.1350 -0.2899  0.0491
10882W        W27730  15.422   2.150   0.762  0.0210 -0.0440  0.2407
10883W        W27731  14.780  13.894   3.134 -0.2304  0.1261  0.1177
10884W        W27732  10.943   1.180  15.177  0.1051  0.0537 -0.1139
10885W        W27733   0.331   1.256   3.670 -0.1507  0.0251  0.0072
10886W        W27734   1.860   8.485  12.062  0.0443 -0.0224  0.0152
10887W        W27735   8.192  11.001  12.919  0.1268 -0.1537  0.3166
10888W        W27736  12.995  12.810   5.122  0.1167  0.2360  0.0002
10889W        W27737  17.451  14.258   0.476  0.0768 -0.1691 -0.0059
10890W        W27738  14.136  10.167   3.982 -0.3051 -0.1449  0.0306
10891W        W27739   4.656   1.581   0.464  0.1196 -0.1516 -0.3894
10892W        W27740   7.282   5.538   3.492 -0.0048 -0.0992  0.3475
10893W        W27741   3.778   2.421   0.753  0.1827  0.0492 -0.1632
10894W        W27742   1.607   3.354   4.764 -0.0883  0.1338 -0.2196
10895W        W27743  13.525   1.496  13.636  0.1725 -0.1852  0.1340
10896W        W27744   7.759  15.244   1.315  0.1504 -0.3877 -0.0548
10897W        W27745  10.487  13.658  14.376 -0.0976  0.0643 -0.0355
10898W        W27746  16.560  13.373  13.636  0.1887  0.0539 -0.2470
10899W        W27747   4.854  13.410   4.255 -0.0467 -0.1207  0.2876
10900W        W27748  15.414   7.998  13.960  0.3852 -0.3184 -0.4281
10901W        W27749   4.986  10.345  13.498  0.1209 -0.0692 -0.2416
10902W        W27750   2.777   3.414   4.946  0.2448  0.1818 -0.2921
10903W        W27751   1.830  10.455  14.047  0.1158 -0.0155 -0.1166
10904W        W27752   4.404   8.125  14.509  0.1668  0.0378 -0.0865
10905W        W27753   9.483  16.661   5.081  0.1717  0.2050  0.0220
10906W        W27754   6.500  12.560  13.099  0.3257  0.0370 -0.0567
10907W        W27755  14.337   9.734  15.618 -0.0300 -0.0012  0.3019
10908W        W27756  12.604   1.183   3.496  0.0289  0.1338 -0.2465
10909W        W27757  15.485   6.248  11.723 -0.0977 -0.0336 -0.1298
10910W        W27758  13.568   6.033   4.172 -0.0179  0.4043 -0.0282
10911W        W27759  17.758   5.167   1.991  0.1067  0.0925 -0.2292
10912W        W27760  15.714   4.665   2.059 -0.1669  0.0776  0.0252
10913W        W27761   7.694  13.249  14.568  0.1598 -0.2373  0.0295
10914W        W27762   2.889  10.304  10.582 -0.0705 -0.2113  0.1782
10915W        W27763   4.967   2.345   1.965 -0.1600  0.0820 -0.1301
10916W        W27764  14.927  12.842  13.392 -0.1133  0.3467  0.0922
10917W        W27765  14.632  12.726   1.527 -0.2672 -0.0467  0.1148
10918W        W27766  14.381   6.601   1.036 -0.3316  0.0528 -0.0747
10919W        W27767  11.406   3.132  12.118 -0.0466  0.0116 -0.2425
10920W        W27768   4.831   7.808   3.148 -0.0289  0.1684  0.0127
10921W        W27769   3.026   7.172  14.008  0.2926 -0.1576 -0.0250
10922W        W27770  17.543   7.814  12.027  0.1353  0.3865  0.2822
10923W        W27771  13.748  15.204  12.622 -0.0308  0.1778 -0.0502
10924W        W27772   3.849   4.202   3.952  0.2791  0.1335  0.2389
10925W        W27773   1.635   2.102  16.286 -0.0389  0.2761  0.0667
10926W        W27774   8.139   8.069   4.117  0.0237  0.0428  0.3033
10927W        W27775  17.680   5.938   4.914 -0.3579 -0.2112  0.0530
10928W        W27776  15.128   7.799  10.750  0.0309 -0.3285 -0.1216
10929W        W27777   3.148   1.755  11.668  0.0025  0.0672  0.1931
10930W        W27778  14.457   6.421  16.111  0.1443 -0.0401  0.0184
10931W        W27779   8.530  11.797  13.143 -0.0838 -0.1161 -0.0430
10932W        W27780  16.371  16.309  13.215 -0.2067  0.0508  0.2464
10933W        W27781  13.315  11.591  10.882 -0.0993 -0.0175  0.1446
10934W        W27782   1.137   7.406   4.339  0.2037  0.0860  0.3395
10935W        W27783   4.709   7.903   5.401  0.1844  0.1230 -0.0171
10936W        W27784   3.689   4.160  11.759  0.2886  0.3878  0.1379
10937W        W27785   1.984   8.500  12.592 -0.0715  0.1083 -0.1176
10938W        W27786   1.541   6.341   4.063 -0.2096  0.0962  0.1035
10939W        W27787   5.111   8.423   2.465 -0.0698 -0.0998  0.2499
10940W        W27788   9.363   1.735   0.387  0.0388 -0.0206 -0.0595
10941W        W27789   9.603   2.889   0.349  0.0334 -0.5241 -0.0001
10942W        W27790   2.874  16.114   0.576  0.0901  0.0623 -0.2159
10943W        W27791  12.439  12.903  15.780 -0.0396 -0.3067 -0.1454
10944W        W27792  10.256  14.784  12.492 -0.0095 -0.0352  0.0360
10945W        W27793   8.541  17.084   2.061  0.1100 -0.0033  0.0405
10946W        W27794  13.587  12.952   4.400 -0.2020  0.1758 -0.1536
10947W        W27795  14.101  12.680  11.001 -0.1847  0.0832 -0.0203
10948W        W27796  12.784  13.706  15.269  0.0462  0.1837  0.0507
10949W        W27797  13.090   5.730  14.536 -0.2590 -0.2287  0.0097
10950W        W27798   5.691  15.025   1.072 -0.2961  0.3988 -0.3422
10951W        W27799   9.736   6.397   3.343  0.0346  0.0198  0.1431
10952W        W27800   9.629   1.281  12.597 -0.0615 -0.5198 -0.0986
10953W        W27801  16.562   4.964  14.607 -0.0925 -0.1576  0.3116
10954W        W27802  14.552   7.285   1.445  0.2591  0.3298 -0.1951
10955W        W27803   0.092  11.102  15.869 -0.1780 -0.0680 -0.1428
10956W        W27804  13.244  12.514  11.155  0.1254 -0.0959 -0.0806
10957W        W27805  15.044   7.087  11.902 -0.0544  0.0854 -0.0713
10958W        W27806   9.699  17.622  14.669  0.6916  0.0375 -0.0352
10959W        W27807  13.551  17.790  12.952 -0.0689 -0.0239  0.4101
10960W        W27808  13.816   5.915  11.382 -0.1254 -0.4420  0.0576
10961W        W27809  14.063  16.638  14.461  0.0783  0.1098 -0.1723
10962W        W27810   6.961   8.028   4.743  0.1579 -0.1899  0.0761
10963W        W27811   6.480  16.013   5.039  0.1504  0.0763 -0.1089
10964W        W27812  13.418  17.516  12.531  0.0692 -0.2285 -0.1385
10965W        W27813   9.807  12.254  13.031 -0.0444 -0.1931 -0.0965
10966W        W27814   2.654  15.148  13.304 -0.1802  0.0824  0.0012
10967W        W27815   4.938   5.181   3.070 -0.2154  0.1415  0.0133
10968W        W27816   9.000  11.631  15.346  0.0576  0.0462  0.2698
10969W        W27817   1.062  11.395  11.174  0.0862  0.0190 -0.0096
10970W        W27818  17.833   0.429   2.163  0.1635 -0.1200  0.2662
10971W        W27819  10.866   9.928  14.860  0.0057 -0.1482 -0.1783
10972W        W27820  17.101   1.746   4.072  0.0416  0.1566 -0.3120
10973W        W27821   1.652  13.560  12.642  0.0600 -0.0556  0.0480
10974W        W27822   5.597   6.012  12.080 -0.2912 -0.2084 -0.1588
10975W        W27823   5.888   2.160   3.887  0.0425  0.3518 -0.2061
10976W        W27824  10.513  14.285  11.868 -0.3770  0.1775  0.0468
10977W        W27825  16.415   4.366  11.338  0.0653 -0.1585  0.1959
10978W        W27826  11.315   5.209  12.347 -0.0126  0.0678  0.1154
10979W        W27827   6.678   7.299   4.789 -0.4033 -0.2174  0.2971
10980W        W27828   6.766  13.634  11.987 -0.0174  0.1154 -0.1757
10981W        W27829  12.820   0.827   3.751  0.0118 -0.2945 -0.0195
10982W        W27830   2.546   7.681   5.954  0.1782  0.0266  0.1370
10983W        W27831   5.134  14.124   0.981 -0.1327 -0.1189  0.0481
10984W        W27832   0.361  14.184  12.910 -0.4097 -0.3434 -0.0650
10985W        W27833  13.147  13.069   4.092  0.0180 -0.0246  0.1016
10986W        W27834   0.097   7.951  13.583 -0.0276  0.1731 -0.1727
10987W        W27835  15.126   3.861  13.890 -0.0010 -0.4504 -0.3455
10988W        W27836  12.476   0.790   0.493 -0.1624  0.2154 -0.1298
10989W        W27837  13.113   9.644   2.064  0.1929 -0.1138  0.1654
10990W        W27838  15.379   0.760   2.350  0.1001 -0.0159  0.2916
10991W        W27839  17.765   6.787  13.445 -0.1510 -0.3049  0.1474
10992W        W27840   5.659   4.891  13.081  0.1468 -0.0486  0.0100
10993W        W27841  15.335  14.858  16.329  0.0710  0.1852 -0.0470
10994W        W27842   6.710   7.796  15.397 -0.3051  0.0939  0.2308
10995W        W27843  10.578   5.069  11.735 -0.0294  0.0911 -0.4427
10996W        W27844  13.418   9.826  14.223 -0.1099  0.1102  0.0130
10997W        W27845  10.432   8.960   4.234  0.2090 -0.0504  0.1641
10998W        W27846  11.139   3.794  12.866  0.0539 -0.5393  0.3002
10999W        W27847  12.679  15.130  15.595  0.5819  0.1267  0.2858
11000W        W27848   2.136   0.490  14.726 -0.0017  0.1554  0.1088
11001W        W27849  16.476   2.807   4.157 -0.1369 -0.1559  0.0792
11002W        W27850  11.482   7.682  11.794 -0.0940 -0.0859  0.0431
11003W        W27851   7.198  11.024  15.561 -0.0113 -0.2491  0.0220
11004W        W27852   5.697  11.933   0.046 -0.0770  0.0065 -0.0058
11005W        W27853  15.725  17.354  11.947 -0.1413  0.1260 -0.0043
11006W        W27854  16.224   3.492   1.328  0.0897 -0.3938  0.2494
11007W        W27855  16.459   7.224   0.352  0.0288  0.0470  0.0895
11008W        W27856  13.896   6.712  12.341  0.0539 -0.1601  0.1251
11009W        W27857  15.985   1.158  15.573  0.1582 -0.0821  0.4435
11010W        W27858   5.314   6.171  16.445  0.0774  0.0395 -0.0547
11011W        W27859  10.556  13.934   5.180 -0.2850  0.0947  0.3215
11012W        W27860  10.161  16.170  16.447  0.1141  0.2745  0.1556
11013W        W27861  10.750  16.656  12.853 -0.2505 -0.3833 -0.0437
11014W        W27862  16.877   7.796  14.875 -0.4270 -0.2298  0.0691
11015W        W27863  13.360  14.898   2.706 -0.2193 -0.6256 -0.0075
11016W        W27864  16.290  12.516   1.844  0.0602 -0.0276  0.1789
11017W        W27865   8.430  10.972  14.989  0.1056  0.2096  0.0758
11018W        W27866   4.628  10.876  10.622  0.1485  0.2986  0.2268
11019W        W27867  11.167   6.763   2.807  0.2701 -0.0492 -0.2648
11020W        W27868   3.791  16.602  11.510  0.0461  0.0639  0.1565
11021W        W27869   4.240   1.433   1.330 -0.0698  0.1150  0.0362
11022W        W27870   7.569   3.827   1.521  0.1440 -0.2200 -0.2374
11023W        W27871   5.050   2.553   0.222 -0.1576  0.0191  0.0058
11024W        W27872   6.448  17.758   4.702 -0.1269 -0.1009  0.2249
11025W        W27873  16.757   9.613   1.733  0.0530 -0.5023  0.1034
11026W        W27874   5.394  10.147  11.289  0.2311 -0.0999  0.3425
11027W        W27875  12.590   5.676   6.214  0.1723  0.1605 -0.0931
11028W        W27876  13.879  13.622   1.416  0.0696 -0.1187  0.0572
11029W        W27877   1.984  12.146   0.519 -0.1539 -0.0449 -0.1677
11030W        W27878   9.302   4.799   4.849  0.0429 -0.1198 -0.0550
11031W        W27879   0.411  11.173  11.436 -0.0304  0.0312 -0.1905
11032W        W27880   2.919  15.028   0.501 -0.1584  0.0446 -0.1096
11033W        W27881   0.578   5.570   5.877 -0.0170  0.0185  0.0150
11034W        W27882  12.532  12.881   0.859  0.0768  0.0081 -0.0812
11035W        W27883  16.944  10.401   2.353  0.0463 -0.2897  0.3183
11036W        W27884   2.866   3.300   0.677  0.3057  0.0790  0.1431
11037W        W27885  11.177  14.744   0.847 -0.2700 -0.2196 -0.0610
11038W        W27886  17.066  17.465   2.872  0.1141  0.1050 -0.1677
11039W        W27887  14.209  12.069  14.919 -0.0719  0.1321 -0.1755
11040W        W27888   9.207  16.930   3.355  0.1364  0.2665 -0.4279
11041W        W27889   4.601   4.044  13.561  0.0762  0.1704  0.3833
11042W        W27890  15.564   0.525   1.569 -0.2428  0.0103 -0.1740
11043W        W27891  16.639   2.245  16.407 -0.0698  0.1250  0.0161
11044W        W27892   2.272   1.836   1.120  0.4663 -0.0081 -0.2371
11045W        W27893   0.805   1.874  11.647 -0.2352  0.0285  0.1150
11046W        W27894   0.428  16.639  12.838 -0.1513  0.0687  0.1309
11047W        W27895   9.302   4.407   3.825 -0.0188  0.0170 -0.0987
11048W        W27896   4.879   0.540   2.203 -0.1570 -0.2300  0.1212
11049W        W27897   4.534   8.664   5.167  0.0334 -0.0077 -0.1302
11050W        W27898   4.997  12.991  12.949  0.0339 -0.0850 -0.1201
11051W        W27899   1.032  13.029   2.029 -0.2387 -0.1115  0.2517
11052W        W27900   6.077   9.304   5.039 -0.0937  0.2945  0.1326
11053W        W27901   2.355   9.730  13.057 -0.0793  0.2094 -0.3187
11054W        W27902   5.066   7.043  13.553  0.0205  0.0517 -0.1586
11055W        W27903  15.852  14.291   1.159  0.0762  0.1105  0.1565
11056W        W27904  14.130  15.542  14.003 -0.2987  0.0035  0.0974
11057W        W27905  11.133  16.140  16.347  0.2506  0.2496 -0.0502
11058W        W27906   4.251   2.485   0.939 -0.1555 -0.0930 -0.1103
11059W        W27907  12.482   6.807  14.225  0.0648 -0.1597  0.4536
11060W        W27908  13.472  10.335   1.497  0.0437 -0.1645 -0.4017
11061W        W27909   6.925  15.186  11.617 -0.1719  0.3108  0.0309
11062W        W27910  14.342   3.460   1.704 -0.1836 -0.0870 -0.2469
11063W        W27911   5.466  15.667   5.097  0.2762 -0.4154 -0.2646
11064W        W27912   9.001  17.050   4.872  0.1458  0.0758  0.1326
11065W        W27913   5.497  13.323   1.871  0.2431 -0.1073 -0.0688
11066W        W27914   7.605  10.737  12.796 -0.0363  0.0711  0.0404
11067W        W27915  17.184  13.116   2.664 -0.0618  0.0500  0.3232
11068W        W27916   0.994  13.222  13.094  0.0381 -0.1311  0.1507
11069W        W27917  15.896   6.722   1.776 -0.1285  0.1058 -0.2072
11070W        W27918   5.125  17.191   4.655 -0.0411 -0.0518 -0.2320
11071W        W27919   4.340  15.604  14.101  0.2017 -0.1462 -0.3831
11072W        W27920   2.633   1.172   5.394 -0.1829  0.2021  0.2054
11073W        W27921   0.149   3.814  15.129  0.1033 -0.0252 -0.3230
11074W        W27922   0.903   3.888   1.228  0.2916 -0.1106 -0.2109
11075W        W27923  11.974   3.541  12.601  0.1550 -0.4039 -0.0570
11076W        W27924  15.504  16.347  14.784  0.0723 -0.1504 -0.1165
11077W        W27925  10.329  17.059  14.079  0.1433 -0.0270  0.0628
11078W        W27926  13.041  16.121   0.316 -0.0225 -0.2785 -0.0678
11079W        W27927  10.587  14.348  12.648  0.0861  0.2402  0.0655
11080W        W27928   2.636   0.293  11.509 -0.0382  0.0229  0.2978
11081W        W27929   8.040   4.070  14.809 -0.0113  0.2138 -0.1139
11082W        W27930  12.508   2.432   2.661 -0.1074 -0.1718 -0.1967
11083W        W27931  13.341  14.973   2.125  0.0362  0.5228  0.2299
11084W        W27932   1.084   7.585   1.698  0.0755  0.0828 -0.1486
11085W        W27933  12.657   9.371  14.191 -0.2684 -0.0036 -0.4550
11086W        W27934   9.275  14.992   4.218 -0.0079  0.2737 -0.0102
11087W        W27935  16.562  14.901  14.509  0.2492  0.1502 -0.3284
11088W        W27936   9.152  16.251   0.070 -0.0865 -0.0424  0.1556
11089W        W27937  10.509   8.179   3.285  0.1871  0.0891  0.1114
11090W        W27938   8.254  15.941   3.721 -0.1759 -0.0805 -0.1096
11091W        W27939  10.379  14.639   1.898 -0.1314 -0.1929 -0.2215
11092W        W27940   9.099   9.821  11.324 -0.0305  0.2507 -0.1040
11093W        W27941   4.992  12.720  15.086 -0.1891 -0.4229  0.1642
11094W        W27942   1.503   0.555  11.622 -0.1002  0.0560 -0.1385
11095W        W27943  10.726  16.218  11.671  0.0139  0.0970 -0.1104
11096W        W27944  13.080  16.182  13.558  0.0165 -0.0681 -0.2275
11097W        W27945   1.718  16.765  15.503  0.1167  0.0589  0.4384
11098W        W27946  17.306   7.279   5.472 -0.1244  0.0587  0.1134
11099W        W27947   5.146   7.527   1.703  0.0354 -0.2056  0.0200
11100W        W27948  11.231  16.409  11.647  0.0287 -0.4114  0.1388
11101W        W27949  13.004  17.598  12.241 -0.0680  0.0637  0.1129
11102W        W27950   9.253   9.551  15.766  0.2991  0.0508 -0.0775
11103W        W27951   4.244  13.891   1.099 -0.1531 -0.0509 -0.0068
11104W        W27952   5.502   7.139   5.326 -0.1268  0.1524 -0.0349
11105W        W27953   6.004   8.196  13.075 -0.1557  0.1279  0.2225
11106W        W27954   5.972   7.374  14.266  0.1825  0.1904 -0.0458
11107W        W27955  12.385  16.160   3.553  0.1288  0.0942  0.0125
11108W        W27956   6.405   4.631  13.494 -0.1012 -0.1630 -0.0734
11109W        W27957   0.845   4.846  12.727 -0.0982 -0.0435 -0.2584
11110W        W27958   1.855  16.544   1.761  0.0877 -0.4090  0.0307
11111W        W27959  10.304   3.659  13.915  0.2470 -0.0995  0.0060
11112W        W27960   7.130  14.999   0.237  0.0925 -0.1410  0.0069
11113W        W27961   7.954  17.682   1.314 -0.1298 -0.0751 -0.1574
11114W        W27962  13.909   5.813   3.920 -0.1454 -0.0888  0.0151
11115W        W27963   4.836  12.849  13.911 -0.1256 -0.1749  0.1446
11116W        W27964   5.265   4.359   1.470  0.2566 -0.1130  0.1494
11117W        W27965   6.931   0.690   3.144  0.0127 -0.1692 -0.1377
11118W        W27966  11.208  11.441  12.754  0.1847  0.1374 -0.0486
11119W        W27967   2.960   1.814   4.134  0.1359  0.2403  0.1423
11120W        W27968   2.403   5.910   0.786 -0.1177  0.1778  0.1132
11121W        W27969   9.487   6.114   4.251  0.1972  0.1726 -0.1838
11122W        W27970   4.417  16.732  13.725 -0.3736  0.0414 -0.3591
11123W        W27971   5.312   4.381  16.365 -0.2489 -0.0972 -0.0028
11124W        W27972   8.291  11.093   1.640 -0.1624 -0.0347  0.0782
11125W        W27973  15.059   9.093  14.560 -0.1059 -0.0711 -0.0222
11126W        W27974  12.560  11.393   5.150 -0.1316 -0.1948  0.2513
11127W        W27975   2.718   1.138  16.152  0.1048 -0.0260 -0.0117
11128W        W27976  14.191  10.949  14.263 -0.0489 -0.0317 -0.1185
11129W        W27977   7.715   7.974  15.653 -0.0150  0.0223  0.1702
11130W        W27978   0.872  17.185   0.518 -0.2159  0.1134 -0.3244
11131W        W27979   2.635  10.546  13.606 -0.2270  0.1367 -0.0983
11132W        W27980  12.056  17.309  10.106 -0.2391 -0.1566  0.0496
11133W        W27981   1.504  11.934  13.149  0.1885  0.0549  0.0569
11134W        W27982  12.257   5.335  10.551  0.1903  0.2204 -0.0253
11135W        W27983   0.044  11.054  14.788 -0.1818 -0.1581  0.0504
11136W        W27984   0.274   6.898  15.588  0.1850  0.0261  0.2382
11137W        W27985   8.364   4.469   3.215  0.1928 -0.0206 -0.1561
11138W        W27986   1.851   4.405   5.030 -0.2404 -0.1565 -0.2289
11139W        W27987   3.874   6.662  14.609  0.3436 -0.3006  0.3103
11140W        W27988  15.944  13.438  15.340  0.0200 -0.0958 -0.0282
11141W        W27989   1.761  13.849   4.460 -0.0485  0.1043  0.2178
11142W        W27990   1.830   5.518   1.924  0.2160 -0.0587  0.1004
11143W        W27991   4.395   5.312  14.694  0.1326  0.2636  0.0040
11144W        W27992   5.325   3.793  11.779  0.4487 -0.2303  0.0845
11145W        W27993   1.556   9.751   2.535 -0.3286  0.2799  0.0464
11146W        W27994  12.738   7.439   5.001 -0.0153 -0.2861 -0.1989
11147W        W27995   8.537   5.720  15.611  0.0923  0.1901  0.3572
11148W        W27996  11.776  11.375   2.555  0.1838 -0.2780 -0.3282
11149W        W27997   4.869   9.426  11.424  0.0880  0.4568  0.0543
11150W        W27998   7.707   7.835  11.117 -0.0791 -0.0053  0.1565
11151W        W27999  10.109  12.953   4.032  0.0583 -0.0430  0.0634
11152W        W28000  15.866  15.583   4.552 -0.0425 -0.0428 -0.1414
11153W        W28001  17.341   2.316   4.896 -0.0347  0.1996  0.0206
11154W        W28002  15.240   3.368  11.933 -0.0454  0.3085 -0.0818
11155W        W28003   9.322  16.533   3.590 -0.2560  0.2889  0.1757
11156W        W28004  14.352   0.761   4.240 -0.0726  0.3434 -0.0322
11157W        W28005   9.626   2.185   3.496  0.3225 -0.1112  0.2298
11158W        W28006  17.423  17.235   1.017 -0.0512 -0.2048 -0.0828
11159W        W28007   9.404   9.152  12.749  0.0538  0.0234 -0.0932
11160W        W28008   1.863   0.135  13.692 -0.0840  0.0371  0.2623
11161W        W28009  10.540   0.385   2.322 -0.0189 -0.0750 -0.0710
11162W        W28010   5.315   1.854  14.938  0.1534  0.0230  0.2567
11163W        W28011  12.852   7.136   4.372 -0.1461 -0.4632 -0.0562
11164W        W28012   3.804  14.185   1.945 -0.2259 -0.1855 -0.0044
11165W        W28013  17.339  15.680  15.551  0.0386 -0.1192  0.0670
11166W        W28014   6.754  15.815  14.003 -0.3180  0.1896 -0.0576
11167W        W28015  13.447  11.174  16.457  0.1887  0.0324 -0.1219
11168W        W28016   8.008   7.193  14.187  0.0833  0.1758  0.1239
11169W        W28017   7.737   2.351  12.295  0.1884 -0.1436  0.0340
11170W        W28018   6.601   3.214  12.657 -0.0845 -0.1171 -0.3786
11171W        W28019   5.415   8.488   5.137  0.2606  0.0718 -0.0297
11172W        W28020   2.425   3.491   5.492 -0.0686 -0.4353 -0.0485
11173W        W28021   5.407   1.668   5.405  0.4345 -0.5087  0.3310
11174W        W28022  17.646   6.351  15.711  0.1131  0.1360  0.2005
11175W        W28023   2.746  14.405  10.981 -0.0229  0.0676 -0.3269
11176W        W28024   7.469   9.182  13.798 -0.3051 -0.2538  0.2620
11177W        W28025  10.171  17.166   1.450  0.2003  0.1439 -0.1425
11178W        W28026  15.237  13.653   0.503  0.0197  0.0762 -0.0023
11179W        W28027   4.502  12.071   1.373 -0.0154 -0.0856  0.0130
11180W        W28028  17.324   8.471   0.228 -0.0601  0.0515  0.0172
11181W        W28029   3.523  13.295   3.266 -0.0700 -0.2173 -0.2753
11182W        W28030  10.485   6.156  13.291  0.0246 -0.1818  0.1175
11183W        W28031   7.884   7.867   2.584 -0.1697  0.3050 -0.0380
11184W        W28032  14.422   8.966  13.860 -0.2304  0.0397  0.0719
11185W        W28033  12.535   6.359   1.089 -0.4887  0.0838 -0.0645
11186W        W28034  10.868   3.928   1.500  0.0680  0.0838  0.2703
11187W        W28035  13.420  13.416  10.288  0.0901 -0.1446 -0.4518
11188W        W28036  15.543   8.911   2.386 -0.0862  0.1013 -0.0322
11189W        W28037  15.649  12.934   2.630 -0.1157 -0.0506  0.0226
11190W        W28038  15.443   0.691   3.274  0.1483 -0.1541 -0.0440
11191W        W28039   8.271  13.676  14.980 -0.3214  0.0609 -0.2270
11192W        W28040  16.337  16.456  10.887  0.3499  0.0842 -0.0306
11193W        W28041  11.840   7.757  10.189 -0.0846 -0.0194  0.1370
11194W        W28042  15.201   4.775   0.887 -0.2832  0.1242  0.1844
11195W        W28043   4.990   8.116   1.994 -0.0399 -0.0954  0.3056
11196W        W28044  14.474   3.402   6.116 -0.3204  0.0457  0.1096
11197W        W28045  16.694   2.705  12.951 -0.2756  0.1137  0.1666
11198W        W28046  12.058   9.760  16.149 -0.2157  0.0821  0.0934
11199W        W28047   0.040   6.772  10.841  0.1006  0.0541  0.1389
11200W        W28048   8.606  17.631  13.329  0.2017  0.0450 -0.2801
11201W        W28049  11.017   2.205   0.999  0.0733 -0.0810 -0.2398
11202W        W28050   2.296  13.513  14.333 -0.2603 -0.0359  0.3706
11203W        W28051  16.771   3.995  14.124  0.3132 -0.1806  0.3582
11204W        W28052   2.006  12.568  11.134  0.0383  0.0071  0.0516
11205W        W28053   1.572   3.465  15.480  0.1421 -0.2606  0.0639
11206W        W28054   4.903  13.408   0.223  0.0850 -0.2402 -0.0891
11207W        W28055  11.205   0.550   2.728  0.1128 -0.0265 -0.2325
11208W        W28056   7.278  14.059   0.682 -0.0166  0.1307 -0.1784
11209W        W28057   0.160  17.407  14.448  0.2981 -0.3415 -0.3070
11210W        W28058  13.092   4.613  12.848  0.0958 -0.3545 -0.0981
11211W        W28059  10.990  15.367  12.584  0.1035  0.0841  0.0423
11212W        W28060  10.020   4.469   4.061 -0.0426  0.2249  0.1428
11213W        W28061  14.759   5.907   0.519 -0.0451  0.3137 -0.0464
11214W        W28062  17.481   7.539  12.894 -0.0547  0.2123  0.0221
11215W        W28063  12.987  12.862   1.939 -0.0249  0.0892 -0.2235
11216W        W28064  10.403  10.189   2.136  0.1495 -0.1804  0.1096
11217W        W28065  11.956   6.133  11.050 -0.3215 -0.0932  0.1868
11218W        W28066  15.272   2.957   4.534 -0.0888  0.2330 -0.0130
11219W        W28067   9.988   9.764   4.122  0.1576  0.0875  0.1269
11220W        W28068   9.089  11.733  13.166  0.0814  0.0204 -0.0142
11221W        W28069   0.671  11.216   4.453 -0.0386  0.0805 -0.0920
11222W        W28070   4.384   6.385  15.894 -0.1040  0.2426 -0.2090
11223W        W28071  17.682  15.019  10.465  0.0076  0.2170  0.2983
11224W        W28072   3.214  17.193  14.544 -0.3946  0.0715  0.1681
11225W        W28073   1.939   0.917  14.480 -0.1895 -0.1148  0.2611
11226W        W28074   1.447  15.643   0.326 -0.0714 -0.1478 -0.0504
11227W        W28075   4.195  14.196   2.757  0.0304  0.0076  0.1161
11228W        W28076  12.612   5.696  14.294 -0.1481  0.2888 -0.1717
11229W        W28077  11.416   8.658   1.268  0.0399 -0.2133 -0.0007
11230W        W28078  11.517  17.364   2.033 -0.2253  0.0214 -0.1159
11231W        W28079   2.185   2.975   2.942 -0.0647  0.1929 -0.0315
11232W        W28080   1.417   6.845   5.285  0.0357  0.1815 -0.0562
11233W        W28081   3.226   4.919  15.898  0.1412  0.1603 -0.0835
11234W        W28082   2.653   3.111   1.406 -0.2102  0.3929 -0.2334
11235W        W28083   1.858   1.271   2.285  0.1428  0.1466  0.1407
11236W        W28084   8.484  10.101  13.374 -0.1436  0.2592 -0.0122
11237W        W28085  16.819  10.085  15.834 -0.1192  0.2846 -0.0714
11238W        W28086   8.860   9.051  13.545 -0.1918  0.2476 -0.3085
11239W        W28087  14.868  15.922   2.851  0.1029  0.0830  0.1430
11240W        W28088   9.769   1.326   4.952 -0.4125 -0.1447  0.1729
11241W        W28089   6.794   7.820  12.218  0.1223 -0.1711  0.1896
11242W        W28090  12.966  17.589  12.788  0.1793  0.3610  0.1138
11243W        W28091   7.143   6.600  16.124  0.1322 -0.0845 -0.1417
11244W        W28092  11.839  11.977  14.308  0.0044  0.3563 -0.3625
11245W        W28093  14.083  17.455   1.953 -0.1590  0.0869 -0.0316
11246W        W28094  12.491  13.029   3.189  0.0032 -0.1464 -0.1623
11247W        W28095   5.292   2.991  11.670  0.2808  0.3198 -0.1676
11248W        W28096   2.833  11.845   3.660 -0.1751  0.0988  0.0529
11249W        W28097  12.468  13.233  13.178 -0.3876  0.2455  0.4455
11250W        W28098  14.947  11.504  12.649  0.3004 -0.5180 -0.0303
11251W        W28099  15.423  15.671  15.103 -0.1224 -0.0574  0.0148
11252W        W28100   8.400   6.316  13.342 -0.0064  0.1105  0.3131
11253W        W28101  17.824   4.109   2.501  0.1461 -0.2723 -0.2264
11254W        W28102  11.685   6.234  11.612 -0.0409  0.0623  0.1893
11255W        W28103   4.510   1.209   4.003  0.2497 -0.0253  0.2198
11256W        W28104  17.648  12.805   4.799  0.1206 -0.3067  0.0909
11257W        W28105  16.834   5.585   0.116  0.5402  0.0295  0.2336
11258W        W28106   0.072   8.920   2.836 -0.0026 -0.3812 -0.0309
11259W        W28107   8.313   6.219   2.756 -0.0627  0.2473  0.0070
11260W        W28108   3.026  12.942   5.017  0.1952 -0.3255  0.0317
11261W        W28109   2.933   5.191  12.191  0.0652 -0.0366  0.0656
11262W        W28110  16.749  10.402  16.270 -0.2135 -0.1917  0.0756
11263W        W28111   1.456   9.740  15.359 -0.1581 -0.4183  0.0230
11264W        W28112  16.669   3.530  14.447 -0.0755 -0.1157 -0.0967
11265W        W28113   7.568  12.925  12.774 -0.3371 -0.1328  0.0276
11266W        W28114   9.003  14.174   3.156  0.2116  0.0188  0.0132
11267W        W28115   9.725  13.830   1.399 -0.1024 -0.3356 -0.0170
11268W        W28116  16.786   3.344   5.397  0.1585  0.0445 -0.0835
11269W        W28117   1.048  11.233  15.010 -0.2575  0.1477  0.0627
11270W        W28118  10.582  10.089   5.553 -0.0636  0.0934 -0.3081
11271W        W28119  13.145   8.121   4.754 -0.0517  0.0627 -0.3183
11272W        W28120  17.248  14.077  11.234  0.0527 -0.1009  0.0521
11273W        W28121   1.420   1.389  12.047 -0.0231 -0.3408 -0.0268
11274W        W28122   2.285   8.657   1.739  0.0658  0.0701 -0.2250
11275W        W28123   7.930  12.853  14.170 -0.0827 -0.0186 -0.0970
11276W        W28124   7.864  14.386  11.579 -0.0145  0.0176 -0.0763
11277W        W28125  14.054  11.358  11.781 -0.2623  0.0804  0.0925
11278W        W28126  10.340  10.890   1.675 -0.0940  0.0270  0.1805
11279W        W28127   7.784   5.154   0.539 -0.2160 -0.1591  0.2037
11280W        W28128  15.348   6.275   4.926  0.2013 -0.0145 -0.1163
11281W        W28129   7.219   3.042   2.504  0.0443 -0.0676 -0.0195
11282W        W28130   8.472  17.878   5.124 -0.1807 -0.0274 -0.2851
11283W        W28131   9.517  15.801  12.765  0.0308 -0.0280  0.1946
11284W        W28132   6.457  12.573   0.538  0.0262 -0.1324  0.4252
11285W        W28133  16.392   3.198  14.736  0.0920  0.0141  0.4982
11286W        W28134  16.324  14.662   2.020  0.1482 -0.0574  0.0339
11287W        W28135   6.968  11.909  15.419  0.2373  0.0504 -0.0720
11288W        W28136  13.897   4.541  13.501 -0.1265  0.0595  0.2413
11289W        W28137   4.495   6.868  14.076  0.0133 -0.0936 -0.1649
11290W        W28138   3.699   0.164   2.595 -0.2050 -0.3580 -0.1282
11291W        W28139   4.950   4.785   1.235 -0.1297  0.1576  0.1290
11292W        W28140   1.937  11.832   1.509  0.2752 -0.0057  0.1181
11293W        W28141   9.683   3.896   2.127  0.0515 -0.1633  0.0716
11294W        W28142   8.207  12.466   6.119 -0.0994 -0.1190  0.1477
11295W        W28143   5.453  12.810   4.698 -0.0777 -0.0861  0.0271
11296W        W28144  11.237  10.787   0.067 -0.2920  0.2279 -0.0891
11297W        W28145   3.060  11.058   0.383 -0.1798  0.1829  0.0065
11298W        W28146  12.136   0.616   3.011  0.0057  0.0241 -0.0123
11299W        W28147   5.036   5.504   4.189  0.1667 -0.1690  0.1116
11300W        W28148   6.067   6.592   4.827 -0.0206 -0.3516  0.0688
11301W        W28149   0.208   2.739  12.698 -0.0206  0.2505  0.2576
11302W        W28150  10.965  10.136   4.211 -0.1705  0.0857 -0.2081
11303W        W28151  17.289  17.074   5.528 -0.0250 -0.0746 -0.1447
11304W        W28152  14.528   9.650   0.295  0.2362 -0.2436 -0.1216
11305W        W28153  14.036   2.044  12.143 -0.4849  0.0805  0.0462
11306W        W28154  17.838   4.241   1.631 -0.2722  0.1026 -0.0398
11307W        W28155  16.393   3.643   0.348  0.0155  0.1322 -0.0223
11308W        W28156   0.018  10.169   2.919 -0.1208  0.1624 -0.0765
11309W        W28157  12.309   0.884  14.007 -0.0843 -0.1248  0.0133
11310W        W28158   5.349  15.573  11.917  0.0083 -0.1970  0.0797
11311W        W28159   2.342   1.964  14.451 -0.1095  0.3146 -0.1051
11312W        W28160   4.195   8.773  13.070 -0.0944  0.0147 -0.0752
11313W        W28161   2.500   6.925  14.140  0.2047  0.1471 -0.2226
11314W        W28162  14.394   6.761  15.286 -0.2085 -0.1014  0.1815
11315W        W28163   6.307   7.314  13.412  0.3387  0.1430  0.0402
11316W        W28164  17.233  12.731  12.551 -0.1460 -0.1477 -0.0462
11317W        W28165   0.148   6.236   3.545 -0.1020 -0.1977  0.0800
11318W        W28166  17.723  17.418   3.950 -0.0241 -0.0790  0.2786
11319W        W28167   0.912   3.055   3.380 -0.0951 -0.0492  0.1963
11320W        W28168   0.384   1.394  14.117  0.0255  0.0690  0.3306
11321W        W28169   4.962  11.496  11.223  0.0340  0.0257 -0.2455
11322W        W28170  16.704   9.334  11.801 -0.1440 -0.1749  0.0570
11323W        W28171   2.732   6.888   3.677  0.4029  0.2445 -0.0260
11324W        W28172   7.524  15.462   0.196  0.0449 -0.1794  0.3065
11325W        W28173  17.062  11.766  16.248 -0.0655 -0.1099 -0.2988
11326W        W28174  17.253   8.826  12.378 -0.1132  0.0122 -0.3694
11327W        W28175   6.587   9.051   4.851  0.2301 -0.1196 -0.0922
11328W        W28176  11.318   9.653   2.802  0.0302 -0.2154 -0.2742
11329W        W28177  10.931   5.829  12.336 -0.0875 -0.0632 -0.1880
11330W        W28178   8.517   4.611  13.946  0.4402 -0.0585  0.0893
11331W        W28179   5.007   5.866   0.295 -0.2075 -0.1417  0.0882
11332W        W28180  16.621   7.356   4.442 -0.0605 -0.0182  0.1490
11333W        W28181  17.720   8.269   2.812 -0.0828 -0.2278 -0.0545
11334W        W28182  12.996  11.029  12.759  0.0754 -0.1078  0.0432
11335W        W28183   3.565  13.041  16.275  0.1735 -0.1708 -0.0012
11336W        W28184  13.406   4.754  13.460 -0.0678  0.1067  0.0514
11337W        W28185  14.593   2.184   1.974 -0.2271  0.2256 -0.1914
11338W        W28186   9.543  12.588   5.807  0.0327 -0.1727  0.1276
11339W        W28187  12.847  16.775   0.264 -0.0074 -0.2536 -0.1192
11340W        W28188  12.061  12.887   3.064 -0.2804  0.0884  0.0269
11341W        W28189  12.088  11.583   5.134 -0.1584 -0.1463 -0.0856
11342W        W28190   0.681   3.734  15.036  0.4859 -0.1090 -0.1782
11343W        W28191   9.796   2.420   0.367 -0.0030  0.1737  0.1325
11344W        W28192   8.262  12.890  13.358 -0.0523  0.3082  0.0856
11345W        W28193  16.846  13.213   1.205  0.3618 -0.0204 -0.4497
11346W        W28194  12.919   4.400   3.595 -0.3777  0.0478 -0.0506
11347W        W28195   0.496  17.602   2.773 -0.0317 -0.0958  0.0414
11348W        W28196   3.174   2.730   1.530 -0.1453  0.0531 -0.3972
11349W        W28197  17.596   1.347   1.986  0.0007  0.1236  0.0518
11350W        W28198  12.738   0.685  11.941  0.0818 -0.0337  0.2430
11351W        W28199  12.747  11.972   1.835  0.0555  0.0144  0.3056
11352W        W28200   2.861  12.960  12.224 -0.1008 -0.1018 -0.0061
11353W        W28201   7.415  15.829  10.622 -0.1764 -0.0508  0.0166
11354W        W28202  10.901  11.484   3.794 -0.0346 -0.0647  0.3813
11355W        W28203   5.504  17.004   1.807 -0.0345  0.3933 -0.1818
11356W        W28204   0.121   1.286   1.718  0.1338 -0.1251  0.2954
11357W        W28205   1.689  16.745   1.088  0.1657  0.3055 -0.0068
11358W        W28206  13.604   7.388  14.980 -0.1076 -0.0027 -0.0559
11359W        W28207   8.901  17.106   1.095 -0.1185  0.0779  0.0155
11360W        W28208  14.492   9.883  12.184  0.0121  0.0459  0.2386
11361W        W28209   0.040   0.602  15.071 -0.2714 -0.2145 -0.1232
11362W        W28210  15.878   4.090   3.280  0.0258 -0.1141  0.0535
11363W        W28211  16.081  17.005  11.919 -0.0644  0.1166 -0.0981
11364W        W28212  11.253   9.024   1.605  0.3347 -0.0132  0.2897
11365W        W28213  15.887  17.418  14.990 -0.2175  0.1773 -0.1339
11366W        W28214   6.896  16.169  12.305  0.0100  0.0409 -0.0796
11367W        W28215  11.377   4.923   2.761 -0.2444 -0.1940  0.1522
11368W        W28216   4.790   9.247   3.555  0.0577  0.0904  0.2633
11369W        W28217  17.566   1.149   1.412 -0.1010  0.0043 -0.2547
11370W        W28218   9.365  17.124   1.935 -0.0583 -0.0059 -0.1027
11371W        W28219   0.573   9.317  13.812 -0.0114  0.1722 -0.0710
11372W        W28220   4.851   9.089   3.021 -0.0381 -0.2717  0.1763
11373W        W28221   8.715   3.383   0.221  0.2319 -0.0716  0.0185
11374W        W28222   2.602   7.011   2.758  0.1782  0.1308  0.2828
11375W        W28223  13.729  17.590  13.474 -0.1985 -0.3923 -0.1261
11376W        W28224  13.557   1.524   3.459  0.0779 -0.1728  0.1322
11377W        W28225   2.068  15.468   3.330  0.0804  0.0094  0.0449
11378W        W28226  12.797  13.114   2.706  0.3316  0.0404  0.1807
11379W        W28227   2.994  10.139   0.456 -0.1536 -0.2746  0.1647
11380W        W28228   4.519   8.462   3.667  0.0151 -0.0731  0.1228
11381W        W28229   7.341  16.068  12.688  0.1628 -0.0684 -0.1893
11382W        W28230   1.059  15.629  14.166  0.1616 -0.0975  0.2551
11383W        W28231  16.480  13.520  11.211  0.0397 -0.3129  0.3146
11384W        W28232  16.610   6.983  15.242 -0.4394 -0.1246  0.0713
11385W        W28233  11.867   7.803   0.172  0.2571 -0.1558 -0.2363
11386W        W28234  17.228   2.158  12.324  0.0307 -0.1636  0.0027
11387W        W28235  17.861   1.185  13.384  0.0560 -0.0283 -0.3124
11388W        W28236  13.147  10.044  12.750  0.2324 -0.1054  0.0068
11389W        W28237   8.182   9.558  15.625 -0.1560  0.0056  0.1216
11390W        W28238  11.943   9.605   0.583 -0.0614 -0.1051 -0.2096
11391W        W28239   7.886   5.071  12.252 -0.2518  0.2911 -0.2221
11392W        W28240   4.618  15.415  16.428  0.0297  0.0558 -0.0043
11393W        W28241  12.386   5.312  15.865 -0.2170  0.0139 -0.0528
11394W        W28242  14.705  17.779   0.106  0.1232 -0.2238 -0.1933
11395W        W28243   0.815   2.370  11.948 -0.0480 -0.3277  0.0105
11396W        W28244  10.963   8.522  12.945 -0.3804  0.2711  0.2107
11397W        W28245  14.636   2.465  16.101  0.1388  0.0625  0.3507
11398W        W28246   5.979   8.742   2.439 -0.5733  0.0079  0.0287
11399W        W28247  15.162  12.635  12.973 -0.0292 -0.1528 -0.1172
11400W        W28248   5.819  15.483  13.118 -0.0810  0.2905 -0.0826
11401W        W28249   9.328  15.242  16.011 -0.1410  0.1563 -0.0260
11402W        W28250  14.223   2.287   5.091 -0.2082  0.2427 -0.2669
11403W        W28251  11.933   1.459  15.791  0.0336 -0.3303 -0.0797
11404W        W28252  15.038   7.974  12.611  0.1067 -0.1200  0.1329
11405W        W28253  15.806  13.581  15.820  0.0622  0.0648 -0.0417
11406W        W28254  12.120  14.198   0.284  0.3918  0.2545 -0.1070
11407W        W28255   9.073   0.024   4.082 -0.1870  0.2863 -0.3411
11408W        W28256  16.033   4.785  15.076 -0.1284 -0.0043 -0.0413
11409W        W28257   5.552   9.567  12.520  0.2054 -0.3454  0.1735
11410W        W28258  13.977   9.436  15.714  0.1336  0.0995  0.1198
11411W        W28259   2.147   1.996  16.305  0.2053 -0.0048  0.0183
11412W        W28260   8.774  10.005   0.470  0.1990  0.1554 -0.2135
11413W        W28261  17.037  15.100   4.846 -0.0396 -0.3060  0.0052
11414W        W28262  12.528   1.266   2.621 -0.2729  0.0156  0.0214
11415W        W28263   7.634   9.043   1.993 -0.0365  0.2664  0.0517
11416W        W28264  10.897  10.732  15.775 -0.1929 -0.2075 -0.0438
11417W        W28265   8.602   2.485  12.804  0.2207 -0.1506 -0.1988
11418W        W28266   9.744   7.262  15.546  0.0133  0.2429 -0.1260
11419W        W28267   9.436  11.416   3.451  0.0242 -0.0412  0.3086
11420W        W28268   7.689   4.058   2.589  0.1594 -0.2931  0.0999
11421W        W28269   9.069   8.206   3.111  0.1841 -0.3757 -0.3337
11422W        W28270   7.599   4.204   2.133  0.5758  0.0342  0.1279
11423W        W28271   6.175   6.721   4.330 -0.2901  0.2007 -0.2630
11424W        W28272  15.411   3.392  11.465 -0.0798 -0.0259  0.2817
11425W        W28273   4.813  10.399  16.266  0.0760 -0.0986 -0.0477
11426W        W28274  16.631  15.159  14.069 -0.2591 -0.1241 -0.3554
11427W        W28275   2.503  12.336   3.659 -0.0885  0.0741 -0.3571
11428W        W28276   8.280   1.669   1.345  0.0127 -0.2723  0.1679
11429W        W28277  14.276  12.241  12.311  0.0877  0.0066 -0.3282
11430W        W28278  16.293  14.923  13.693  0.0775 -0.0648  0.3767
11431W        W28279  10.265  15.432  13.124  0.1162 -0.0873 -0.1081
11432W        W28280   2.095  15.250   3.767 -0.0259 -0.0839  0.0137
11433W        W28281  12.488  14.678   4.456 -0.2745  0.1068 -0.1925
11434W        W28282   6.560  13.674  15.156 -0.0072  0.0463 -0.0221
11435W        W28283   1.736  17.114   1.544  0.1379 -0.0109 -0.4312
11436W        W28284   4.440  11.167  12.503 -0.0477 -0.0742 -0.0035
11437W        W28285   1.654  10.322  13.581 -0.6418  0.0526 -0.1584
11438W        W28286   7.572  10.107   3.384 -0.3223 -0.2497 -0.2113
11439W        W28287   5.682   1.517   2.831 -0.0263  0.0696  0.0464
11440W        W28288   6.964   9.318   3.263 -0.1510  0.0402  0.1870
11441W        W28289  14.030  14.314   2.037  0.2305 -0.1709  0.0893
11442W        W28290   8.371   2.464   4.900  0.0182 -0.2014  0.2883
11443W        W28291   1.689   2.875  13.270  0.0096 -0.0763  0.0065
11444W        W28292  10.056  11.401   3.306  0.1313  0.0516 -0.3169
11445W        W28293  10.450  12.201   4.925 -0.1552  0.0606 -0.1757
11446W        W28294  13.857  17.403   2.811 -0.0287  0.0213 -0.0731
11447W        W28295  13.535   7.559  14.484  0.2240 -0.0561 -0.1678
11448W        W28296   4.925   6.114   4.692 -0.0693 -0.1678 -0.0265
11449W        W28297   0.223   1.628   2.468 -0.1566 -0.0743 -0.0205
11450W        W28298   9.335  10.702   1.918 -0.0740  0.0659  0.1718
11451W        W28299  17.785   3.252  11.195  0.0416  0.0486 -0.1394
11452W        W28300  16.087  12.260   3.141 -0.1192 -0.0542 -0.1079
11453W        W28301   4.770   7.267   4.185  0.1088  0.1629 -0.0546
11454W        W28302   4.132   3.650   4.585  0.1418 -0.1926 -0.1932
11455W        W28303   7.351   4.792   1.185  0.1242 -0.2213 -0.0282
11456W        W28304   9.624   4.623  11.470  0.0945  0.2591 -0.1295
11457W        W28305   1.315   7.837  15.786  0.1074  0.3533  0.3913
11458W        W28306  13.178   0.941   2.081 -0.1171 -0.1017  0.2498
11459W        W28307   9.720  17.252   1.577 -0.2790 -0.1327  0.1426
11460W        W28308   2.019   1.767  14.740  0.1214 -0.1252 -0.1563
11461W        W28309  10.513  14.240   0.365 -0.0248  0.0986 -0.0415
11462W        W28310  17.498  12.225  15.534  0.0309  0.4214  0.1783
11463W        W28311  14.406   4.087  10.441 -0.1087  0.1349 -0.0733
11464W        W28312   8.943  15.450   4.845 -0.0551 -0.0376  0.1228
11465W        W28313   0.812   0.803   0.064 -0.1448 -0.1317  0.1877
11466W        W28314  17.147   6.147  15.962  0.4063  0.1699  0.1102
11467W        W28315  17.369  11.317   3.952 -0.0022 -0.1613  0.0384
11468W        W28316  15.886  10.118   1.606 -0.0697  0.2966 -0.2283
11469W        W28317  14.736  13.871  13.361  0.0314  0.0962  0.1573
11470W        W28318  14.695  13.746   4.136  0.2627  0.2772 -0.1157
11471W        W28319   5.266  12.545  14.675  0.1282 -0.3165  0.2004
11472W        W28320   3.014   8.367   3.815  0.1139 -0.0020  0.0902
11473W        W28321  15.596   3.978  12.966  0.0101  0.0568  0.0334
11474W        W28322   3.678   6.083   4.680  0.2419 -0.0983  0.2520
11475W        W28323   8.989  12.160   3.094  0.1534 -0.3380 -0.0694
11476W        W28324  10.921  10.049   0.825  0.0057  0.2717  0.2248
11477W        W28325  15.555   3.530  16.443 -0.0287 -0.5089 -0.0537
11478W        W28326   0.775  17.346   2.012 -0.0672  0.0504  0.0104
11479W        W28327  11.459  14.204   5.046 -0.0957 -0.1059  0.0265
11480W        W28328  14.688   1.167   0.752 -0.1819 -0.1588 -0.2349
11481W        W28329  14.453  14.602  11.181 -0.2241  0.0002 -0.2265
11482W        W28330   0.588   8.969   4.505 -0.0552 -0.2775 -0.0702
11483W        W28331   0.404   6.520  15.892 -0.3927  0.0107  0.2204
11484W        W28332  12.447   8.408  16.137  0.2007 -0.0118  0.0722
11485W        W28333  16.941   8.808  16.460 -0.4314  0.5694  0.1354
11486W        W28334  11.571  12.564   0.776  0.0354  0.1291 -0.1095
11487W        W28335  16.984   5.217  11.166 -0.1178 -0.2826 -0.0035
11488W        W28336   7.567   9.538  11.130  0.1072 -0.1239 -0.0783
11489W        W28337  12.855   4.139  15.610 -0.1122  0.1757  0.2139
11490W        W28338  16.108   3.722  11.611  0.0606  0.1912  0.0348
11491W        W28339   6.392  12.131   4.463 -0.1688  0.0388 -0.3257
11492W        W28340   4.080   8.238   3.588  0.0656  0.1970  0.0210
11493W        W28341  13.166  11.461   0.843 -0.1996  0.0562  0.1350
11494W        W28342   0.770   1.705  13.138  0.1381  0.0462  0.0735
11495W        W28343  15.414   4.006   2.411  0.1874 -0.0523 -0.3214
11496W        W28344   1.825   3.557   3.286  0.0664 -0.1705 -0.2396
11497W        W28345   0.892  11.264  13.205 -0.1249 -0.0351  0.0028
11498W        W28346   6.469   0.800   3.877 -0.2884  0.0829 -0.0627
11499W        W28347  10.776   8.189  13.428 -0.2309 -0.1464  0.1290
11500W        W28348  16.942  13.195   4.631 -0.0808  0.2602 -0.0726
11501W        W28349  13.090  13.845   5.383 -0.0914 -0.0715 -0.1877
11502W        W28350   5.963   6.368  14.134  0.0429 -0.0313  0.1234
11503W        W28351   6.200   2.431   2.065  0.1820 -0.1893 -0.1241
11504W        W28352  11.881   1.586  13.668 -0.1706 -0.0041  0.5119
11505W        W28353   4.827  13.877  14.982  0.2362  0.0586 -0.1084
11506W        W28354   7.305  16.226   0.278 -0.1009  0.1959 -0.1662
11507W        W28355   3.057  11.351  14.122 -0.3074  0.2479 -0.2046
11508W        W28356  13.127   4.018   4.842  0.0712  0.0231 -0.3038
11509W        W28357  15.706   1.417   2.109  0.0569 -0.0293 -0.1175
11510W        W28358   0.418   8.947   1.491  0.2199  0.2361  0.0390
11511W        W28359   7.749  13.542  12.599  0.0223 -0.0086  0.1505
11512W        W28360   7.329   7.680  12.032  0.1209 -0.0379  0.2147
11513W        W28361   3.126   7.958   2.559 -0.2231 -0.0306  0.0568
11514W        W28362   8.329  13.421   4.719  0.2329 -0.0449 -0.0043
11515W        W28363  15.829  10.470  16.260  0.0394 -0.1508  0.1407
11516W        W28364  16.914   1.051   2.355 -0.0695  0.4873  0.1632
11517W        W28365   5.582   0.358   4.787 -0.2163 -0.0470  0.2233
11518W        W28366   9.138   7.609   2.282 -0.0723 -0.2200 -0.1662
11519W        W28367   5.868  13.796  14.503  0.0979  0.1582  0.2579
11520W        W28368   8.160  16.677   1.201 -0.1869  0.0484 -0.1018
11521W        W28369  14.124   6.156  12.508  0.3813  0.2596 -0.3930
11522W        W28370  11.257  12.221  11.893  0.0845  0.0552 -0.1352
11523W        W28371   0.273   8.440  12.356 -0.0215 -0.2599  0.1012
11524W        W28372  11.824   2.967  15.357 -0.0325 -0.2467  0.1832
11525W        W28373  14.829  16.170   1.093 -0.2762  0.0956 -0.0038
11526W        W28374   7.210   1.342   2.512 -0.0654  0.2171 -0.0549
11527W        W28375   8.547  15.171   0.126 -0.3368 -0.3146  0.0926
11528W        W28376   8.876   6.763   0.631  0.1131 -0.1399 -0.1852
11529W        W28377  11.945  13.368  11.400  0.0661  0.1479 -0.1504
11530W        W28378   6.916  16.727   0.386 -0.1845 -0.1318  0.3831
11531W        W28379   6.921  13.860  14.552 -0.1029  0.2385 -0.2216
11532W        W28380  12.916  16.174  11.491  0.1658 -0.1314  0.2741
11533W        W28381   2.548  16.627   1.199 -0.2538  0.2317  0.4131
11534W        W28382   7.448  13.779   3.709 -0.0735 -0.3307 -0.1975
11535W        W28383   9.781   9.188   1.112 -0.1980 -0.2462  0.1144
11536W        W28384  16.064   6.928   4.121 -0.0679  0.0129  0.1954
11537W        W28385  16.743  14.849   0.974  0.4751 -0.5039 -0.1103
11538W        W28386   1.441   8.593  12.498 -0.0032  0.1636 -0.0473
11539W        W28387  10.984   4.595   0.871  0.0991  0.1434  0.1838
11540W        W28388   8.322   4.358  16.224  0.0828 -0.0419 -0.0055
11541W        W28389   3.076  13.479   6.224  0.0292 -0.0566 -0.0715
11542W        W28390  15.103  11.136   2.641  0.0612  0.2476  0.0596
11543W        W28391  16.473   3.791  12.866 -0.3318  0.1868 -0.1309
11544W        W28392  15.504  11.324   0.333 -0.1601  0.3117  0.0076
11545W        W28393  15.199  11.065   1.608 -0.1204  0.1169 -0.0319
11546W        W28394   1.337  14.403   2.537  0.0970  0.2904  0.0753
11547W        W28395   6.524   0.758  11.946  0.1673  0.3506  0.1579
11548W        W28396  16.453   6.009   3.633  0.2191 -0.1350 -0.2430
11549W        W28397  15.211   3.892  11.125 -0.1745  0.2702  0.1348
11550W        W28398   7.679   6.391   3.327  0.1075  0.0343  0.0819
11551W        W28399   5.988   7.705  14.668 -0.1657 -0.2780  0.3275
11552W        W28400   7.580  11.906  14.131  0.0673  0.1629 -0.2709
11553W        W28401  15.302   0.271  10.995  0.3025 -0.0319 -0.0996
11554W        W28402   3.392  15.298   3.610 -0.0409 -0.1946 -0.0268
11555W        W28403   5.435  11.620   0.254  0.0194 -0.0675 -0.1061
11556W        W28404  12.199  16.496  14.019  0.0716  0.1865  0.1190
11557W        W28405  14.077   7.073   1.842  0.2995  0.0551 -0.0951
11558W        W28406   2.928   6.691  14.238 -0.1774  0.0986 -0.2644
11559W        W28407   2.687   2.879   3.137 -0.3145 -0.0593  0.1610
11560W        W28408  14.039   1.724  15.414  0.1505  0.1437 -0.1005
11561W        W28409   7.093   9.395  11.756 -0.2073 -0.0054 -0.4017
11562W        W28410   9.249  17.229  15.613 -0.0279 -0.0827 -0.0793
11563W        W28411   5.343  13.542  13.714  0.0828  0.0059 -0.1493
11564W        W28412  13.491  15.432  15.188  0.4752 -0.0690 -0.0188
11565W        W28413   9.240   8.050  15.445  0.2802 -0.0095 -0.1116
11566W        W28414   3.558  10.622   3.382  0.1362  0.2622 -0.0387
11567W        W28415   9.713  12.050  16.282 -0.0142  0.0437 -0.1592
11568W        W28416   0.070   7.277   3.390  0.0641  0.0542 -0.3664
11569W        W28417   1.420   3.540  13.879  0.2099  0.1755  0.0663
11570W        W28418   6.375  12.526   5.672  0.3423  0.0049 -0.0478
11571W        W28419   5.172   1.796   1.208 -0.1606 -0.0296  0.0060
11572W        W28420   5.473  10.172   2.506 -0.0265 -0.0279  0.0894
11573W        W28421  12.579   6.597  15.357 -0.2187  0.1681  0.1123
11574W        W28422   0.080  12.091   2.035 -0.0601 -0.1904 -0.1870
11575W        W28423   2.843   4.616  15.747 -0.0561 -0.1476  0.0190
11576W        W28424   0.317   2.340  15.660 -0.0286  0.1176 -0.0860
11577W        W28425   5.301   8.443  11.047 -0.0410 -0.0316 -0.1506
11578W        W28426   4.728   4.824   4.909 -0.2733  0.3686 -0.1772
11579W        W28427   7.992   1.009   3.042 -0.4066  0.2086  0.0658
11580W        W28428  10.798   7.102   2.864  0.0379  0.0940 -0.2274
11581W        W28429   0.018  16.791   2.113 -0.1530  0.0812 -0.2163
11582W        W28430  11.589   0.724  11.873 -0.0082 -0.2303 -0.0487
11583W        W28431   4.820  13.167  15.278 -0.2162  0.3213 -0.1050
11584W        W28432   7.010  15.476   5.769 -0.0786 -0.1883 -0.3450
11585W        W28433   2.718   5.650  14.729 -0.0471  0.0793  0.2565
11586W        W28434   4.834   3.913   3.339 -0.4537  0.2436 -0.0265
11587W        W28435  13.196   5.285   5.020 -0.0495  0.2684  0.0414
11588W        W28436   3.252   8.639  13.229 -0.1764  0.2455  0.2412
11589W        W28437   4.597   5.133  15.118  0.1301  0.3415 -0.2414
11590W        W28438  14.303   3.307  14.375  0.0041  0.1728 -0.2626
11591W        W28439   5.969   6.708  15.570 -0.2123  0.1046  0.2380
11592W        W28440   9.867  11.697  12.354 -0.0067 -0.1603  0.2027
11593W        W28441   2.314  16.184   1.023 -0.1543  0.2303  0.1587
11594W        W28442   3.413   7.919   3.022 -0.0079 -0.0549  0.0074
11595W        W28443  14.961   7.764  11.281 -0.0121  0.2793 -0.1292
11596W        W28444   4.430  16.076  13.946  0.0012 -0.0996 -0.0074
11597W        W28445   1.988   8.648  13.045  0.2316 -0.0452 -0.1098
11598W        W28446  14.273  10.442   3.079  0.1892 -0.0943  0.0460
11599W        W28447  11.930   3.419   5.169  0.1721  0.1231  0.0777
11600W        W28448   8.242   8.580   2.925  0.0719 -0.2555  0.0449
11601W        W28449   5.881   4.465  14.426  0.0160 -0.2089  0.2722
11602W        W28450   9.308   7.516   1.081  0.1960  0.1655  0.3033
11603W        W28451   3.277  11.012   1.668 -0.1117 -0.0730 -0.0296
11604W        W28452  15.220   3.645  12.815 -0.2072  0.1779 -0.2347
11605W        W28453   6.034   2.031  11.770  0.0013 -0.0253  0.0126
11606W        W28454   5.445   3.033   0.321  0.0353  0.0508  0.2974
11607W        W28455   1.946   5.191   4.886  0.0837 -0.2599 -0.1141
11608W        W28456   7.686  13.985   3.317  0.2554  0.1167  0.1239
11609W        W28457  10.041   8.773  14.652  0.1019  0.1011  0.5205
11610W        W28458   6.557  10.380   6.140 -0.3632  0.1841  0.2505
11611W        W28459  13.630   8.752   2.958  0.1312  0.0054 -0.1165
11612W        W28460   0.189   1.043   4.240  0.0771 -0.0607 -0.1753
11613W        W28461   7.017  10.194  15.719  0.2097  0.1636  0.0518
11614W        W28462   6.161   0.067  11.788  0.0938  0.0549 -0.4537
11615W        W28463  13.037  11.625   5.208  0.1384  0.1235 -0.1192
11616W        W28464   8.104   1.756  13.874 -0.5289 -0.2096 -0.1425
11617W        W28465  10.500   7.349  15.254 -0.0829 -0.1553  0.0955
11618W        W28466   7.955  16.954   4.430  0.0377  0.1850 -0.4395
11619W        W28467   1.224  13.062   4.535  0.1851  0.1913 -0.1331
11620W        W28468  12.595  13.743  15.980 -0.1064  0.1026 -0.0152
11621W        W28469   5.293   9.944   1.853 -0.0388  0.0626 -0.3511
11622W        W28470   4.762   5.771   1.145  0.3538  0.1000 -0.4733
11623W        W28471   8.364   3.392  11.732 -0.0218 -0.0995 -0.2193
11624W        W28472   3.974   4.682  14.219  0.1217 -0.1160  0.1490
11625W        W28473   5.623  16.232  15.940 -0.1889 -0.0656 -0.0266
11626W        W28474   7.644   5.037   5.179  0.1557  0.1021  0.4699
11627W        W28475  10.627   7.255  13.276  0.0592  0.1169  0.0091
11628W        W28476   8.006  11.793  11.329 -0.2234  0.1202  0.1985
11629W        W28477   8.786  15.522  11.008 -0.1907 -0.2942 -0.1228
11630W        W28478   6.114   6.088  13.459 -0.0448  0.0008  0.1331
11631W        W28479   8.700  15.377  12.214 -0.1499 -0.2218  0.1082
11632W        W28480   7.073  17.249  14.337 -0.0603 -0.1679  0.0023
11633W        W28481  12.118   6.704   3.383  0.2652  0.1399 -0.3325
11634W        W28482   5.441   0.472   1.910 -0.2996 -0.0362  0.0815
11635W        W28483   1.828  11.212  13.430  0.1992 -0.1738 -0.1227
11636W        W28484  12.145   7.664  15.745  0.0744 -0.1129  0.2701
11637W        W28485   8.080   7.659   4.853 -0.4327  0.0691  0.1024
11638W        W28486   9.263  13.656  10.701  0.0652 -0.2474  0.1468
11639W        W28487  17.010   8.944  13.168 -0.0105  0.1554 -0.0956
11640W        W28488  17.787   5.915   4.346 -0.2241  0.0627  0.1770
11641W        W28489   6.492   3.310   2.563 -0.0588 -0.1319 -0.2664
11642W        W28490  16.538   1.563  15.686  0.0536 -0.1143 -0.0337
11643W        W28491  15.873   5.485  13.616 -0.1827 -0.2117  0.1859
11644W        W28492  15.233   7.768   4.026 -0.2734 -0.0971 -0.1675
11645W        W28493   3.563   5.624  15.253  0.3075 -0.0277  0.1518
11646W        W28494  14.124  14.386   2.517 -0.0107 -0.0240 -0.0705
11647W        W28495   1.084   0.840   6.129  0.1354  0.1417  0.1096
11648W        W28496  15.181  12.210   2.795 -0.0553 -0.2737  0.0876
11649W        W28497   4.619   8.129  13.472  0.2965 -0.0765 -0.1979
11650W        W28498  12.273   1.677  13.279 -0.1791 -0.1447 -0.1278
11651W        W28499  11.104   3.163   4.568 -0.1442  0.3306  0.2586
11652W        W28500   0.920  10.157  11.260  0.0181  0.0708 -0.4022
11653W        W28501   4.060  13.278   2.254 -0.1107  0.2176 -0.0262
11654W        W28502  11.172  15.247   4.264 -0.1406 -0.1911 -0.0028
11655W        W28503  16.805  11.330   2.332  0.4628 -0.3201 -0.0662
11656W        W28504   7.133   7.942  13.724 -0.0154  0.2181  0.2168
11657W        W28505  11.337   2.025   1.355  0.1522  0.1133  0.0203
11658W        W28506   5.682  11.828  12.843 -0.0747 -0.0154 -0.1187
11659W        W28507   5.311   7.004   3.267  0.0451 -0.2056  0.2668
11660W        W28508   3.164  13.264  16.061 -0.2229  0.1777 -0.1714
11661W        W28509   3.277   3.262  15.207 -0.1998 -0.1058  0.1501
11662W        W28510  11.262  17.671   3.915 -0.1995  0.4819  0.0273
11663W        W28511   7.910  15.343   4.767  0.0270 -0.2347 -0.0928
11664W        W28512   6.636  15.083   4.009  0.0240  0.0451  0.0722
11665W        W28513  13.636  15.318  15.693 -0.0168 -0.0424  0.0077
11666W        W28514   4.988  13.177   3.171  0.3442  0.1523  0.0828
11667W        W28515  16.838   2.157   4.951  0.1892 -0.0845 -0.2701
11668W        W28516  12.608  11.940   2.830 -0.3279 -0.2860 -0.0909
11669W        W28517   3.803  10.639   0.680  0.0447  0.1745 -0.1430
11670W        W28518  10.910   0.371   1.695  0.0097  0.0621 -0.3830
11671W        W28519  16.701   8.120  14.452  0.2919 -0.0719  0.1718
11672W        W28520   7.488   5.790  16.409 -0.2750  0.1763  0.1895
11673W        W28521  13.548   8.062  15.243  0.0560  0.0442 -0.0870
11674W        W28522  11.910   8.894  15.825  0.0602 -0.1079  0.0402
11675W        W28523  16.147   0.706   4.330 -0.1145  0.3934 -0.1285
11676W        W28524   7.648  16.501  15.348 -0.0778  0.1828 -0.1953
11677W        W28525  13.575   3.538  15.593  0.0228 -0.2289  0.2212
11678W        W28526   3.831  17.871  11.131 -0.2103  0.0992 -0.0284
11679W        W28527   1.958   6.874  13.376 -0.1883 -0.2642  0.0224
11680W        W28528   4.534   5.986   0.465 -0.1294  0.2123  0.3326
11681W        W28529  16.206  10.969  13.268  0.0652  0.1720 -0.0725
11682W        W28530   5.174   2.443  16.090  0.0195 -0.3940  0.0691
11683W        W28531   5.042  15.690  12.742  0.3991 -0.1167  0.1946
11684W        W28532   0.935   0.818   1.466 -0.3507 -0.0007 -0.0475
11685W        W28533   2.432  13.151   2.376  0.1673  0.3387 -0.1099
11686W        W28534  10.985   2.192  13.264 -0.1319 -0.3207  0.0307
11687W        W28535   9.984  12.606   4.998  0.0343 -0.0793 -0.1775
11688W        W28536  14.138   3.989   2.851  0.0783 -0.0169 -0.0395
11689W        W28537  11.048   7.794   4.919  0.0757  0.0999  0.0753
11690W        W28538   9.659  10.411   2.589  0.1052 -0.0921 -0.1514
11691W        W28539   8.213  12.173   0.731  0.2056 -0.3006  0.1603
11692W        W28540   4.409  12.429   0.918  0.0964 -0.1846  0.1401
11693W        W28541  17.652   9.657  12.008  0.0940  0.1948 -0.0006
11694W        W28542   3.654   3.508  16.117  0.2183 -0.2700  0.1872
11695W        W28543  17.560  11.188   2.963 -0.4189  0.1108  0.0446
11696W        W28544   1.808  15.591  12.021  0.0992  0.0406  0.2872
11697W        W28545   8.588  11.914  11.945 -0.1915 -0.0921  0.1308
11698W        W28546   5.283   4.255   5.361  0.1595 -0.1816  0.0697
11699W        W28547   2.233  14.358  13.308  0.1969  0.2530 -0.0367
11700W        W28548  13.909  11.155  14.669 -0.0220 -0.2756 -0.0066
11701W        W28549  10.730   7.129   2.320 -0.1658  0.1188  0.0998
11702W        W28550  11.799  11.213   3.049 -0.0825  0.1256 -0.0797
11703W        W28551   0.135   3.219  12.600 -0.0360 -0.1397 -0.1034
11704W        W28552   6.295  10.318  11.659 -0.0236  0.1760 -0.1627
11705W        W28553   6.344  10.536  12.712  0.1263  0.1691 -0.0866
11706W        W28554  17.012   0.961  14.697  0.2981  0.1610  0.2306
11707W        W28555   9.253   6.602  16.292 -0.2277 -0.2691 -0.1060
11708W        W28556   1.494   4.034  12.437 -0.2104 -0.0258  0.1042
11709W        W28557   1.418   2.287  14.153 -0.1945  0.0349  0.0396
11710W        W28558   6.814   3.360   0.136 -0.1470  0.0993 -0.0622
11711W        W28559   7.624   5.070  13.917  0.1142 -0.2362 -0.0440
11712W        W28560  14.718  14.058  14.074 -0.1282  0.0041  0.0197
11713W        W28561   3.543   9.347   3.017 -0.2330 -0.0910 -0.5271
11714W        W28562   8.977   1.772  11.690 -0.1528  0.0848 -0.2144
11715W        W28563   8.962  13.662  12.118  0.0975  0.2340 -0.1003
11716W        W28564   2.563   1.616  13.512 -0.0602  0.1207  0.1135
11717W        W28565   0.158   4.165  12.157 -0.0536 -0.1718  0.2630
11718W        W28566   8.362  16.816  13.883 -0.1297  0.2524 -0.0017
11719W        W28567  16.685   3.542  13.836  0.2565 -0.0836  0.2179
11720W        W28568  17.419  12.123  16.464 -0.0253 -0.2964 -0.1638
11721W        W28569  16.846   4.987   1.154  0.0057  0.0067  0.2265
11722W        W28570   0.834   8.304  11.980  0.1582 -0.1413 -0.0532
11723W        W28571   0.638   5.636   6.378  0.3527  0.0483  0.3098
11724W        W28572   3.354  11.693   0.503 -0.0154 -0.2372  0.0301
11725W        W28573  11.609  15.084   1.465  0.0033 -0.1032  0.1654
11726W        W28574  17.484  11.184   2.451 -0.1256 -0.0619 -0.0057
11727W        W28575   5.369   0.180   4.360 -0.0674 -0.1808 -0.0489
11728W        W28576  14.624   7.345   0.467 -0.0800 -0.1009 -0.1984
11729W        W28577   2.856   5.458   1.857 -0.0783  0.1768 -0.2885
11730W        W28578   0.638   9.096   3.714  0.0202  0.1240 -0.0618
11731W        W28579  12.358   2.811   0.276 -0.3594  0.2698 -0.0980
11732W        W28580  10.582  15.990   6.136 -0.0872 -0.1228 -0.0809
11733W        W28581  16.138  17.290   1.438  0.2153 -0.2043  0.1458
11734W        W28582   5.512   4.143  14.188 -0.1136 -0.0237 -0.3480
11735W        W28583  14.259   6.522   5.420  0.3213  0.2158 -0.1027
11736W        W28584  16.571  15.301  14.861  0.0771  0.2011  0.1339
11737W        W28585   2.562   9.432   4.110 -0.1791 -0.3330 -0.4013
11738W        W28586  12.977  12.595   0.156 -0.3129 -0.0925 -0.2708
11739W        W28587  13.281  14.441   4.100  0.0505  0.2086 -0.0296
11740W        W28588   0.889  13.977  10.985  0.1167 -0.1247 -0.0074
11741W        W28589  14.747   6.822   3.813  0.0891  0.0215 -0.3676
11742W        W28590  12.141  13.437   2.802 -0.1167 -0.1729 -0.0237
11743W        W28591   7.801   1.554   1.531  0.0672 -0.0874 -0.2501
11744W        W28592  17.105   1.094   3.379  0.1047  0.0127 -0.1557
11745W        W28593   9.134   9.410  13.122  0.1414 -0.1205 -0.0658
11746W        W28594  12.071   7.671   3.279 -0.0528 -0.3041  0.1107
11747W        W28595  11.958  12.027   4.230 -0.0957 -0.2662 -0.0689
11748W        W28596   9.873   8.939   3.348 -0.3026  0.0490 -0.0032
11749W        W28597   5.626  13.270  12.658  0.4106  0.1347  0.0499
11750W        W28598  14.272   7.248   3.028  0.0386 -0.0620  0.1435
11751W        W28599   3.507  13.721   1.149 -0.0906  0.1247  0.4348
11752W        W28600  17.663   6.521   2.256 -0.1345 -0.2371 -0.0816
11753W        W28601   2.705  14.306   4.742 -0.1785  0.2021 -0.1323
11754W        W28602  11.310   8.339  14.253 -0.0784 -0.1584  0.0234
11755W        W28603  16.827   7.456  11.538  0.0448 -0.1873 -0.3023
11756W        W28604   5.935   2.910   1.118 -0.3000  0.0320 -0.2239
11757W        W28605   8.462   5.927   4.839 -0.0859 -0.1002  0.0937
11758W        W28606  17.234  16.353   1.509  0.0117 -0.0640  0.1405
11759W        W28607  13.816   3.689  14.281  0.3097  0.2632  0.0232
11760W        W28608  16.245  16.996   2.223 -0.5067  0.1367 -0.0745
11761W        W28609  14.306   0.629  11.463 -0.1087  0.1198  0.0266
11762W        W28610   8.958  12.884  14.564 -0.0785 -0.2836  0.0228
11763W        W28611   7.557  11.912   0.413  0.1653 -0.0643 -0.1243
11764W        W28612  13.811  16.941  14.774 -0.0330  0.0178  0.1299
11765W        W28613   1.579  11.107   0.253  0.0493  0.2814  0.3080
11766W        W28614   1.376  10.824  11.807  0.1530  0.2332 -0.2121
11767W        W28615   3.545  12.650   2.857 -0.1007  0.1029 -0.2123
11768W        W28616   3.166   4.588  13.722  0.0327  0.1883 -0.0651
11769W        W28617   4.987  12.319   2.598 -0.1843  0.0756 -0.3220
11770W        W28618   6.893   7.415   0.795 -0.1802 -0.2136 -0.0227
11771W        W28619   1.004   9.711  14.927  0.1284 -0.0450 -0.1416
11772W        W28620   6.721   1.682  11.897 -0.0100  0.2226  0.2255
11773W        W28621   8.326   0.944  15.621  0.1291 -0.2927  0.0526
11774W        W28622   9.402   8.136  11.609 -0.0385  0.0208 -0.0231
11775W        W28623   4.530  15.346  10.848  0.1552 -0.0380  0.2223
11776W        W28624   1.352   2.718  12.807  0.0597 -0.0375 -0.0786
11777W        W28625  11.280   5.085   4.118  0.5413  0.1465 -0.1389
11778W        W28626  14.166   6.810  14.009 -0.0134  0.3116  0.0405
11779W        W28627   2.688   9.916  14.955  0.0458 -0.2763 -0.3441
11780W        W28628   3.491  17.637  14.627  0.5327 -0.0952 -0.0215
11781W        W28629   2.379   7.190   1.406 -0.1170 -0.0224  0.1216
11782W        W28630   9.785   9.734  12.042 -0.0397  0.1056  0.0023
11783W        W28631   7.942   9.365  11.418 -0.1409 -0.0515  0.2939
11784W        W28632  13.188   7.542   0.402 -0.1123 -0.0516  0.0507
11785W        W28633   7.553  12.488   3.605  0.3796  0.1137 -0.0787
11786W        W28634   0.318  13.757  10.302 -0.3034 -0.0944  0.1404
11787W        W28635  11.116  13.452  11.747 -0.1371  0.0198  0.0594
11788W        W28636   5.066   3.602   4.546  0.0150 -0.3307 -0.0930
11789W        W28637  11.791   9.596   0.134  0.2168  0.0925 -0.0085
11790W        W28638  13.368   9.894   3.871  0.0325  0.2361 -0.4023
11791W        W28639   2.652   5.375  13.981 -0.0163 -0.1370 -0.1052
11792W        W28640   5.773  11.409  16.428 -0.0661  0.0674  0.0895
11793W        W28641   3.530   7.130  15.329 -0.0335 -0.2630  0.1533
11794W        W28642  10.208   1.130   2.446 -0.0824 -0.2229 -0.1965
11795W        W28643   1.272  15.038   1.908  0.1146 -0.2963 -0.3326
11796W        W28644  16.360  15.879   0.071  0.0718  0.0112  0.0932
11797W        W28645  16.039   9.642  12.580 -0.1847  0.1569 -0.1217
11798W        W28646  10.606  14.875   3.593 -0.2414  0.2906 -0.0553
11799W        W28647   5.921   6.831   0.342 -0.2098 -0.1793  0.0804
11800W        W28648   4.810  12.567   0.013 -0.0022  0.0296  0.0573
11801W        W28649  11.983   2.640  14.957 -0.1263 -0.0308 -0.3739
11802W        W28650   5.210  14.885   0.389 -0.2944 -0.1530  0.1978
11803W        W28651  16.413   0.154  10.305  0.2697 -0.2256  0.0389
11804W        W28652  13.254  17.252   1.195  0.0683 -0.3977 -0.1444
11805W        W28653  12.985  10.712   4.928  0.0283 -0.1268  0.1401
11806W        W28654   4.757   7.518  11.921 -0.0093 -0.0172  0.1036
11807W        W28655   4.217  16.532   5.286 -0.0617 -0.3399  0.1567
11808W        W28656  12.215  15.730   1.223  0.3016 -0.0795  0.2549
11809W        W28657  10.109   3.969   1.384  0.0438  0.4171 -0.0423
11810W        W28658  15.617   3.928   4.585  0.0686 -0.1422  0.1169
11811W        W28659  14.132   0.248  15.648  0.0725 -0.0520  0.0105
11812W        W28660   7.224   6.798   4.510 -0.1163  0.0806  0.2026
11813W        W28661  16.128   2.523  15.554  0.1135  0.2023 -0.0858
11814W        W28662   5.320  11.681  14.205 -0.0030 -0.0840 -0.3384
11815W        W28663   3.553  14.783  15.067  0.1634  0.1518 -0.1340
11816W        W28664  15.901   4.304  12.694 -0.0163  0.1694  0.2199
11817W        W28665  13.070   8.854  12.674 -0.2652  0.0352  0.2000
11818W        W28666  15.517   6.375   1.753  0.1978  0.1800 -0.0958
11819W        W28667  16.594  14.823   2.959 -0.0146  0.0871  0.1544
11820W        W28668  14.881   8.069  13.971  0.0488 -0.1351  0.0078
11821W        W28669   3.615  13.409  12.666  0.2774 -0.0324  0.2631
11822W        W28670   1.221   6.849  15.333 -0.0916 -0.3184 -0.1467
11823W        W28671   5.773   2.929   4.590 -0.2779 -0.0934  0.1339
11824W        W28672  17.353   3.122   3.942 -0.0856 -0.1230  0.1370
11825W        W28673   4.646   6.991   4.985  0.1479  0.1292 -0.2598
11826W        W28674   7.466   2.910   3.127  0.0179  0.1004 -0.0762
11827W        W28675  17.488   9.789   5.274  0.0475 -0.0804 -0.1657
11828W        W28676   8.099   2.726   3.577 -0.2078  0.2441  0.1469
11829W        W28677  17.356   0.699  12.018 -0.3411 -0.2138 -0.2251
11830W        W28678  10.526  10.795   3.777 -0.0816  0.0550  0.0609
11831W        W28679   0.829  17.011   1.529  0.0408 -0.2418  0.0129
11832W        W28680  13.295   5.408   3.674  0.0496 -0.1473  0.0437
11833W        W28681   1.043   7.961  13.867  0.0357 -0.0969 -0.2670
11834W        W28682  15.343   1.495  13.316 -0.0841 -0.0372  0.1767
11835W        W28683  12.479   1.121  12.645  0.1355 -0.0787  0.1329
11836W        W28684   9.450   6.226   1.299 -0.1908 -0.2883 -0.1633
11837W        W28685  13.101   5.691  12.740 -0.1888  0.1825 -0.0278
11838W        W28686  14.503   2.211  14.762 -0.1036 -0.1040 -0.3083
11839W        W28687   2.035   9.398   4.185 -0.0956 -0.0858  0.1424
11840W        W28688  10.476   9.783   1.745 -0.5339  0.1872 -0.3240
11841W        W28689  13.226  16.698   4.381 -0.1854  0.0416 -0.1566
11842W        W28690   2.788   5.198   1.373  0.0359 -0.1928  0.0374
11843W        W28691  16.128  10.387   3.296 -0.0874  0.1382  0.1554
11844W        W28692   7.142  10.515   1.021  0.1430 -0.1041 -0.3024
11845W        W28693   4.720  13.653   2.152 -0.2199  0.1678 -0.0575
11846W        W28694   4.819  17.165  15.300  0.0408 -0.0255  0.0717
11847W        W28695   6.073   2.949  11.531 -0.0024 -0.0121 -0.3302
11848W        W28696   6.353   4.317   2.955 -0.0181  0.0330 -0.1645
11849W        W28697  17.524   3.285  13.747  0.0690 -0.1120  0.0580
11850W        W28698  15.082   2.138   2.640 -0.1107 -0.1066  0.2480
11851W        W28699   9.149   1.335  14.263  0.0007 -0.0534 -0.0922
11852W        W28700  15.307  14.534  14.469  0.1959  0.1195 -0.0726
11853W        W28701  15.391   2.992   3.212 -0.0850 -0.1553 -0.1932
11854W        W28702   7.962   3.541   1.036 -0.1038 -0.0715 -0.1555
11855W        W28703   7.560  16.507   2.509 -0.1611 -0.0422 -0.0116
11856W        W28704   0.129   4.151  13.694 -0.2843 -0.0482  0.3826
11857W        W28705   4.114   8.573  12.597  0.0277  0.2849  0.2511
11858W        W28706  17.120   3.933  11.735  0.2839  0.1644  0.0537
11859W        W28707   0.653   0.974  11.502  0.0291 -0.1102 -0.0197
11860W        W28708   1.590  11.144   4.608 -0.0153  0.0800  0.1083
11861W        W28709  14.204  12.706  10.488  0.1767 -0.2765  0.0335
11862W        W28710   8.674  11.369  11.817 -0.0116  0.0705 -0.0849
11863W        W28711   0.690  17.809  16.382  0.0616 -0.0816  0.2138
11864W        W28712   3.118   6.562  12.694  0.2100  0.0064 -0.3118
11865W        W28713   1.360   4.456  13.409  0.2046 -0.0062 -0.0326
11866W        W28714  13.152   0.076  12.532  0.0895  0.1147  0.3429
11867W        W28715   1.538  13.351  15.755 -0.2243 -0.2589 -0.1611
11868W        W28716  12.624  13.612  12.082  0.1805  0.0765  0.1609
11869W        W28717  16.082  11.261   0.457 -0.0551  0.0505  0.2230
11870W        W28718  10.203  11.047   2.829  0.1350 -0.1419 -0.1456
11871W        W28719   2.287   2.631  12.919  0.0839  0.2689  0.1128
11872W        W28720  12.440  17.712   0.667  0.0116 -0.1634 -0.2744
11873W        W28721   5.601  17.545  15.775 -0.1350  0.2839  0.1092
11874W        W28722   6.347  15.134  15.015 -0.2051 -0.2232 -0.0880
11875W        W28723   3.726  13.126   3.723 -0.2736  0.3844 -0.3506
11876W        W28724  15.370   4.342  11.405  0.0020 -0.1048 -0.2494
11877W        W28725   9.313   0.231   1.479  0.0116 -0.0195 -0.1084
11878W        W28726  17.168   3.609   2.266  0.0752  0.2393 -0.0512
11879W        W28727  10.465  12.304   1.798  0.0632  0.0629  0.2559
11880W        W28728  13.384   8.271  15.671  0.0757  0.1329 -0.0811
11881W        W28729  17.547  10.233   1.508  0.0285  0.1689 -0.0734
11882W        W28730   1.768   8.935   5.154 -0.1471  0.0564  0.0362
11883W        W28731   2.985   7.807   1.110 -0.1923  0.0025  0.2748
11884W        W28732   4.629  11.456   1.456 -0.2007  0.1227 -0.3516
11885W        W28733  12.744   9.106  15.103 -0.0653 -0.0436 -0.2595
11886W        W28734  12.178   1.269  14.361  0.1218 -0.3291  0.0248
11887W        W28735   7.688  12.524  16.165  0.2734  0.0066 -0.2225
11888W        W28736   7.050  14.338   2.184 -0.0854 -0.0290  0.3366
11889W        W28737   2.651  16.195  14.468  0.1582 -0.2112 -0.2001
11890W        W28738   2.721   9.372   0.147 -0.1332 -0.1468 -0.0411
11891W        W28739   4.182  14.933   3.916  0.0629  0.3656 -0.0144
11892W        W28740   8.261   5.469  12.218 -0.3081  0.0494 -0.2181
11893W        W28741   7.815   5.600   2.781  0.3279  0.1212 -0.3457
11894W        W28742  17.842   8.960  13.919 -0.0564 -0.1367 -0.4754
11895W        W28743  16.177   0.542  15.242  0.1523 -0.0367  0.0489
11896W        W28744  17.645  13.642   0.892 -0.1169  0.0658 -0.1524
11897W        W28745   5.799   5.611  14.261 -0.2368 -0.1657  0.0767
11898W        W28746   0.007   4.670  16.371 -0.0188  0.1602 -0.1851
11899W        W28747  10.792  12.469   3.361 -0.2126  0.0902 -0.0296
11900W        W28748  10.727  15.695  12.842  0.1491  0.0358  0.0834
11901W        W28749   4.176   1.742   5.407  0.2327  0.1518  0.1567
11902W        W28750  17.781  12.756   5.927 -0.3777  0.0651 -0.2195
11903W        W28751  15.481   6.833  13.640  0.3381  0.2260 -0.1310
11904W        W28752   0.281  14.610  11.369 -0.0528 -0.0489 -0.1698
11905W        W28753   6.011   2.304  15.362  0.1345 -0.0804  0.0843
11906W        W28754  13.344  10.372  16.391  0.2480  0.0396 -0.0498
11907W        W28755  17.755   5.691   0.448  0.3036  0.2125  0.0414
11908W        W28756   8.032  12.049  13.852  0.0113 -0.0101  0.2608
11909W        W28757  10.134   1.819   0.636 -0.1509  0.0586 -0.0670
11910W        W28758  14.459  11.769  15.839 -0.4113 -0.0783 -0.1062
11911W        W28759   7.534   6.664   4.108  0.0609 -0.3827 -0.1532
11912W        W28760  17.624  16.790   0.803 -0.0493  0.0413  0.2210
11913W        W28761  16.847   9.562   4.537 -0.1790 -0.2651 -0.3678
11914W        W28762  10.419  12.809  11.757 -0.0297 -0.1465  0.0719
11915W        W28763   9.989  13.931  15.385  0.1731 -0.0988  0.0809
11916W        W28764   8.815  15.170  14.332 -0.0698  0.6037 -0.0344
11917W        W28765   8.167  12.700  15.183 -0.1337 -0.0838  0.1958
11918W        W28766   2.613  12.478  11.965 -0.2434  0.0888 -0.1945
11919W        W28767   9.811   5.255  14.431 -0.0278 -0.2122 -0.1438
11920W        W28768   9.666  16.998  16.467 -0.0336 -0.0296  0.2308
11921W        W28769   8.883  15.185   1.590 -0.0958  0.1126 -0.0613
11922W        W28770   9.501  16.633  13.854 -0.1853 -0.1484 -0.0932
11923W        W28771   9.818  13.837  13.756  0.2200 -0.0085  0.2119
11924W        W28772  16.658   4.823  11.422 -0.2247  0.0697  0.1179
11925W        W28773   1.960   3.667   4.447 -0.0574 -0.1492  0.0240
11926W        W28774   5.264   2.833   4.015 -0.1866  0.2421  0.0600
11927W        W28775   0.531   1.118   0.793  0.0053 -0.1871 -0.1476
11928W        W28776  10.459  16.019  12.052  0.0167 -0.1799  0.1752
11929W        W28777  14.973   3.976   3.096 -0.1076 -0.1637 -0.0664
11930W        W28778  17.484  17.227   2.884 -0.0003 -0.0546 -0.0695
11931W        W28779  10.796   1.474   3.747  0.0235  0.0545  0.0647
11932W        W28780   7.382   4.182  14.184 -0.2364 -0.0568  0.0600
11933W        W28781   8.848  10.321   5.692  0.0591 -0.3656 -0.0091
11934W        W28782   3.477  10.542  11.132  0.1000  0.0262  0.0390
11935W        W28783   2.840   6.357  13.450 -0.1410  0.0249 -0.3392
11936W        W28784  10.541   2.414   1.158 -0.1101  0.3643 -0.0909
11937W        W28785  12.171   1.431  12.886  0.1706 -0.0744  0.1043
11938W        W28786  14.770  11.414   3.408 -0.0868  0.4184  0.1537
11939W        W28787  13.498  17.176   3.538  0.1103  0.0245  0.0169
11940W        W28788  13.457   0.903   1.295 -0.2009 -0.0857 -0.1285
11941W        W28789  17.356   1.802  15.909  0.1509  0.0481  0.0380
11942W        W28790  15.057  14.025   1.926  0.0823  0.0812  0.0027
11943W        W28791   9.293   7.131  16.184  0.0791  0.3191 -0.2448
11944W        W28792  17.358  12.173   2.707 -0.0234  0.1240  0.0889
11945W        W28793   1.059  17.637   5.247  0.1578 -0.0997 -0.3622
11946W        W28794   8.302   0.693  16.118  0.0184  0.3476 -0.4683
11947W        W28795   6.695   7.351  16.209 -0.1884 -0.0279 -0.0220
11948W        W28796  16.483  15.555  10.576 -0.2511 -0.0060 -0.1355
11949W        W28797   9.943   5.883   0.666 -0.0824  0.0655 -0.1504
11950W        W28798  16.104  16.106   4.213 -0.2707  0.3579  0.1058
11951W        W28799  14.281   2.294  14.347 -0.2209 -0.0773  0.0309
11952W        W28800   7.392   2.238  11.871 -0.0826  0.0152  0.0626
11953W        W28801   4.102  14.442   4.218  0.2025 -0.1236  0.1434
11954W        W28802   6.150   7.952   5.179  0.0266 -0.0395  0.1277
11955W        W28803   2.998   8.254  14.909  0.0026  0.0389  0.1026
11956W        W28804   6.237   9.485  15.594  0.0135  0.0538 -0.0390
11957W        W28805   5.933  17.261   2.067 -0.3604 -0.1236 -0.1040
11958W        W28806  13.195  15.126   0.007  0.0014 -0.0889  0.1978
11959W        W28807  12.317   9.005  15.475  0.1265  0.2060  0.0383
11960W        W28808   7.994  11.188   2.504 -0.0528  0.2614 -0.0002
11961W        W28809   4.501  14.366  13.288 -0.1669  0.1616  0.2054
11962W        W28810  10.850   1.306   2.347 -0.1334  0.3037  0.0980
11963W        W28811   6.141  16.493  11.716  0.0597  0.1996  0.0659
11964W        W28812   7.236   8.813   5.121 -0.3688 -0.0583 -0.1627
11965W        W28813  17.074   5.897   2.775 -0.0099  0.0271 -0.0416
11966W        W28814   5.466  13.391   2.403 -0.0034  0.3052  0.0694
11967W        W28815  11.985  10.305   1.310  0.0439  0.1166  0.0405
11968W        W28816   5.732  11.772   5.592 -0.2596  0.0699 -0.0771
11969W        W28817  13.733   2.471   2.063 -0.0161  0.2775 -0.0646
11970W        W28818  14.224  17.792   3.061  0.3284 -0.0528  0.1426
11971W        W28819  12.631   0.587   4.957  0.0075 -0.0842  0.2274
11972W        W28820  14.301   2.713   2.575 -0.2761  0.0924 -0.2101
11973W        W28821   5.107  15.243   4.218 -0.1072  0.1915  0.2392
11974W        W28822  11.483   0.151  11.907 -0.0879 -0.3056  0.0661
11975W        W28823  15.246  13.141  11.248 -0.1897  0.0587 -0.2355
11976W        W28824  10.078   1.970   2.941 -0.0001  0.0991  0.0526
11977W        W28825   1.498  12.759  14.025 -0.0279  0.0298 -0.0053
11978W        W28826  17.726   2.993   2.737 -0.1457 -0.0603 -0.1301
11979W        W28827  14.978   2.113   4.700 -0.0616 -0.3792 -0.0893
11980W        W28828  15.509   4.578  12.449 -0.1314 -0.0553  0.0621
11981W        W28829   5.959  13.079   5.865  0.1780 -0.0705  0.0486
11982W        W28830   3.130   3.546   5.449  0.1541  0.0467 -0.2251
11983W        W28831  13.339  10.666  11.391 -0.1294 -0.4896  0.3637
11984W        W28832   9.268   4.352   5.202  0.0859 -0.1078 -0.0198
11985W        W28833   7.040  16.742   1.229  0.2362 -0.1477  0.0953
11986W        W28834  15.244  11.958  15.862 -0.1126  0.0941  0.0540
11987W        W28835  13.087   4.364  15.183 -0.1570 -0.0920 -0.0083
11988W        W28836  11.594   6.031   2.379  0.1905  0.0873  0.1256
11989W        W28837  17.280  12.534   2.380 -0.2813  0.0159 -0.1752
11990W        W28838   9.302   5.437   1.301  0.0986 -0.1841  0.0803
11991W        W28839   3.913  16.263  10.763 -0.1950 -0.0657  0.4077
11992W        W28840   7.546   6.669  12.544 -0.2962 -0.0179 -0.2744
11993W        W28841   7.690  15.895  14.058  0.0365 -0.1057 -0.0701
11994W        W28842   4.473   3.082   2.047 -0.0314 -0.0906  0.0916
11995W        W28843   5.111   7.918  14.300  0.2267 -0.1325  0.0368
11996W        W28844  11.043   6.034  13.906 -0.1559  0.0970  0.2195
11997W        W28845  17.860   1.715  14.209  0.1649  0.0319  0.1672
11998W        W28846  16.529   1.029   3.707 -0.1447  0.0017  0.1308
11999W        W28847  11.722   3.866   4.842  0.0195 -0.5232 -0.0671
12000W        W28848  17.037  13.188   0.332 -0.1378  0.0885  0.3719
12001W        W28849   3.971   0.872   0.291 -0.0062 -0.1232  0.0661
12002W        W28850  12.521  16.731  15.397 -0.1082 -0.1060  0.5032
12003W        W28851  16.750   2.629   1.301 -0.1060  0.0756 -0.1293
12004W        W28852  10.158  14.375  12.284  0.0008 -0.0510  0.0935
12005W        W28853   0.680   7.638   4.343  0.2864 -0.0701  0.2583
12006W        W28854  10.970  15.369   1.310 -0.1675 -0.0807  0.1696
12007W        W28855  16.796  13.994   2.470  0.1255  0.2775 -0.2809
12008W        W28856  13.602   2.112  10.890  0.0529 -0.0937 -0.0330
12009W        W28857  16.705   5.425  12.120 -0.1118 -0.1574 -0.3119
12010W        W28858   9.307   2.516  15.713  0.1245  0.0623  0.3033
12011W        W28859   5.562   1.736  15.348  0.1664  0.0996  0.0132
12012W        W28860  14.608   4.861  11.641 -0.1042 -0.0811  0.0428
12013W        W28861   5.089   7.106  14.833 -0.1227 -0.2044 -0.1008
12014W        W28862  13.114  17.634   0.692  0.1575  0.3423 -0.0248
12015W        W28863   4.602   2.049  14.580  0.1827 -0.0290  0.0798
12016W        W28864   3.650  15.952   0.613  0.1275 -0.0984  0.2353
12017W        W28865  12.483  17.486   3.388  0.1295 -0.0266 -0.1574
12018W        W28866  17.092  13.070   2.155  0.0773  0.0156 -0.0261
12019W        W28867  13.435   7.162   5.805 -0.0547 -0.1420  0.3058
12020W        W28868  10.767   6.485   6.150  0.2623 -0.1236 -0.1055
12021W        W28869   9.752   4.948   3.123 -0.2082 -0.0972 -0.0670
12022W        W28870  16.538  13.384  12.762  0.0653 -0.1532 -0.0247
12023W        W28871   8.537   8.251  15.508 -0.1238 -0.0383 -0.2781
12024W        W28872   0.620  10.358  14.518 -0.1029 -0.1055  0.1494
12025W        W28873   9.512   6.430  11.598 -0.1106  0.1214  0.1733
12026W        W28874   3.870   3.870  15.721  0.0835 -0.0230  0.1253
12027W        W28875   1.240   7.099  14.274  0.1032  0.0104  0.2129
12028W        W28876  17.131   5.276  12.325 -0.0960  0.0597 -0.1011
12029W        W28877  15.252  12.180  11.918  0.0139 -0.1209  0.1789
12030W        W28878   0.382   2.029  16.069  0.2215  0.2071 -0.0032
12031W        W28879   9.750   1.309   2.386 -0.2580  0.0666  0.0603
12032W        W28880   4.798   2.516  11.490  0.1525 -0.0433  0.2266
12033W        W28881   2.083   5.988   4.692 -0.1904  0.1785  0.1261
12034W        W28882   4.539  14.004  11.355 -0.0491  0.0938 -0.3251
12035W        W28883  14.513   9.245  15.616  0.0159  0.2573 -0.0864
12036W        W28884   3.991  17.561  10.757  0.0403 -0.0006  0.2175
12037W        W28885   5.244  12.565  16.237 -0.1117  0.0673 -0.1647
12038W        W28886   2.702  15.779  12.070  0.0979  0.0888 -0.1302
12039W        W28887   8.121  13.435   0.503 -0.0359 -0.0662  0.2907
12040W        W28888  17.235  10.746  14.062  0.1317 -0.2646  0.1164
12041W        W28889   1.636  12.139   2.441 -0.0553 -0.1104  0.0217
12042W        W28890   0.478   0.043   1.941  0.0142  0.0659 -0.3673
12043W        W28891   0.119   9.136  13.473  0.0523 -0.0934  0.3802
12044W        W28892   0.520  16.594  14.710  0.2073 -0.1246 -0.2612
12045W        W28893  15.835  14.499   2.065  0.1627  0.0196 -0.0655
12046W        W28894   1.279  10.321  12.456 -0.0497  0.0346 -0.2519
12047W        W28895   5.243  13.203  15.463 -0.2645  0.0751  0.1237
12048W        W28896   0.669   4.878  11.645 -0.2237 -0.1370  0.0469
12049W        W28897  11.878  14.169   4.697 -0.3103 -0.1587  0.2934
12050W        W28898  10.008  11.818  12.953  0.0100  0.2277  0.0545
12051W        W28899   3.954  10.457  13.021  0.1931  0.1234 -0.1284
12052W        W28900  17.094   9.845  12.719 -0.1812  0.1186  0.1585
12053W        W28901   2.609   1.888   5.584  0.0286  0.1205 -0.3122
12054W        W28902   1.714  10.349   5.205  0.0412 -0.0827 -0.1852
12055W        W28903   4.171   6.795   4.840  0.4433  0.0460 -0.3823
12056W        W28904   2.026  16.889   3.863  0.0006  0.1943 -0.1952
12057W        W28905   0.705   5.324  12.791  0.3322  0.1872  0.0912
12058W        W28906  14.742  15.866  13.145  0.0854  0.1151 -0.0748
12059W        W28907   7.524   7.220   3.176  0.0309  0.0560  0.1724
12060W        W28908   2.306   0.779  12.987  0.0432 -0.1168 -0.0978
12061W        W28909   9.989   0.977   2.877  0.0315  0.0523 -0.0672
12062W        W28910   3.958  15.814  15.373  0.0620  0.0049 -0.0856
12063W        W28911   4.634   3.818  11.333 -0.0484 -0.0621  0.1841
12064W        W28912  11.391   7.375   5.075 -0.0391 -0.1755 -0.2714
12065W        W28913   0.554   2.749  16.063 -0.0861  0.0622  0.0107
12066W        W28914   1.792   0.990  13.525 -0.0411 -0.0734  0.0585
12067W        W28915  13.094   8.266  11.075  0.2524 -0.0373 -0.0836
12068W        W28916   9.044   6.535   6.088 -0.1486  0.3227  0.2188
12069W        W28917  17.793  17.821   2.474 -0.0875 -0.2529  0.1780
12070W        W28918   4.479  12.538  12.087 -0.1661 -0.0058 -0.0249
12071W        W28919   0.870  16.619   5.624  0.2014 -0.3203 -0.0249
12072W        W28920  15.881   5.416   2.510 -0.1244 -0.1121  0.2074
12073W        W28921  17.642  10.143  11.245  0.0918 -0.0172 -0.2454
12074W        W28922   6.204   8.013   2.735 -0.1147  0.2013  0.1220
12075W        W28923   8.822  14.001  11.817 -0.1545 -0.3233  0.0357
12076W        W28924   1.064  12.107  12.291  0.4580 -0.3302 -0.2763
12077W        W28925  13.564   1.810  11.330 -0.2053 -0.1780  0.3092
12078W        W28926   9.284  14.901  10.744  0.1802  0.2954  0.1596
12079W        W28927   1.357   1.108  13.253 -0.0507 -0.0836  0.1899
12080W        W28928  14.342   5.426   2.006 -0.0120 -0.0501 -0.0431
12081W        W28929  13.284  16.532  11.730 -0.4095  0.0358 -0.1276
12082W        W28930  11.264  14.635   5.239 -0.0491  0.1997  0.1699
12083W        W28931  17.470   2.732   5.173  0.0710  0.2930 -0.1961
12084W        W28932   2.716   7.649  15.496  0.1866 -0.0879 -0.0903
12085W        W28933   1.212   2.328  15.334  0.1743  0.4085  0.1485
12086W        W28934   5.297   4.999  14.844  0.0290 -0.0843  0.2420
12087W        W28935  14.888  11.747  10.828 -0.1368 -0.0087  0.2202
12088W        W28936   0.072  10.325   4.456  0.0668  0.1067 -0.1033
12089W        W28937  12.636  15.984  12.821 -0.2186 -0.2094  0.0049
12090W        W28938   0.607  15.380  14.448  0.1106  0.4249  0.2805
12091W        W28939   8.805  12.649   4.477  0.4190 -0.2222  0.5345
12092W        W28940   6.454  13.823  11.484  0.0746 -0.0125 -0.0317
12093W        W28941  15.081   4.946  13.407  0.0308 -0.2377 -0.1148
12094W        W28942   1.763   7.725   3.259  0.1808 -0.0612  0.2017
12095W        W28943   2.526  15.248  11.243  0.2725  0.1454 -0.1275
12096W        W28944  13.608   3.742   2.733 -0.1733  0.2927 -0.0340
12097W        W28945   1.678   9.792   0.356  0.1707 -0.1532 -0.0723
12098W        W28946  16.496  11.066  12.852 -0.2689 -0.1646 -0.1316
12099W        W28947   4.508   9.518  14.204 -0.2774  0.0517  0.3748
12100W        W28948   0.306  15.309   0.018  0.0298 -0.3146 -0.1013
12101W        W28949   4.156   0.575   4.221 -0.1610 -0.0519  0.0815
12102W        W28950  13.978  11.694  14.637 -0.1723 -0.0619  0.1113
12103W        W28951   1.783   3.810  11.437 -0.2112  0.0254 -0.0656
12104W        W28952   2.010  13.638  12.289 -0.0760  0.0810 -0.2970
12105W        W28953   6.472   2.732   2.454 -0.1663 -0.1373  0.0334
12106W        W28954   2.930   9.491  12.519 -0.0568 -0.0252  0.0721
12107W        W28955   5.750   3.018  10.705 -0.2610 -0.2659  0.0105
12108W        W28956   6.728   0.026  12.979 -0.2280  0.0817  0.1919
12109W        W28957  16.008  14.194  14.539  0.3673 -0.0733 -0.2190
12110W        W28958   4.370  11.706   2.255 -0.0823  0.0191  0.0003
12111W        W28959   9.515   4.947  12.490  0.3714  0.1334  0.0443
12112W        W28960   7.261  15.802  14.825 -0.1436  0.1226  0.2766
12113W        W28961  16.045  16.947  15.225  0.0026 -0.0815 -0.2071
12114W        W28962  14.573   4.826  12.140 -0.1046 -0.0507  0.1258
12115W        W28963   9.474  11.967  12.238 -0.0873 -0.0004  0.1272
12116W        W28964  13.648   4.518  12.479 -0.1414  0.0408 -0.1952
12117W        W28965   6.966   0.816  11.758 -0.1125  0.2991 -0.1122
12118W        W28966   2.095  11.449   4.610 -0.3472 -0.0319 -0.2529
12119W        W28967   5.260   5.851  11.674 -0.0382  0.1372 -0.1013
12120W        W28968   7.384  15.229  15.745 -0.0074  0.0354 -0.4082
12121W        W28969   7.386   1.723   1.244 -0.1307 -0.0127  0.1151
12122W        W28970   2.813  14.730   3.387 -0.2991 -0.0943  0.2460
12123W        W28971   6.502   0.507   2.925  0.0792 -0.1190 -0.0659
12124W        W28972   9.296  10.206   5.696 -0.0193 -0.2647 -0.0162
12125W        W28973   5.036   4.088  15.004  0.1999  0.1554  0.0505
12126W        W28974   1.745  13.490   3.792  0.2237 -0.0344  0.0176
12127W        W28975   3.253  15.776   2.385 -0.0820  0.1728  0.1506
12128W        W28976  14.956   2.937  14.831  0.0488 -0.1422 -0.2642
12129W        W28977   7.334   3.302  16.067  0.4738  0.0277 -0.1873
12130W        W28978  11.586   5.657  11.809  0.3318 -0.1474 -0.0600
12131W        W28979   6.895   5.423  14.204  0.3283 -0.2744 -0.0195
12132W        W28980  16.642  11.629  16.101  0.1290  0.2760 -0.0959
12133W        W28981   8.660   8.772   4.133 -0.0011  0.0058 -0.0394
12134W        W28982   8.467   0.404  14.448  0.0733  0.2141  0.3322
12135W        W28983  11.577  12.811  12.888 -0.0067  0.1023  0.1356
12136W        W28984   5.777  11.159  14.519  0.1121 -0.2641 -0.2423
12137W        W28985  16.032  16.854  10.916 -0.0130 -0.1611  0.1718
12138W        W28986   8.397  10.974  14.493 -0.0716  0.0478  0.0675
12139W        W28987  14.732   3.605  14.352  0.0416 -0.1809  0.1086
12140W        W28988   9.577   8.694   4.172 -0.0636  0.0385 -0.2836
12141W        W28989   4.611  15.878   5.958  0.2131  0.1663 -0.0113
12142W        W28990   8.260   3.554   4.504  0.0908 -0.1782 -0.0361
12143W        W28991  13.507   5.259  11.993 -0.2144 -0.0286 -0.0042
12144W        W28992   7.647   6.071   5.114  0.3802 -0.0481 -0.1967
12145W        W28993  16.644  11.788   1.939 -0.0085  0.1909  0.0520
12146W        W28994  14.886  14.417  12.480 -0.1901 -0.2318  0.1451
12147W        W28995  11.501   9.149   0.034 -0.1993  0.2291  0.1764
12148W        W28996  10.324   6.048   1.020 -0.1757 -0.0557 -0.1272
12149W        W28997  12.966   8.895  12.153  0.2638  0.2152 -0.1881
12150W        W28998  15.035   1.696  12.095  0.2773  0.1726 -0.1393
12151W        W28999  11.717   2.518  13.738 -0.2682 -0.0569 -0.0006
12152W        W29000   8.197   0.162  12.020 -0.1379 -0.0929 -0.0135
12153W        W29001   0.816  13.966  12.202 -0.3743  0.3732  0.0834
12154W        W29002   4.706   5.811   3.687 -0.0599  0.0559  0.0087
12155W        W29003   3.817   5.401  12.462  0.0381  0.3423  0.1412
12156W        W29004  16.406  15.961  12.132  0.0042  0.2156 -0.1515
12157W        W29005  13.786   4.716   1.807 -0.0663 -0.3784 -0.0407
12158W        W29006   2.853   1.801   1.476 -0.0312 -0.1856 -0.3115
12159W        W29007   5.442  14.161   3.620 -0.0639  0.0025  0.1071
12160W        W29008   6.740  15.664   5.388 -0.2072  0.0323 -0.4023
12161W        W29009   2.810   9.956  12.264 -0.1193  0.0684  0.2539
12162W        W29010  16.233  16.524  12.776  0.1383  0.0638  0.4534
12163W        W29011  17.162   9.627   2.511 -0.2526 -0.4014 -0.1172
12164W        W29012  14.197  17.414   4.682 -0.0963  0.2369  0.1299
12165W        W29013   2.316  14.050  14.853 -0.2396  0.1942 -0.2184
12166W        W29014  11.912   5.637   3.147 -0.3872 -0.1816  0.0524
12167W        W29015   7.489   0.788  10.976 -0.1310  0.1033 -0.1701
12168W        W29016   9.075   0.548   4.255 -0.0985 -0.3904 -0.0410
12169W        W29017  13.716   6.546  13.735  0.0262  0.0298  0.1097
12170W        W29018   0.020  16.742  14.697  0.4607  0.0435  0.0932
12171W        W29019   8.702   0.762   4.656  0.0693  0.3996  0.1624
12172W        W29020   0.799   9.106   2.422 -0.0701  0.0292 -0.0324
12173W        W29021   4.938   6.029   4.128 -0.0628  0.1831 -0.2402
12174W        W29022   7.480   9.518   3.949 -0.1968  0.2262 -0.1057
12175W        W29023   7.997   9.358   2.202 -0.3531  0.2240  0.0916
12176W        W29024  13.049  14.490   1.983  0.0186 -0.1316 -0.0391
12177W        W29025  12.908   7.012  16.158  0.1228 -0.1537  0.3223
12178W        W29026   7.901   6.803   5.540  0.1338  0.2524 -0.4286
12179W        W29027   3.466  10.523  15.457  0.1931 -0.1497 -0.1732
12180W        W29028  14.567  16.789   4.032  0.0764 -0.0127 -0.1765
12181W        W29029   7.431   2.257  13.453  0.1138 -0.1731  0.2635
12182W        W29030   0.264  10.016   2.501 -0.1382 -0.1742  0.2602
12183W        W29031   6.617   3.599  12.247 -0.3198 -0.0999  0.0260
12184W        W29032  16.277   3.264   4.447 -0.5085 -0.5837  0.0965
12185W        W29033  13.284   4.062   3.066  0.1470  0.1131  0.2508
12186W        W29034   3.335   4.747   5.649  0.1343  0.1026  0.1028
12187W        W29035   7.322  13.800  13.237 -0.0674 -0.1311 -0.4407
12188W        W29036   8.211   7.796   0.800  0.1332 -0.1709 -0.1558
12189W        W29037   0.260   3.618   3.728  0.0411  0.3677  0.5127
12190W        W29038   2.346  16.848   2.626  0.3055 -0.1908  0.3641
12191W        W29039   6.637   4.819   2.566 -0.0090  0.3309  0.1737
12192W        W29040   2.213   9.228   3.216 -0.0974  0.2475 -0.1256
12193W        W29041   0.220   0.023  13.646  0.3373 -0.1083 -0.0103
12194W        W29042  15.202  15.540  13.190 -0.0335  0.2429  0.0249
12195W        W29043   4.749  15.809  11.803 -0.1430  0.0932 -0.1846
12196W        W29044   1.829   7.550  15.553  0.2125 -0.2550  0.1753
12197W        W29045   7.872  16.731  16.455 -0.0766 -0.0748  0.0342
12198W        W29046   9.795   1.673   5.571  0.0196  0.0278 -0.1078
12199W        W29047  14.877  16.783   3.616 -0.0287  0.0010  0.1781
12200W        W29048   2.463  12.004  11.810 -0.1548  0.0349 -0.2531
12201W        W29049   8.923  10.838   3.962  0.3165  0.2740 -0.1240
12202W        W29050   2.151  15.733  14.826 -0.1360  0.2334  0.0059
12203W        W29051   9.990   8.368   1.920 -0.0619  0.3703  0.4030
12204W        W29052  10.737   9.672  15.822  0.1850  0.0146  0.1597
12205W        W29053   5.128  13.559   0.694 -0.0262 -0.1481  0.4863
12206W        W29054   2.021  10.951   2.400  0.0455 -0.0838  0.2542
12207W        W29055   8.479  13.106  13.833  0.0097  0.0611  0.1604
12208W        W29056  16.505  13.428  12.137 -0.1483  0.1940 -0.0063
12209W        W29057  17.323  16.225  15.745 -0.1124  0.4656 -0.0281
12210W        W29058  17.591   8.451  15.777  0.0280 -0.0531 -0.1984
12211W        W29059   4.410   3.859  11.983  0.1840  0.0175 -0.0815
12212W        W29060  15.723  12.276  13.344 -0.0491  0.2356  0.3196
12213W        W29061   3.158   9.467   4.617  0.0245  0.0216  0.3199
12214W        W29062  15.107   1.975   4.237  0.0742 -0.2999  0.0134
12215W        W29063   5.620   8.104   4.350  0.1461 -0.3213  0.0659
12216W        W29064  13.318  14.041  14.338 -0.1605 -0.1234 -0.0102
12217W        W29065   4.274  17.822  16.453  0.0957 -0.3684  0.2686
12218W        W29066   3.094   7.430  14.991  0.1458  0.1140  0.1755
12219W        W29067   6.404  17.205  13.108  0.2060  0.0458 -0.0505
12220W        W29068  16.656   1.946  13.562 -0.2568 -0.3494  0.0309
12221W        W29069   9.275   1.086   4.990 -0.2571 -0.0477 -0.0352
12222W        W29070   0.722   0.535  15.681  0.1020  0.1814 -0.1128
12223W        W29071  11.626   8.932  15.015  0.0148 -0.2842  0.1614
12224W        W29072   1.758   0.737  16.259 -0.0255  0.0609  0.0948
12225W        W29073   4.224   6.676   2.638 -0.2983  0.1337 -0.1107
12226W        W29074  11.741   0.327   3.160  0.1892 -0.0256 -0.0307
12227W        W29075   5.736  11.706  11.066 -0.1497 -0.2861  0.0454
12228W        W29076   4.714  11.646  12.631 -0.0167 -0.0148  0.1067
12229W        W29077   0.534  17.177   1.156 -0.5027  0.0066 -0.0390
12230W        W29078  12.187   5.214  12.166 -0.0632 -0.0921 -0.0329
12231W        W29079  11.222  15.039  14.185 -0.0837 -0.1336 -0.0628
12232W        W29080   4.364   9.817  10.671  0.0140  0.1109 -0.2088
12233W        W29081   6.816  15.479  12.040 -0.0201  0.0986  0.1023
12234W        W29082   9.360   2.506   4.881  0.0706  0.1820 -0.1459
12235W        W29083   8.250   0.302   4.024 -0.0332  0.0997 -0.3014
12236W        W29084  13.015   7.504  10.012 -0.1817  0.0011 -0.1660
12237W        W29085  16.553  12.381  14.542  0.1860  0.0970 -0.1387
12238W        W29086  17.205   7.530   3.822 -0.1314  0.1683  0.0584
12239W        W29087   5.908  12.811   4.966 -0.1305  0.3703 -0.0303
12240W        W29088   9.287  14.130   5.697 -0.0296  0.4268  0.0042
12241W        W29089  11.510   9.738   5.087  0.1797 -0.0558  0.0804
12242W        W29090   1.487   7.303  15.205  0.1033  0.1628  0.0904
12243W        W29091   9.804  11.639   4.506 -0.1515 -0.1086  0.3760
12244W        W29092   0.458   6.999   1.095 -0.1584 -0.0745 -0.1727
12245W        W29093   7.903  13.002   1.694 -0.1286 -0.0193  0.0338
12246W        W29094   7.530  13.057   4.428  0.1473 -0.0340 -0.3595
12247W        W29095   6.924   5.614  15.238  0.1359  0.3354 -0.3041
12248W        W29096   2.103   9.885  12.385  0.1020 -0.1394 -0.1307
12249W        W29097  14.217   3.203  12.577  0.2345 -0.0343  0.2338
12250W        W29098  16.801  14.040   3.970 -0.4645  0.0501 -0.1693
12251W        W29099   9.252   0.033   5.024  0.1196 -0.1677 -0.2221
12252W        W29100   5.966  15.727   5.092 -0.2257 -0.0579 -0.0006
12253W        W29101  13.184  16.757   3.414 -0.0507 -0.0614 -0.2195
12254W        W29102   4.013   1.130   0.903  0.3870  0.0763  0.1817
12255W        W29103   6.084   0.021  13.653 -0.0417 -0.1062  0.0654
12256W        W29104  15.263   5.239  14.677 -0.1259 -0.0508  0.0242
12257W        W29105   1.733   5.766   4.116 -0.1205 -0.1501 -0.1537
12258W        W29106  13.406   2.535  13.158 -0.0743 -0.1822 -0.2794
12259W        W29107  16.567   7.588   2.061  0.1740  0.1420  0.0756
12260W        W29108   9.318   0.621   5.785 -0.0035 -0.1827 -0.0483
12261W        W29109  11.799   0.931  15.124  0.2291 -0.0970  0.2256
12262W        W29110  17.320   9.125   2.503  0.1640 -0.0543 -0.0952
12263W        W29111  15.538   7.798  16.195 -0.0429  0.4450 -0.0087
12264W        W29112   0.504   6.901  14.209 -0.1646 -0.2806  0.0254
12265W        W29113  11.055   1.088   4.673  0.2277  0.1872  0.0058
12266W        W29114   1.140   3.429  16.268  0.1875 -0.1777 -0.1653
12267W        W29115   7.586  16.333   2.055 -0.0148  0.2202 -0.2232
12268W        W29116   4.883  12.067   3.022  0.1524  0.1179  0.0065
12269W        W29117  14.766  15.023  11.229  0.1657 -0.0549  0.1159
12270W        W29118   0.473  16.788  13.723  0.0168  0.1356 -0.0654
12271W        W29119   5.052   5.304   1.434 -0.2609  0.0793  0.0386
12272W        W29120   1.304   4.914  16.178  0.2660  0.1299 -0.1114
12273W        W29121   7.826   4.018  11.893  0.2644  0.0746  0.1171
12274W        W29122   3.673   4.334   0.501  0.1641 -0.2338  0.0791
12275W        W29123  16.049   6.551   0.819 -0.2186 -0.3742 -0.0540
12276W        W29124   3.036   7.209   3.928  0.0172  0.0331  0.1836
12277W        W29125   8.121  14.465  14.956  0.1582 -0.2362  0.1507
12278W        W29126  10.209   7.231  14.862 -0.0338  0.1094  0.0597
12279W        W29127   7.961  16.153  13.284 -0.1870  0.3933  0.1151
12280W        W29128  17.333   4.118   3.969 -0.0620  0.2169  0.1852
12281W        W29129   3.105  17.317   3.441  0.1603  0.0370 -0.0386
12282W        W29130  14.997   3.088   5.256 -0.1031 -0.2053 -0.0816
12283W        W29131  14.258  14.859  16.167  0.0717 -0.0404 -0.1501
12284W        W29132   2.785   1.685  12.566  0.0868  0.1066 -0.1513
12285W        W29133   3.486   1.280   5.387 -0.0879 -0.3413  0.1449
12286W        W29134   5.671   5.945   1.768  0.1210 -0.0979  0.0678
12287W        W29135  17.814   8.289   0.129 -0.2592  0.1255 -0.1969
12288W        W29136  17.364  10.551   1.879 -0.0826  0.2504 -0.0851
12289W        W29137  16.552   8.667  12.457  0.1316  0.0115 -0.0653
12290W        W29138   8.626  12.987  16.031 -0.1722 -0.0489 -0.0593
12291W        W29139   5.433  11.489  11.444 -0.0487 -0.0259 -0.3593
12292W        W29140   3.733   9.263  12.806 -0.1084 -0.0565  0.1269
12293W        W29141  11.895   3.959  12.378 -0.0280  0.0724  0.0717
12294W        W29142   6.511   5.609  11.738  0.4421 -0.2316 -0.0701
12295W        W29143  15.513  17.274  12.477  0.3473  0.0890  0.2542
12296W        W29144   6.438  10.752   0.332 -0.0943  0.1575 -0.0913
12297W        W29145   4.272  12.795   6.049 -0.0417  0.1112  0.0758
12298W        W29146  10.886  15.256  15.438  0.0147 -0.0950  0.1150
12299W        W29147   2.661   3.850  16.380  0.3188  0.1872  0.0015
12300W        W29148   1.382  17.664  11.514 -0.3580  0.3083  0.2300
12301W        W29149  16.054   7.953  12.115  0.1589 -0.1324  0.0696
12302W        W29150  11.305   3.058   1.633 -0.0212  0.1088 -0.0389
12303W        W29151   9.810   3.694  14.572 -0.2018  0.3441  0.2567
12304W        W29152   2.578   2.336  16.003  0.2536  0.0520 -0.0051
12305W        W29153   9.532   5.098  15.103 -0.0927  0.0650 -0.1251
12306W        W29154  17.252   5.069   3.718 -0.3392  0.1540  0.1933
12307W        W29155  10.416  12.573   3.669 -0.0195 -0.1128  0.0862
12308W        W29156  12.326  13.766  12.503 -0.3241 -0.0790  0.0336
12309W        W29157  13.613   7.040   0.855 -0.0736  0.1156 -0.2021
12310W        W29158   9.633  15.228   3.702 -0.2026 -0.3051  0.1778
12311W        W29159   5.389   2.483   3.214  0.0840 -0.1276  0.1719
12312W        W29160  11.798   3.274   1.473  0.2065 -0.1251  0.1241
12313W        W29161  14.761   9.686  11.454  0.0054 -0.0614  0.2039
12314W        W29162  12.599   3.371  15.943  0.0162 -0.1431 -0.2614
12315W        W29163  17.260  14.019  13.924 -0.1025  0.1192  0.0879
12316W        W29164   8.413  14.664   1.956  0.0040  0.1478  0.0627
12317W        W29165  13.782   4.211   0.679  0.3970 -0.1506 -0.3035
12318W        W29166  14.616   0.826  11.820  0.0824 -0.2589 -0.1492
12319W        W29167  12.712  10.958  16.092 -0.0166 -0.1763 -0.1293
12320W        W29168   5.021   3.261  12.530  0.1331  0.2588 -0.0865
12321W        W29169  12.971   6.554   1.119 -0.3032  0.1197 -0.1958
12322W        W29170  12.255   8.522  15.704  0.3248 -0.1145  0.0322
12323W        W29171   7.449   0.484  13.199  0.1567  0.1550 -0.0836
12324W        W29172  11.368  13.056  15.665  0.1115  0.0458 -0.0189
12325W        W29173   7.129  14.163   2.676  0.0055  0.2016 -0.1407
12326W        W29174   3.238  10.652  11.894  0.0837  0.0236  0.1090
12327W        W29175  15.376  16.409  12.069  0.1255  0.2304  0.0478
12328W        W29176   8.983   3.344  14.264 -0.1846  0.2596 -0.0393
12329W        W29177   3.132  15.757  12.363 -0.4662 -0.1436  0.2829
12330W        W29178  15.600   2.580   4.041  0.0397  0.1114  0.0807
12331W        W29179   8.557  16.657  12.202  0.2142 -0.0342 -0.0033
12332W        W29180   8.233   0.016  13.526  0.0011  0.3742 -0.1565
12333W        W29181   8.375  15.367  13.461 -0.0866 -0.0636 -0.4451
12334W        W29182  13.934   3.607  12.423 -0.2917  0.1581  0.0755
12335W        W29183   0.321  12.561  13.430  0.0266 -0.0712  0.0444
12336W        W29184  15.449  14.448  15.107  0.2586 -0.0408 -0.2572
12337W        W29185   6.904   2.334  12.042 -0.0036  0.2261 -0.1309
12338W        W29186   0.824  17.563   1.386 -0.0066 -0.1746 -0.0677
12339W        W29187   9.927   5.418  16.076  0.2069  0.1516 -0.1351
12340W        W29188   2.107   2.795  15.553 -0.2302 -0.1396  0.3509
12341W        W29189   3.811   8.256   4.487 -0.1149  0.1494 -0.0615
12342W        W29190   8.627   7.510   2.357  0.3596 -0.0973  0.0436
12343W        W29191   4.594   8.805   3.350 -0.1723  0.2340 -0.0658
12344W        W29192  13.334  15.090  14.045  0.0113  0.0696 -0.0718
12345W        W29193  16.911   9.945   2.806 -0.0313  0.0043  0.0305
12346W        W29194   0.220   3.172  11.599 -0.1206 -0.1100 -0.0119
12347W        W29195   7.316  16.376   1.682  0.1549 -0.1810  0.0006
12348W        W29196   7.669   2.676  13.249 -0.1375  0.1416 -0.0360
12349W        W29197  17.866   5.854   3.278 -0.1547  0.1897 -0.0570
12350W        W29198  10.939   9.834   0.384 -0.2202  0.0062  0.4453
12351W        W29199   4.947  11.574   2.838 -0.0336  0.1966 -0.2514
12352W        W29200   5.209  12.648  13.257  0.1252 -0.0315 -0.0113
12353W        W29201  15.567  17.520   3.502 -0.0275  0.1534 -0.2711
12354W        W29202   2.528  13.905   1.736 -0.2860 -0.3280  0.1621
12355W        W29203   8.467  16.051   0.272 -0.0643 -0.1859  0.1305
12356W        W29204   3.427   8.707  14.953  0.0758  0.0765 -0.0782
12357W        W29205  13.262  14.210   2.317  0.1999 -0.0271 -0.1043
12358W        W29206   8.842   5.987   4.410  0.0755  0.0300  0.1373
12359W        W29207  14.684   4.927  11.125  0.1056 -0.1213 -0.1031
12360W        W29208   0.604   8.750   0.543 -0.1186  0.0826  0.1360
12361W        W29209  13.243   7.738  11.950  0.0460 -0.2500  0.2735
12362W        W29210   8.999   9.178  12.300  0.3505 -0.1834 -0.1198
12363W        W29211   1.146   9.467  16.091 -0.0223 -0.2336 -0.5015
12364W        W29212   4.392  12.588  13.615  0.0369 -0.0869 -0.4347
12365W        W29213   1.093  13.117   1.529  0.0779 -0.0232  0.0658
12366W        W29214   4.214  12.139   4.938  0.0842  0.0051 -0.1017
12367W        W29215   2.356  15.187  12.645  0.0635  0.2293 -0.1361
12368W        W29216   8.855   5.991   1.874  0.0883  0.0712 -0.0319
12369W        W29217  14.604   0.834  15.917 -0.0149  0.0757 -0.1943
12370W        W29218   2.327  17.121   0.986 -0.1729  0.2183  0.1143
12371W        W29219  16.078  13.379  14.501  0.3622 -0.0602  0.1648
12372W        W29220   2.951  10.718   0.021 -0.1528 -0.1624  0.1680
12373W        W29221   7.792   1.583   2.884 -0.0070 -0.0007 -0.4046
12374W        W29222  17.020  14.203   4.414  0.1829  0.0220  0.0426
12375W        W29223  17.507   3.533   1.896  0.0209  0.3007 -0.0639
12376W        W29224   3.385   1.735  12.339  0.3309  0.2028 -0.1223
12377W        W29225   1.868   5.413   0.930  0.1710  0.1681 -0.1198
12378W        W29226  13.477   1.279  14.942 -0.2527 -0.0072 -0.5420
12379W        W29227  15.733  11.146  14.643 -0.2313 -0.1287 -0.0161
12380W        W29228   2.347  12.714   1.474  0.0978 -0.2642 -0.2976
12381W        W29229   4.973   5.854  14.981  0.3156  0.5393 -0.1044
12382W        W29230  11.598  13.959   2.572 -0.0702 -0.2394  0.0731
12383W        W29231   1.671   2.026  13.458  0.2365 -0.2777 -0.0451
12384W        W29232   4.697  17.594   1.184 -0.1935  0.3031 -0.1365
12385W        W29233  11.292   3.541  13.332 -0.1777 -0.0254  0.0906
12386W        W29234  15.640  15.369  13.296 -0.1535  0.0866  0.2874
12387W        W29235  15.128  16.524  13.443 -0.0038 -0.2186 -0.0745
12388W        W29236  14.576  13.078  13.697 -0.1445 -0.3368 -0.2574
12389W        W29237   7.773   7.295  13.702 -0.1264 -0.0494 -0.1862
12390W        W29238   7.809  11.539  13.784  0.2533 -0.1305 -0.0121
12391W        W29239  12.334   9.429  15.167 -0.1962  0.1145  0.2633
12392W        W29240  16.359   3.926  13.365  0.2075  0.0681 -0.0113
12393W        W29241   7.385   9.438  14.802  0.1076  0.0311  0.0258
12394W        W29242  14.912  13.115  12.124  0.1182 -0.0788  0.1175
12395W        W29243   9.002  15.575  12.713 -0.0576 -0.1317  0.1256
12396W        W29244  16.891  13.185  12.428 -0.1447  0.0541 -0.1763
12397W        W29245   7.552  17.548   0.490 -0.1108 -0.4860  0.3330
12398W        W29246   5.584  14.764   1.971  0.0021  0.0058  0.0749
12399W        W29247  16.436   1.277   0.658  0.0711 -0.2633 -0.0729
12400W        W29248  10.550  16.067   4.218  0.4027  0.0306  0.0886
12401W        W29249   2.022  11.853   0.994 -0.0222 -0.0313  0.0755
12402W        W29250  12.706   3.406  11.534  0.0797  0.2578  0.0539
12403W        W29251   6.366   5.736  13.851 -0.0309 -0.1514  0.0264
12404W        W29252  12.603   0.300   4.560 -0.1286 -0.2618 -0.2469
12405W        W29253  10.177  15.472  15.511  0.0056 -0.0437  0.3751
12406W        W29254   3.732  10.485   3.830  0.0807 -0.0073 -0.1380
12407W        W29255   3.654  11.474   0.893  0.0279  0.0373 -0.1098
12408W        W29256  15.792   8.014   3.681 -0.4991 -0.2942 -0.0146
12409W        W29257  15.175   1.416   2.152  0.0766 -0.2845  0.0819
12410W        W29258   0.843  14.121   2.396  0.0690 -0.0626 -0.0694
12411W        W29259   2.545   6.177   4.058 -0.1114 -0.0849 -0.0357
12412W        W29260   0.028   4.543  11.848 -0.2754  0.1668  0.0425
12413W        W29261   3.405   2.595  13.380 -0.1603 -0.4746  0.1155
12414W        W29262  12.528  12.609   2.921  0.0857 -0.0396 -0.0308
12415W        W29263  13.822  11.156   1.414 -0.2510 -0.1033 -0.0643
12416W        W29264   0.775  11.693   4.448 -0.3010  0.0326 -0.3121
12417W        W29265  12.362   9.350  16.216  0.0473  0.2145  0.2933
12418W        W29266  15.304   9.685  10.594  0.1394  0.1950 -0.0208
12419W        W29267  11.014  14.354   0.446 -0.0477 -0.3456 -0.1416
12420W        W29268   5.134  13.773  14.097 -0.0761 -0.1491 -0.0825
12421W        W29269   4.867  16.924   6.420  0.2552 -0.2411 -0.3345
12422W        W29270   5.551  10.075   0.784  0.1636  0.5411  0.4546
12423W        W29271   8.038   7.681  10.804  0.2746  0.1278 -0.2342
12424W        W29272   0.967  15.671  11.938 -0.0622 -0.0785 -0.0500
12425W        W29273  11.497   3.498   3.983  0.3071  0.1750 -0.0599
12426W        W29274  11.170   4.392   1.854 -0.0706 -0.2687  0.0855
12427W        W29275   5.589  10.668  11.482  0.0924 -0.0605 -0.0738
12428W        W29276  16.399   3.497  12.483 -0.0456  0.0555 -0.0336
12429W        W29277  15.930   6.445  11.930  0.1155  0.0520  0.1854
12430W        W29278   8.932   6.294  12.558 -0.1211 -0.3923  0.1949
12431W        W29279   2.878  14.091   2.035 -0.2398  0.0247  0.2805
12432W        W29280   2.675   7.972  13.581  0.1112 -0.3090  0.2028
12433W        W29281  14.362   8.122   3.422 -0.0408 -0.1509 -0.1297
12434W        W29282   1.550  12.139   1.097 -0.0017 -0.1213 -0.0034
12435W        W29283   2.740   2.665  12.688  0.2851  0.3556 -0.2545
12436W        W29284  17.000  11.455  12.790  0.1065 -0.0439 -0.0827
12437W        W29285  12.140   0.360  14.006 -0.0847 -0.1699 -0.0920
12438W        W29286   5.849   3.883  14.585 -0.0964 -0.0404  0.0914
12439W        W29287  15.607  15.921  16.007  0.0044  0.1268 -0.4250
12440W        W29288  13.809  11.702   1.378 -0.1602  0.0216  0.0190
12441W        W29289  14.974   2.577   5.517  0.0444 -0.2040 -0.1465
12442W        W29290   4.115  13.118   5.028  0.0715 -0.0069  0.2063
12443W        W29291  17.071   6.402   4.481 -0.0874  0.2445  0.1304
12444W        W29292  10.331   0.399  16.285  0.2088  0.0491 -0.3126
12445W        W29293   7.601   3.958  13.763  0.1314 -0.0185  0.0452
12446W        W29294   8.029  12.793  11.167 -0.4601  0.0517  0.0815
12447W        W29295   0.783   1.393   3.801  0.2347  0.0710 -0.0986
12448W        W29296  17.066  16.417   0.196  0.0813 -0.1309  0.1635
12449W        W29297   2.095   3.519   1.719 -0.1237 -0.0550 -0.0746
12450W        W29298   3.898   7.434   4.129 -0.2187 -0.2637 -0.2847
12451W        W29299  17.490   7.624  16.084  0.1351  0.1474  0.0571
12452W        W29300  12.547  10.789  15.203  0.1316  0.0507 -0.5206
12453W        W29301   6.116  16.171  15.991 -0.2657  0.0423  0.3293
12454W        W29302   4.553   2.634  12.857  0.1199  0.0775 -0.0460
12455W        W29303   6.285   7.068   0.017  0.3233 -0.0279 -0.2432
12456W        W29304  14.501  13.949   2.751  0.1884  0.0461 -0.0047
12457W        W29305   8.405  14.279   1.394 -0.1570 -0.0029  0.1523
12458W        W29306   1.447  12.254   0.430 -0.0230  0.1145 -0.0641
12459W        W29307   3.473   0.386  10.242 -0.3175  0.0029  0.1881
12460W        W29308   6.213   1.220   1.824 -0.0944  0.0811  0.2008
12461W        W29309   7.591   4.877   4.486  0.0905 -0.1608 -0.1084
12462W        W29310   8.583   7.951  12.460 -0.0122 -0.2308 -0.0585
12463W        W29311   3.118   2.820  12.339 -0.1844  0.3273  0.0313
12464W        W29312   1.500   5.305  13.268 -0.0173 -0.0160 -0.0921
12465W        W29313  12.401   9.264   2.340 -0.0971  0.0164 -0.1540
12466W        W29314  12.862   9.843   1.677 -0.2746 -0.2439 -0.0369
12467W        W29315   8.457   4.482   4.091  0.4397 -0.0393  0.0438
12468W        W29316   4.910   8.237   4.963  0.1957  0.0292  0.0127
12469W        W29317  16.728   8.175  11.705  0.0080  0.0090 -0.1187
12470W        W29318   3.343  11.089  15.413  0.0170 -0.1115 -0.1897
12471W        W29319   5.321   5.879   3.002  0.1214 -0.0120  0.1120
12472W        W29320  15.905   1.854   2.439  0.0330 -0.3413 -0.1247
12473W        W29321   4.210  17.316   2.560 -0.0058 -0.1734 -0.1361
12474W        W29322  12.529  17.291   0.098  0.2982  0.2296  0.1160
12475W        W29323   9.678   2.581  12.744  0.1872  0.2475  0.1871
12476W        W29324   7.286  11.934   0.885 -0.2680  0.0269  0.2719
12477W        W29325  16.158  12.595  10.603 -0.0222  0.1947  0.5579
12478W        W29326   3.299  14.851   3.499  0.2725  0.2118  0.0767
12479W        W29327  13.935   6.421  15.707  0.1315 -0.0699 -0.0227
12480W        W29328   7.465   4.823  14.372  0.1988  0.3131 -0.0921
12481W        W29329  12.010   1.014  11.935  0.3459 -0.2270  0.0515
12482W        W29330   3.689  11.143   2.690 -0.0270 -0.0782  0.0773
12483W        W29331  11.868  16.348   2.088 -0.0999  0.0107 -0.0982
12484W        W29332  15.640  13.039  11.700 -0.3339 -0.0314 -0.1886
12485W        W29333  11.049  16.748   4.289  0.0449  0.1034 -0.1558
12486W        W29334   7.290  11.613  13.691  0.0234 -0.1375  0.1367
12487W        W29335   0.271  11.630  14.432  0.1272  0.0263  0.1672
12488W        W29336  10.790  14.867  16.271 -0.2826 -0.0974 -0.1312
12489W        W29337   2.283  16.684   0.246  0.0110 -0.3114 -0.2327
12490W        W29338   7.010   6.730  15.627 -0.2471 -0.0895  0.0629
12491W        W29339   9.330  11.015   2.510 -0.4372 -0.2381 -0.2448
12492W        W29340  15.628   9.569   5.374 -0.2883  0.2306  0.0755
12493W        W29341   7.870   2.852  15.194  0.0897  0.1634  0.3446
12494W        W29342  15.840  16.897   1.566  0.0577  0.5045  0.1510
12495W        W29343  13.205  15.999   2.135  0.1244  0.0918 -0.0565
12496W        W29344  10.115   0.191  10.412 -0.3567  0.1774  0.1886
12497W        W29345  11.986   4.316  13.187 -0.2098 -0.2428 -0.0618
12498W        W29346  16.902  17.718  15.645 -0.2345 -0.2318  0.1578
12499W        W29347  17.381   2.400   3.450 -0.0069  0.1304 -0.2061
12500W        W29348   1.293  16.460   0.994 -0.0044  0.0832  0.0061
12501W        W29349  12.830   9.243   0.488 -0.5030  0.1207 -0.1030
12502W        W29350  12.807   8.299   4.424  0.1355 -0.1267  0.3283
12503W        W29351   4.209  10.013   3.851 -0.4454 -0.2692 -0.1220
12504W        W29352   5.716   0.586  12.308  0.1540 -0.1720 -0.0570
12505W        W29353  16.570   3.243  12.894 -0.4486 -0.0367  0.0577
12506W        W29354  16.964  10.787  11.780 -0.2078 -0.1665 -0.1896
12507W        W29355  13.655  12.418  10.931 -0.0108  0.0031 -0.0612
12508W        W29356   2.015   3.434  16.161 -0.0560 -0.2510  0.1155
12509W        W29357   1.110   3.178  10.502 -0.1146  0.1065 -0.0803
12510W        W29358   7.173  16.595  12.391  0.1715 -0.1298  0.0801
12511W        W29359  10.251  15.523   0.774  0.0094 -0.1574  0.0086
12512W        W29360   9.587  17.273  15.144 -0.1762 -0.3322  0.5449
12513W        W29361  11.688   8.198  16.402  0.1046 -0.2171  0.2059
12514W        W29362   0.856  16.660   2.557  0.1336 -0.0227 -0.1199
12515W        W29363  13.895   7.684  16.053 -0.1211  0.0326 -0.2444
12516W        W29364   1.404   7.134  12.543  0.4199  0.0725 -0.0719
12517W        W29365   2.253   4.736  12.209 -0.0448 -0.0735 -0.4367
12518W        W29366   3.800   6.909  11.525  0.3690  0.0350 -0.2557
12519W        W29367   0.004   8.936  12.953 -0.2261  0.2960 -0.1592
12520W        W29368  16.704   6.025   1.542  0.0257  0.2028  0.1279
12521W        W29369   8.538  15.901  15.577  0.5167  0.2735 -0.1974
12522W        W29370   0.983  10.944   0.161 -0.2340 -0.2664  0.1274
12523W        W29371  12.890  10.401  11.324 -0.2787  0.2500  0.0938
12524W        W29372  14.278  11.220  15.787  0.0498  0.1258  0.2216
12525W        W29373   4.495   8.535   0.314 -0.1634  0.2353  0.1216
12526W        W29374   2.017  12.558  12.008 -0.2641  0.0086  0.1517
12527W        W29375   0.985  17.423   0.946 -0.1294 -0.3034  0.1755
12528W        W29376   8.193  15.266   4.394 -0.0676 -0.3845 -0.2229
12529W        W29377  16.663  16.282  13.620 -0.2094  0.2059  0.2776
12530W        W29378   6.873   7.852   1.131  0.1111 -0.1858 -0.1010
12531W        W29379  11.061  15.868  12.331  0.2347  0.1474  0.0615
12532W        W29380  10.530  11.616  12.133  0.1286  0.1718 -0.1295
12533W        W29381  14.319   5.806   0.747 -0.1905  0.5619  0.1943
12534W        W29382  10.936  15.597   4.995  0.0379 -0.1889  0.2351
12535W        W29383   4.830   9.599  13.147  0.0302  0.4768  0.0231
12536W        W29384   7.143   1.659   3.901  0.1567  0.0807 -0.0980
12537W        W29385  12.587   3.991   2.100 -0.1617  0.1735 -0.3212
12538W        W29386   8.256   6.325   3.356 -0.0976  0.1395 -0.1925
12539W        W29387   7.027  15.028   3.624  0.3490  0.2347 -0.1718
12540W        W29388  16.458  11.580  15.552  0.1093  0.0934 -0.1503
12541W        W29389   8.588  13.072   5.143  0.1249 -0.2268  0.2618
12542W        W29390   4.925   3.892   1.061  0.1622 -0.2952  0.0069
12543W        W29391   8.927  11.714   0.955 -0.1278 -0.1135  0.0049
12544W        W29392   4.815   4.957  16.084 -0.0906  0.1074  0.0509
12545W        W29393   1.438  15.479  12.881 -0.1294  0.1060  0.0062
12546W        W29394   6.444   9.872   5.436 -0.1244 -0.2937  0.3586
12547W        W29395   4.512   2.476  12.377 -0.0306  0.1760  0.0069
12548W        W29396  11.344  12.302   1.083  0.1677  0.3356  0.0636
12549W        W29397   1.713  16.887  16.016  0.0849 -0.1621 -0.1346
12550W        W29398   8.933   8.970  12.899  0.1468  0.0007  0.0103
12551W        W29399   9.845  13.203   2.467  0.3919 -0.1627 -0.0733
12552W        W29400  10.905  17.279  15.959 -0.4208 -0.0949  0.0489
12553W        W29401  12.294  17.858   1.128 -0.1383 -0.0517 -0.0416
12554W        W29402  12.979   8.117  14.617  0.2240  0.0281  0.2434
12555W        W29403  15.524  11.653   2.960  0.4157  0.2368 -0.0205
12556W        W29404  12.292   9.141   5.944 -0.0376 -0.1674 -0.2602
12557W        W29405  16.881  10.466  15.492  0.1325 -0.0155 -0.0875
12558W        W29406   6.671   5.870   1.858 -0.0527 -0.0163  0.4994
12559W        W29407  10.847   6.019  11.686 -0.0498  0.1112  0.5048
12560W        W29408   6.538   6.807  15.414  0.1429  0.1607 -0.0307
12561W        W29409   0.645  15.716   1.417  0.1031 -0.3016  0.0920
12562W        W29410   3.016   2.009   3.203 -0.3820  0.1619 -0.2770
12563W        W29411  10.027  16.034   4.260 -0.1072 -0.0366  0.0528
12564W        W29412   6.336   4.757   1.421 -0.3030 -0.3596 -0.1066
12565W        W29413  10.524   5.176   3.024 -0.1494 -0.1219 -0.1278
12566W        W29414   7.288  12.184   1.730 -0.0086 -0.0760 -0.1606
12567W        W29415   8.547  10.604  12.563 -0.0694 -0.2379 -0.0258
12568W        W29416  12.901   6.789   1.580  0.2683  0.1316  0.0136
12569W        W29417  15.535   7.993  14.654 -0.0307  0.0035  0.1018
12570W        W29418  11.125   7.146  15.446  0.1306 -0.0277  0.4106
12571W        W29419   0.441   1.059  13.082 -0.0333  0.1050  0.1692
12572W        W29420  17.675  15.775   2.618 -0.1669 -0.1743 -0.0474
12573W        W29421   0.064   0.784   3.767 -0.1883 -0.2937 -0.1203
12574W        W29422   4.855  13.923   0.518  0.3103  0.0398  0.1562
12575W        W29423  15.043  17.453  15.160 -0.0121 -0.0469  0.1979
12576W        W29424  10.409   1.896   3.325 -0.2223  0.1211  0.0559
12577W        W29425  17.822   8.119  12.551 -0.3286  0.2272 -0.0305
12578W        W29426   6.821   6.654   1.438 -0.0799 -0.1167  0.0148
12579W        W29427   6.368  17.064  11.483  0.5047 -0.0766 -0.2618
12580W        W29428   6.436  10.095   3.625 -0.1696  0.0602 -0.2943
12581W        W29429   9.648  12.193   2.268  0.1134 -0.3884 -0.0620
12582W        W29430   6.982   5.868   3.776 -0.0283  0.1494  0.0212
12583W        W29431   3.923   8.062  14.776  0.2777 -0.0975 -0.0819
12584W        W29432   5.218   0.139   0.720 -0.1855  0.0541  0.0259
12585W        W29433  11.372  13.182  13.160 -0.0804  0.0027 -0.0149
12586W        W29434   0.129  16.998  12.707  0.1201 -0.0540 -0.0992
12587W        W29435   4.427  11.321   3.165  0.3922  0.0475  0.0698
12588W        W29436  17.028   3.053  12.589  0.0788  0.1136 -0.1613
12589W        W29437  12.681   5.717   1.579 -0.1463 -0.1677  0.0984
12590W        W29438   0.249   0.356   5.248  0.0052 -0.0703 -0.0054
12591W        W29439   1.507  10.961   1.177 -0.0948 -0.2509 -0.1019
12592W        W29440   1.937   5.319   3.567  0.0370 -0.1326  0.2557
12593W        W29441  13.973   2.192  15.685  0.2550  0.0014 -0.0674
12594W        W29442   6.933   3.788   5.000  0.0213  0.0679 -0.1460
12595W        W29443  13.318   4.918   0.987 -0.1011  0.3297  0.2130
12596W        W29444   2.103  16.801   1.365  0.2783  0.0008  0.1279
12597W        W29445   3.612   8.857   3.451  0.0033 -0.3125 -0.3175
12598W        W29446  14.334   1.211  15.728  0.3592 -0.3193 -0.1778
12599W        W29447  11.396   1.704  15.891 -0.1981 -0.0436  0.1617
12600W        W29448   6.477  16.570  13.898 -0.1725 -0.1449 -0.0113
12601W        W29449   2.244  17.615   4.476  0.3606  0.0481  0.2512
12602W        W29450  15.943   4.460  14.648 -0.2645 -0.2703  0.0773
12603W        W29451   4.132   9.405   4.630 -0.2398 -0.1284  0.1975
12604W        W29452   7.119   2.653  11.602  0.1072 -0.0786 -0.1488
12605W        W29453  17.442  13.864  12.015  0.1243  0.0532 -0.0076
12606W        W29454   7.978   1.942   4.251  0.1320 -0.1826  0.2557
12607W        W29455  16.018  15.769  11.440  0.0670  0.0923 -0.2980
12608W        W29456   8.700  12.530   1.340  0.1257  0.0777 -0.0538
12609W        W29457   4.569   8.783  12.759  0.3800 -0.2450 -0.1207
12610W        W29458  14.627   1.099  16.396 -0.1489 -0.0852  0.1592
12611W        W29459  11.025   3.482  12.228  0.1392 -0.0902  0.0989
12612W        W29460   1.010   4.362   5.251  0.2726  0.0622  0.3400
12613W        W29461   5.016   3.481  11.600  0.1970  0.1039  0.3371
12614W        W29462  16.929   2.375  13.219  0.2390  0.0846 -0.1256
12615W        W29463   7.976  16.657  11.481  0.3463  0.0565  0.0397
12616W        W29464   9.398  10.802   4.354  0.0080 -0.3427  0.1820
12617W        W29465  13.273  15.315  11.216 -0.0243  0.0028  0.0741
12618W        W29466   4.887   0.437   6.082 -0.0206 -0.1592 -0.1182
12619W        W29467  15.558   3.270  15.024  0.2307 -0.1537 -0.0454
12620W        W29468  10.929  11.097  13.567  0.2521 -0.1730  0.0124
12621W        W29469   7.644   6.260   0.805 -0.4821 -0.1353 -0.2054
12622W        W29470  10.637   4.334  14.399  0.1031 -0.1134 -0.0355
12623W        W29471  10.027   3.564  16.013  0.2511  0.0048 -0.2959
12624W        W29472   7.084   2.062   1.618 -0.1935  0.1687  0.1551
12625W        W29473   0.745   4.448  15.527 -0.0404  0.2901  0.2974
12626W        W29474  13.563   3.762   2.192  0.1952 -0.0909 -0.1188
12627W        W29475  10.078   1.580  16.086  0.1832  0.4104 -0.1515
12628W        W29476  10.249  17.376   3.026  0.2514 -0.3204 -0.0216
12629W        W29477  16.429   8.019   5.399 -0.0620 -0.3924 -0.2788
12630W        W29478   1.181   0.998  12.138  0.0481  0.0001 -0.2102
12631W        W29479   6.460   0.916   4.860 -0.0282 -0.2946  0.2618
12632W        W29480   1.980   4.932   0.797 -0.0179 -0.0513 -0.1243
12633W        W29481  11.473   3.687  12.401  0.1325  0.0900 -0.0824
12634W        W29482  13.561  11.453   2.154 -0.1805  0.0569  0.2515
12635W        W29483  14.853   6.758   3.264  0.1582 -0.0894 -0.2396
12636W        W29484  15.663   9.133   4.989  0.2344 -0.1336 -0.0517
12637W        W29485  11.909   2.058  16.414 -0.0662  0.0108  0.5059
12638W        W29486  14.263  11.561   4.692  0.0328 -0.1007  0.1950
12639W        W29487   6.169  11.102  12.925 -0.0409  0.0297 -0.1094
12640W        W29488  13.760   8.177   0.970  0.1346 -0.0205  0.3575
12641W        W29489   4.527  12.385   2.759  0.2336 -0.0835 -0.1764
12642W        W29490   6.182   3.894   1.697  0.0357  0.0802 -0.1057
12643W        W29491   5.608   7.630   4.108 -0.1608 -0.1335  0.0654
12644W        W29492   4.850   1.107  14.333 -0.1313  0.0360  0.1323
12645W        W29493   4.468   8.235  13.951  0.0151  0.1566  0.1069
12646W        W29494   8.276   6.258  13.814 -0.0170 -0.3365 -0.0505
12647W        W29495   9.131  13.448  15.299  0.2556 -0.1319  0.1349
12648W        W29496   0.357   2.050   2.702 -0.1812 -0.1043  0.1299
12649W        W29497   0.050   5.025  13.396 -0.0083  0.0824  0.0269
12650W        W29498  10.431  15.209  11.944  0.0537 -0.0656 -0.1504
12651W        W29499  16.181  14.937  14.825 -0.2917  0.3199  0.2663
12652W        W29500  13.682  15.368   4.090 -0.0351 -0.0212  0.0740
12653W        W29501   1.469  15.305   4.468 -0.1920  0.2835 -0.1090
12654W        W29502   6.749  10.207  11.504 -0.0031 -0.2094  0.1503
12655W        W29503   9.188   5.381  13.765  0.1732  0.1012  0.1045
12656W        W29504   0.337  17.339   4.092  0.0276 -0.2300 -0.1048
12657W        W29505   0.596   0.421  12.277 -0.0241  0.1537 -0.2774
12658W        W29506   6.338   9.462   5.953 -0.0576 -0.0657 -0.1653
12659W        W29507   1.404   0.375   2.080  0.0970  0.0436  0.0810
12660W        W29508   6.529   8.800  13.893  0.0416 -0.1188 -0.0473
12661W        W29509   6.612  15.212  16.417 -0.0126  0.2260 -0.3658
12662W        W29510  17.526  15.677  12.468 -0.0740 -0.1147 -0.0516
12663W        W29511   5.801  12.114   3.199  0.2540 -0.0406  0.2154
12664W        W29512  15.017   2.616   4.953 -0.2282  0.0271  0.1201
12665W        W29513   3.676  15.090  14.070  0.1058  0.2707 -0.3671
12666W        W29514   9.910   7.881  13.396  0.2426 -0.1170  0.2482
12667W        W29515   3.071  12.340  15.725 -0.2063 -0.1361  0.5068
12668W        W29516  17.374   1.124   4.425 -0.3700 -0.4290 -0.3774
12669W        W29517   4.859   5.339   3.691  0.1039  0.0101 -0.1411
12670W        W29518  12.713   9.095  14.597 -0.1570 -0.0661 -0.0370
12671W        W29519   3.935   8.915   3.006  0.2507 -0.2279  0.3184
12672W        W29520  14.058   5.962  13.060  0.0764 -0.1759 -0.3782
12673W        W29521   3.693  13.206   2.623 -0.0353  0.1133  0.0915
12674W        W29522   4.791   4.755  11.781 -0.2993  0.3317 -0.0644
12675W        W29523  15.268   8.636  13.320 -0.3486 -0.2541  0.0542
12676W        W29524  17.500  10.137  11.723 -0.0001  0.0624  0.0194
12677W        W29525  13.492   1.245  16.070 -0.1384  0.1533  0.1852
12678W        W29526  17.259  11.337  11.767  0.1346  0.1594  0.0162
12679W        W29527   4.422   0.058  11.545 -0.0140 -0.0461 -0.1191
12680W        W29528  12.048   0.394   1.304 -0.0053 -0.0211 -0.2015
12681W        W29529   5.239  17.543   4.297 -0.2916 -0.0380 -0.1192
12682W        W29530  13.086  14.896  13.190  0.4242  0.2006 -0.0478
12683W        W29531   0.131   5.585  11.992 -0.1419  0.1236  0.1149
12684W        W29532   0.921   0.226   2.179 -0.1086 -0.0884 -0.0334
12685W        W29533   8.655  13.242  14.348 -0.1397 -0.0627 -0.0992
12686W        W29534  13.769  12.958  15.560  0.0191 -0.1599 -0.0867
12687W        W29535  11.401  16.879   1.558 -0.1271  0.0330 -0.1271
12688W        W29536   7.944  17.882  14.042 -0.0173  0.0200  0.0447
12689W        W29537  11.958   2.682  11.018  0.1935  0.0190 -0.0135
12690W        W29538   3.337  13.410   0.628 -0.3642 -0.0471  0.0735
12691W        W29539   1.522   5.682  14.296  0.0407 -0.2775 -0.0840
12692W        W29540  12.104   0.979   3.722  0.2337 -0.2319 -0.0371
12693W        W29541  17.499  16.443   0.527 -0.0671 -0.0767 -0.1451
12694W        W29542   3.607   7.044   1.842  0.0242 -0.1507  0.2174
12695W        W29543  16.736  11.899  13.473  0.1294 -0.0231  0.0797
12696W        W29544   9.696  16.255   2.009  0.1298 -0.0802  0.3153
12697W        W29545   3.220  10.304  12.235  0.0202  0.2112  0.0462
12698W        W29546  14.015   3.132  14.022  0.0672  0.3808 -0.1453
12699W        W29547  17.123   3.080   5.038  0.0809 -0.1546  0.1482
12700W        W29548   2.050   3.643  15.692 -0.0422  0.2421 -0.2143
12701W        W29549  14.452  13.351  12.251  0.1687 -0.2960 -0.0457
12702W        W29550  17.120   5.612  13.624 -0.3217 -0.2112 -0.1883
12703W        W29551  14.747   6.620   4.308 -0.0116 -0.3448 -0.3512
12704W        W29552   4.091   6.733   3.154  0.4166  0.0759 -0.0132
12705W        W29553   6.691   0.323  11.765 -0.1196  0.0682  0.0367
12706W        W29554  12.823   4.757   1.026 -0.0714 -0.0307 -0.2382
12707W        W29555  10.442   5.221  11.213  0.0732 -0.1372  0.1457
12708W        W29556   7.268  12.639  16.410  0.0653  0.1316 -0.0399
12709W        W29557  11.758   5.610  10.434  0.2000 -0.0312 -0.1985
12710W        W29558  14.733   2.549  14.105 -0.0293 -0.1322 -0.0504
12711W        W29559   5.480  12.767  13.637 -0.1788 -0.0081 -0.1404
12712W        W29560   1.613  11.232   2.610 -0.0054  0.1588  0.2254
12713W        W29561  10.466  15.161   5.112  0.1192  0.3314  0.3010
12714W        W29562   7.125   0.823  14.578  0.0539 -0.0419  0.1903
12715W        W29563   1.202   1.090   3.809 -0.0933  0.3463  0.0588
12716W        W29564   3.737  14.653  12.788  0.2051 -0.0189  0.1373
12717W        W29565  10.127  12.373  14.764  0.0051 -0.0539  0.1114
12718W        W29566  10.509   8.378   2.800 -0.0049  0.0394  0.1855
12719W        W29567   0.060  16.081   4.416  0.2143  0.2692  0.2316
12720W        W29568   5.408  17.389   1.514  0.0547  0.2014  0.0393
12721W        W29569   5.226   1.712   0.386 -0.0707  0.0562 -0.1848
12722W        W29570   4.282   1.580   0.821 -0.0202 -0.1062  0.0036
12723W        W29571  10.849  15.772   0.571  0.1358 -0.0902 -0.1166
12724W        W29572   3.671  10.379  15.027  0.3259  0.0267 -0.2467
12725W        W29573  11.083   8.205  11.699 -0.1343  0.0118 -0.0580
12726W        W29574   8.482   3.060  13.364 -0.1424  0.0668  0.0841
12727W        W29575   7.292   8.159   4.024  0.2693 -0.1263  0.0810
12728W        W29576  17.355   3.118  12.187  0.0392 -0.1799  0.1146
12729W        W29577   1.871  13.646  14.115 -0.3561  0.0584  0.2623
12730W        W29578  17.017   8.397  13.610  0.1522 -0.0572 -0.0085
12731W        W29579   9.623   1.922  13.634  0.1805  0.2405 -0.0829
12732W        W29580  16.694   1.273   1.856  0.0012  0.2507 -0.0318
12733W        W29581  13.218  16.699  13.757  0.0492 -0.0354  0.0312
12734W        W29582   8.318   1.276   1.682  0.0566 -0.1488  0.2034
12735W        W29583  16.993  14.429  15.112  0.3575 -0.1569  0.0284
12736W        W29584   4.157  13.759  16.315  0.0543  0.1225  0.0543
12737W        W29585  13.005  10.326   3.586  0.2321 -0.1070  0.0982
12738W        W29586   5.911   0.394   2.125  0.0917 -0.0359 -0.1546
12739W        W29587  11.570   1.914  15.018 -0.1943 -0.3180  0.1676
12740W        W29588  15.967   8.815   4.142  0.2965  0.2259 -0.1377
12741W        W29589  14.346   2.630  12.784 -0.1307 -0.2301 -0.5405
12742W        W29590  14.485   4.611   4.714 -0.0813 -0.1778  0.0298
12743W        W29591  13.190   8.032   2.676 -0.1825 -0.0481 -0.2571
12744W        W29592   9.024   9.885   5.954 -0.1469 -0.0274  0.0803
12745W        W29593  15.579   7.639  14.235 -0.0521  0.0727 -0.1415
12746W        W29594   3.930  10.149  14.230  0.1134 -0.0478  0.0555
12747W        W29595  12.806   8.441   4.960  0.5259  0.0464 -0.0539
12748W        W29596  12.166   1.592   0.145  0.0065  0.1491 -0.0182
12749W        W29597  11.885  14.977  13.787 -0.3017  0.2288  0.2355
12750W        W29598  12.576   2.690  10.978 -0.1627  0.4556 -0.0620
12751W        W29599  11.125   1.268   1.897  0.1031 -0.2488  0.2245
12752W        W29600   8.502  13.038   4.327  0.1721  0.3301  0.2291
12753W        W29601   0.513  16.174   1.443 -0.0981 -0.1901 -0.0775
12754W        W29602  10.582   5.499  12.009 -0.0794 -0.0158 -0.3412
12755W        W29603  12.164   3.259   2.667  0.1521  0.0322 -0.1324
12756W        W29604   0.150  11.227  13.445  0.1123  0.2890  0.0430
12757W        W29605  16.895  17.417  11.561 -0.0044  0.0070 -0.0799
12758W        W29606  11.125  17.219  13.509  0.0592 -0.2064  0.1515
12759W        W29607  11.034   3.034   3.149  0.0416 -0.0446 -0.0390
12760W        W29608  17.398  14.727  15.319 -0.1039  0.1599 -0.1901
12761W        W29609   5.487   9.774  15.032 -0.3553  0.3498 -0.2538
12762W        W29610   7.221  12.693   5.245 -0.1645  0.2432  0.2553
12763W        W29611   2.589   1.922  11.402  0.1615 -0.3785  0.0968
12764W        W29612  11.079   9.642   3.421 -0.0817  0.0406 -0.2917
12765W        W29613   0.386  15.693   4.102 -0.1333  0.0124 -0.2324
12766W        W29614   9.154  10.912   4.809 -0.2055  0.1814  0.3476
12767W        W29615   3.586   4.638   2.313  0.1854  0.1338  0.1454
12768W        W29616  15.340   4.243  12.034  0.1262  0.0608 -0.2893
12769W        W29617   6.776   5.329   1.665  0.1532  0.1381 -0.0045
12770W        W29618   5.001  15.290  11.685  0.0223  0.0641  0.0640
12771W        W29619   1.084   6.697   0.333  0.1243 -0.3280  0.2995
12772W        W29620   5.125   3.593  14.860  0.1245 -0.3067 -0.0496
12773W        W29621   5.100  13.095  12.221  0.0043 -0.2237  0.0806
12774W        W29622  15.332  15.609   2.831 -0.6026  0.0526  0.1354
12775W        W29623  17.269  13.684  12.434 -0.1943  0.0748 -0.1054
12776W        W29624   2.660   0.973   1.021  0.0275  0.3198  0.4106
12777W        W29625   7.111   4.095   0.625 -0.0486 -0.1895 -0.0529
12778W        W29626   8.378  12.155   0.106  0.3907  0.3542  0.1574
12779W        W29627   2.688   7.740   4.632 -0.1861  0.1167  0.1213
12780W        W29628   7.367   8.222  13.347  0.1271 -0.0792 -0.1048
12781W        W29629   8.969  10.062   2.903  0.0636 -0.2189  0.2337
12782W        W29630   9.039   3.078  13.188  0.1014 -0.3121  0.2026
12783W        W29631  10.904   0.162  14.569  0.0975 -0.1995  0.0923
12784W        W29632  13.738  17.878  15.390 -0.1544  0.2908 -0.0858
12785W        W29633   6.411  15.569  16.156  0.2211 -0.0421 -0.0103
12786W        W29634  10.276   8.725   2.549 -0.2428 -0.0924  0.1197
12787W        W29635  17.109  10.902   0.598 -0.0491 -0.1212 -0.1383
12788W        W29636   4.561   0.434  16.449  0.1287 -0.2332  0.1598
12789W        W29637   1.956  10.896  13.068 -0.2646  0.0237 -0.0915
12790W        W29638  15.212   1.181   2.933  0.1804 -0.0667  0.5280
12791W        W29639   0.228   8.824   3.605 -0.1028  0.0889  0.0291
12792W        W29640  13.641   9.232   2.875  0.2157  0.0605 -0.0753
12793W        W29641   0.419  16.420   5.615 -0.0310 -0.1619 -0.0057
12794W        W29642   0.202   5.797   6.166 -0.1915  0.2697 -0.1805
12795W        W29643  11.258  11.040  11.887  0.0637  0.1451  0.0921
12796W        W29644  10.100   1.276   5.809 -0.2155  0.4409  0.1181
12797W        W29645  14.837   5.482   4.540  0.2729 -0.0310 -0.2356
12798W        W29646   1.040   7.003  13.627  0.1800  0.0736  0.1318
12799W        W29647  14.647  12.946  11.657 -0.2059 -0.1988  0.0856
12800W        W29648  14.945   9.575  13.262  0.1408  0.2671  0.1058
12801W        W29649   9.247  16.604  11.413 -0.1203 -0.0788  0.2298
12802W        W29650  11.818  16.385  11.906  0.1168 -0.0440  0.4717
12803W        W29651   8.778   6.256   3.045 -0.1041  0.2761  0.0717
12804W        W29652   3.249  14.858  15.830  0.0679 -0.0683  0.2010
12805W        W29653   3.579  10.157  13.133 -0.0185  0.3737  0.0086
12806W        W29654   5.919  13.263  14.475 -0.0333 -0.3996  0.0323
12807W        W29655   1.416   3.870   4.390 -0.2109 -0.1977 -0.1057
12808W        W29656   8.894  10.110  13.646 -0.3542 -0.1947  0.0921
12809W        W29657   0.107   8.429  13.808 -0.0144  0.0311 -0.1174
12810W        W29658   3.134  12.591  11.588  0.0956  0.1108 -0.0410
12811W        W29659   9.288   7.646  11.293 -0.0814  0.0344 -0.2583
12812W        W29660  13.461   5.216   4.520 -0.0333  0.4470 -0.5198
12813W        W29661  10.012   0.935  11.393 -0.2315  0.1394  0.1949
12814W        W29662   7.771   9.755   1.201  0.1310 -0.0164 -0.0809
12815W        W29663   6.605   8.172   2.956  0.1688  0.0705  0.1455
12816W        W29664  16.930   6.621  16.053  0.0521  0.1133 -0.1401
12817W        W29665  15.974   8.287   2.241 -0.1304  0.0337  0.0844
12818W        W29666  10.259   3.638   3.123  0.3204  0.1184 -0.0758
12819W        W29667   9.170   5.566   2.000  0.1979 -0.1193 -0.0343
12820W        W29668  13.893   8.053   5.471 -0.0487 -0.0051  0.1708
12821W        W29669   3.551   1.260   1.423 -0.2379 -0.1789 -0.4308
12822W        W29670   0.526  17.819   3.309  0.2994 -0.3987  0.1119
12823W        W29671  11.848   0.008   4.390  0.0081  0.1063 -0.2726
12824W        W29672  14.920  15.582   4.305 -0.1256  0.3341 -0.1109
12825W        W29673   1.008   2.421  14.923 -0.2648  0.1080 -0.0113
12826W        W29674  12.235   1.466   3.732  0.1996 -0.0691  0.0008
12827W        W29675   1.945   3.255  14.436 -0.2582 -0.0513 -0.1558
12828W        W29676  12.704   3.445  13.293 -0.1092 -0.0981  0.1000
12829W        W29677  14.729  12.441  12.470  0.1628 -0.0593 -0.1466
12830W        W29678   0.972   4.441  13.707  0.0060 -0.0773  0.0019
12831W        W29679  11.304   9.306   4.387  0.1196  0.0591 -0.1535
12832W        W29680  16.763   8.000  15.296 -0.2227 -0.1289 -0.0113
12833W        W29681  13.029  17.205  13.082  0.4116  0.0723 -0.1763
12834W        W29682  15.650   5.177  14.287  0.3978 -0.0697 -0.1464
12835W        W29683  13.505   8.634   1.091  0.0940 -0.0454  0.3978
12836W        W29684   0.012   2.531   4.300  0.5444  0.1353  0.0970
12837W        W29685   2.569  12.756   0.916 -0.1088 -0.0554 -0.0677
12838W        W29686   3.763   1.662   0.062 -0.3992 -0.2609  0.1829
12839W        W29687   6.659   0.035   1.805  0.1216  0.2739  0.0385
12840W        W29688  13.194   3.875  11.118  0.2224  0.1274  0.0441
12841W        W29689  11.930  17.127  11.608 -0.1064  0.1925  0.2374
12842W        W29690  15.282  14.963  13.110  0.3052 -0.2494 -0.3792
12843W        W29691   5.673   1.173  14.746 -0.2300 -0.1476 -0.0563
12844W        W29692   6.946   0.667  15.139  0.0481 -0.2230 -0.0803
12845W        W29693   6.237   5.170   0.161  0.1612  0.1554  0.0115
12846W        W29694  13.782  13.883  14.557  0.1579  0.0414  0.2577
12847W        W29695   8.499  10.640   3.549 -0.2845  0.1056 -0.1669
12848W        W29696   6.615   7.377   1.297 -0.1250  0.0561 -0.4206
12849W        W29697  14.150   4.784  15.089 -0.0579  0.0849 -0.1772
12850W        W29698   8.601   9.737   2.050  0.1763  0.0635  0.0461
12851W        W29699  13.269  13.499   3.004  0.0151 -0.0743 -0.0500
12852W        W29700  16.725  15.312   0.917 -0.2107  0.2450  0.0056
12853W        W29701  15.035  11.176   0.508  0.1438  0.3623  0.2601
12854W        W29702  10.057  12.260   3.609 -0.2265  0.0563 -0.3117
12855W        W29703   0.276   4.077  13.201 -0.1389 -0.1561 -0.1025
12856W        W29704  14.016  14.177  14.877  0.0144  0.0490 -0.0233
12857W        W29705  14.798  15.276  13.226  0.2148  0.3944  0.3210
12858W        W29706  13.185   1.177   3.681  0.1925  0.0694 -0.0180
12859W        W29707   1.895  15.203   0.424 -0.0426 -0.0520  0.0826
12860W        W29708  13.778   8.543  15.327  0.1697 -0.0177 -0.1593
12861W        W29709  11.967   3.189   0.086 -0.0461  0.0232  0.0655
12862W        W29710  12.292   3.142   4.259 -0.3567  0.1292  0.3416
12863W        W29711  16.578   8.163  12.196  0.1195 -0.0420 -0.2213
12864W        W29712  14.208  10.176  14.225 -0.0013  0.0437  0.0449
12865W        W29713  17.556   9.290  15.521 -0.1468  0.0451  0.1806
12866W        W29714   1.878   7.723  15.025  0.0306 -0.0517  0.0582
12867W        W29715   7.050   3.566   0.599  0.1533  0.0698  0.0157
12868W        W29716   2.321   9.010   0.297  0.1570  0.1280  0.1595
12869W        W29717  11.747  15.087   0.529  0.0319 -0.1363 -0.1358
12870W        W29718  15.591  12.106   1.996 -0.2206 -0.2812  0.2393
12871W        W29719   2.267  12.892  14.278 -0.0656  0.2062  0.1313
12872W        W29720  13.270   2.380   0.962  0.1616 -0.1399 -0.1332
12873W        W29721   1.118  16.253  16.244  0.0192  0.1354  0.1136
12874W        W29722   6.681   5.859  12.400  0.1321  0.1123 -0.2754
12875W        W29723  16.648   7.208   2.486 -0.0332  0.0583  0.0001
12876W        W29724   9.985  14.815  14.163  0.0415 -0.3444 -0.3033
12877W        W29725   7.283   5.762   0.738  0.0092  0.0967  0.2632
12878W        W29726   7.314   8.163   0.570 -0.0867  0.0180  0.0209
12879W        W29727   3.742  14.955  15.619 -0.3993 -0.0643  0.3809
12880W        W29728   7.931   3.107   0.816 -0.0440  0.0432  0.0024
12881W        W29729  16.928  16.430   2.796 -0.0178  0.1486  0.1217
12882W        W29730   1.153   5.158  11.531  0.1184  0.1750  0.4439
12883W        W29731  15.028   7.695  16.378  0.1652 -0.0414  0.2860
12884W        W29732   8.095  12.833   2.373  0.1654  0.1049 -0.0152
12885W        W29733  12.494   5.817  11.510 -0.0804  0.1898  0.0800
12886W        W29734   7.426  14.572   2.491 -0.2260 -0.2819  0.0170
12887W        W29735   1.589   2.474   3.803 -0.3767  0.1954 -0.1714
12888W        W29736  13.188   5.730  15.275 -0.2097 -0.2253  0.1390
12889W        W29737   8.663  14.712  14.393  0.1873 -0.0590  0.2526
12890W        W29738  10.200   4.545  15.103 -0.2260  0.0503 -0.0437
12891W        W29739  14.881  16.742   2.470  0.1464  0.0754 -0.1433
12892W        W29740   5.912  15.459   4.632 -0.0216 -0.1069 -0.0072
12893W        W29741  15.237   9.763  12.892 -0.1838 -0.1435  0.0160
12894W        W29742  17.519  12.823   1.590 -0.0242  0.0892  0.0043
12895W        W29743   6.870  10.817  14.249  0.0428 -0.3311 -0.1029
12896W        W29744   1.338   0.139   3.935 -0.2841  0.0626 -0.4065
12897W        W29745   8.704   8.032  14.088 -0.0865  0.0115 -0.2819
12898W        W29746  13.653  13.607  12.424  0.0140 -0.1542  0.1034
12899W        W29747   0.676   3.897   0.327  0.3490 -0.0625 -0.1022
12900W        W29748   5.488   1.995   3.064  0.3277  0.2351  0.1661
12901W        W29749   8.327  17.599   5.551 -0.0505 -0.0941  0.0707
12902W        W29750   4.412   3.159   4.959 -0.0857 -0.0958  0.1303
12903W        W29751   3.523  10.013  11.811 -0.1772 -0.3064 -0.2148
12904W        W29752   5.412   5.302  13.111  0.1084 -0.1770  0.2889
12905W        W29753   0.701  10.093  13.715 -0.0412  0.0858 -0.1561
12906W        W29754   7.762  12.405  14.308  0.0000 -0.1559 -0.2358
12907W        W29755  13.870   2.395   0.223  0.0647  0.0027  0.0455
12908W        W29756   9.187  10.584   5.331 -0.4537  0.1208  0.0254
12909W        W29757  11.762   8.423  15.924 -0.0670 -0.0701  0.0621
12910W        W29758   9.554  11.607   0.763  0.0641  0.0900  0.0237
12911W        W29759  11.738   1.305   3.045  0.1594 -0.1811 -0.0921
12912W        W29760   8.467   6.985   0.769 -0.1508  0.3801 -0.0251
12913W        W29761   8.435   0.683   1.566 -0.1258  0.2290 -0.0825
12914W        W29762  11.392  16.481   4.093 -0.0927  0.0624 -0.1589
12915W        W29763  11.122  16.833   1.128 -0.2998  0.1497 -0.2536
12916W        W29764   8.375  15.694   4.119 -0.2203  0.1596 -0.0760
12917W        W29765  13.276  14.302   0.588 -0.1368  0.0945  0.0005
12918W        W29766   4.228  15.661  11.594  0.1653  0.2613 -0.0295
12919W        W29767  11.083  10.280  11.329 -0.1004  0.2663 -0.0432
12920W        W29768  12.457  15.845  16.401 -0.0279 -0.2071 -0.4737
12921W        W29769  12.992  10.541  16.045  0.3163  0.2154 -0.2045
12922W        W29770  13.292  17.215  13.843 -0.0400  0.1896  0.1639
12923W        W29771   7.649  13.957  11.740  0.4549  0.0007  0.3883
12924W        W29772  14.169   4.027  11.985  0.2091 -0.1208 -0.0162
12925W        W29773   4.225   3.383   0.911 -0.0697 -0.3579 -0.0823
12926W        W29774  14.273   1.091  13.846 -0.0591  0.0260  0.1695
12927W        W29775   9.479  11.007  14.549 -0.0505  0.0058  0.1252
12928W        W29776   9.827   5.406   4.453 -0.0250  0.1785 -0.1522
12929W        W29777  13.727  14.891   1.863 -0.2377 -0.2030  0.3547
12930W        W29778   3.629   8.809  11.138 -0.2416  0.0006 -0.1299
12931W        W29779  10.890  17.820  15.954 -0.1472  0.1955  0.2207
12932W        W29780   2.728  11.393  12.957 -0.0255  0.0905 -0.1195
12933W        W29781   0.535  14.924  15.033 -0.1202 -0.1080 -0.1238
12934W        W29782   8.049   7.283   3.008  0.3599  0.0643 -0.0915
12935W        W29783   9.341   9.971  12.203 -0.0890 -0.3869  0.0200
12936W        W29784   7.201   3.035  11.270 -0.0119 -0.0920  0.2739
12937W        W29785   6.597   3.601   3.835  0.0761 -0.2479  0.1195
12938W        W29786  12.686  13.997   3.640  0.2607 -0.0361 -0.0553
12939W        W29787   1.296   2.384   3.352  0.2254  0.0431 -0.2101
12940W        W29788   6.274  10.962  12.332 -0.2107  0.1822  0.1182
12941W        W29789  12.870   7.917   0.257  0.0465 -0.0659 -0.0924
12942W        W29790  15.359  16.811   3.904 -0.0564 -0.0984 -0.1226
12943W        W29791   2.827  11.904  12.347 -0.2739 -0.1174 -0.1215
12944W        W29792   2.876   1.196  13.630  0.2770 -0.0475 -0.0651
12945W        W29793  10.278   7.705  14.817  0.2119 -0.2126 -0.2853
12946W        W29794   9.559  10.266  15.523  0.1105 -0.4451 -0.1337
12947W        W29795   0.532   5.473  13.343  0.1499  0.1555 -0.0439
12948W        W29796  17.507   9.160  12.710  0.2506 -0.0417  0.1998
12949W        W29797   2.826   4.462  15.193  0.1096  0.1041  0.4568
12950W        W29798   6.598  17.831  14.805 -0.1417  0.0870 -0.1381
12951W        W29799   5.728  11.290   3.180  0.0927 -0.2737  0.2038
12952W        W29800   5.365   8.932  16.033 -0.2178 -0.2233 -0.2106
12953W        W29801   8.821  14.541  16.180 -0.0651 -0.1256 -0.0519
12954W        W29802   5.369   4.517  15.835  0.2564 -0.2441  0.0068
12955W        W29803  11.291   8.283  13.600  0.0085 -0.0298  0.2316
12956W        W29804   2.417  11.754   4.365  0.4077  0.1565 -0.0537
12957W        W29805  16.922   4.612   1.978 -0.2896 -0.0624  0.5285
12958W        W29806   8.887   8.987  15.126  0.1334 -0.1008  0.0435
12959W        W29807  14.684   1.361   0.341 -0.0696  0.0113  0.1281
12960W        W29808   9.421   5.491  16.085  0.0618 -0.0084  0.0940
12961W        W29809   8.599   8.950   4.619 -0.1062 -0.1647  0.0272
12962W        W29810  16.062   2.149   5.505 -0.0424  0.1026  0.2284
12963W        W29811   8.041  10.008   0.863 -0.0530 -0.0939 -0.3235
12964W        W29812  14.158   3.349   4.772 -0.0789 -0.0405  0.1194
12965W        W29813   4.236   2.547  13.219  0.0185 -0.3860  0.2258
12966W        W29814   5.353  11.568   6.123  0.3679  0.0437 -0.1773
12967W        W29815   3.186  16.355   2.403 -0.1588  0.3277  0.2008
12968W        W29816   3.732  11.937  13.845 -0.0865 -0.2146  0.1459
12969W        W29817   1.076  12.903  12.159 -0.2950 -0.1178  0.2238
12970W        W29818   3.753   4.299   5.388 -0.0204  0.3024  0.1731
12971W        W29819  12.435  15.097   2.478 -0.1103 -0.0881  0.2048
12972W        W29820   7.158   0.918  12.230 -0.0507 -0.1563 -0.0328
12973W        W29821   0.024  10.825  12.320 -0.3199 -0.0731 -0.0127
12974W        W29822   3.933  10.975   5.501  0.0293  0.2337 -0.0489
12975W        W29823  12.202  11.183   2.259  0.2335  0.3244 -0.0725
12976W        W29824  13.557   0.976   3.445 -0.0681 -0.0626 -0.1307
12977W        W29825   9.118  10.633  14.335 -0.0962 -0.0715  0.4172
12978W        W29826  15.771   0.294   1.157  0.1829 -0.1963 -0.5282
12979W        W29827  11.402   7.044  12.387  0.1795  0.0621  0.0087
12980W        W29828   1.136  10.825   3.750 -0.1059  0.1826  0.2331
12981W        W29829  10.021  16.535   4.342 -0.2433 -0.0326  0.0119
12982W        W29830  10.149   1.238   4.443 -0.0754  0.2447 -0.2594
12983W        W29831   3.403  16.600  15.375 -0.1658  0.0463 -0.0862
12984W        W29832   4.802   3.016  11.641  0.0046 -0.3215 -0.0766
12985W        W29833  14.433  11.462   0.220 -0.0606  0.0614 -0.0108
12986W        W29834  11.553   2.930  15.775  0.2777 -0.1768  0.2809
12987W        W29835   3.880   6.388   2.880 -0.3942 -0.3510 -0.1732
12988W        W29836  17.039  14.783   2.649 -0.0834 -0.0539 -0.0458
12989W        W29837   5.353  10.339   3.019 -0.1047  0.0644 -0.3262
12990W        W29838   9.588  14.549  10.977  0.0414  0.0516 -0.3830
12991W        W29839  16.078  12.431  11.915  0.0820 -0.1311  0.1497
12992W        W29840   9.643  17.637  12.668 -0.3558 -0.0142 -0.0414
12993W        W29841   6.365   9.072  13.112 -0.1746 -0.1674 -0.0926
12994W        W29842  17.160  15.864   1.659  0.1238  0.3121  0.2680
12995W        W29843   2.547  16.237   4.961  0.0323 -0.3636 -0.1274
12996W        W29844  12.055   8.023  16.074 -0.0307 -0.2531 -0.2223
12997W        W29845   5.487   1.445   6.481  0.1513 -0.0029 -0.1314
12998W        W29846  12.738   1.375   4.445 -0.0415 -0.0553 -0.2640
12999W        W29847   0.171   6.107  12.013 -0.0414 -0.0909 -0.1075
13000W        W29848   1.493  11.294  14.236  0.3767 -0.4022 -0.1688
13001W        W29849   6.063  17.802   5.069 -0.0733  0.0799  0.2214
13002W        W29850   6.107   9.796   0.730  0.1338 -0.3168  0.1244
13003W        W29851  12.332   1.526   0.657  0.2463 -0.2176 -0.1478
13004W        W29852  10.961  13.527   3.250 -0.0152  0.2157  0.0219
13005W        W29853   6.624   7.827  16.313 -0.0424  0.1595  0.1949
13006W        W29854  15.271   0.150   3.667 -0.1741  0.1803  0.0860
13007W        W29855  16.300  15.206  16.087  0.1239  0.0846  0.0889
13008W        W29856  13.251  14.210   3.143 -0.0857  0.0728  0.0704
13009W        W29857  12.151   2.028   2.885 -0.0460 -0.1304 -0.0115
13010W        W29858  14.032  16.923   4.581  0.0763 -0.3489 -0.1988
13011W        W29859   2.693   9.490   1.055  0.3409 -0.0934 -0.1928
13012W        W29860  13.701  11.526  15.061 -0.1047  0.0845  0.0768
13013W        W29861   0.201   4.812   5.005  0.0734 -0.3455 -0.2741
13014W        W29862   2.664  14.238   3.373  0.0766 -0.0552 -0.1219
13015W        W29863   7.447   7.224   0.888 -0.1950  0.2946  0.0404
13016W        W29864   8.800   6.426   4.767  0.2105  0.2419  0.0828
13017W        W29865  14.915   6.894   2.437 -0.1229 -0.1557  0.4249
13018W        W29866   1.356   0.399  12.192 -0.1235  0.2484  0.2594
13019W        W29867  12.671   6.484  13.059  0.0934  0.1172  0.2495
13020W        W29868   0.538  12.986  14.457  0.1022 -0.0832  0.0058
13021W        W29869   2.739  11.939  13.230  0.0393 -0.1243 -0.1079
13022W        W29870  11.107   2.995  13.946 -0.0819 -0.1365 -0.0045
13023W        W29871  17.184  17.615   3.967 -0.0662 -0.0999  0.5275
13024W        W29872   7.847  10.221   2.544  0.2409  0.0551 -0.1793
13025W        W29873   1.892   5.937   0.445  0.0687 -0.1014 -0.2032
13026W        W29874  12.722  16.578  13.482 -0.3042  0.0438 -0.3074
13027W        W29875   5.650   4.794   4.628  0.0627 -0.3724 -0.0975
13028W        W29876  17.549   1.377   2.908  0.2637  0.0010  0.1533
13029W        W29877  14.300  11.661   0.949 -0.1209 -0.0906 -0.0877
13030W        W29878  14.602  10.315   1.999  0.0185  0.0228  0.0992
13031W        W29879  13.740   2.221   4.863  0.1845 -0.0398 -0.1720
13032W        W29880   0.253   0.573   4.590 -0.1361 -0.0257  0.2054
13033W        W29881   9.016  13.062  12.897  0.1090 -0.1319  0.0148
13034W        W29882   2.891   2.148  16.392 -0.2092  0.0840  0.0862
13035W        W29883   3.146  15.135   4.873 -0.0364  0.1627 -0.2054
13036W        W29884   0.865   5.151   5.618 -0.0198 -0.1619  0.3063
13037W        W29885   7.234  16.374  15.039  0.0905 -0.2977 -0.0790
13038W        W29886   0.264  15.784  13.607  0.1529  0.1240 -0.1278
13039W        W29887  10.320   1.508   0.992  0.1824 -0.0562  0.1792
13040W        W29888   4.510  15.913   4.068 -0.0498  0.1248  0.1110
13041W        W29889   9.899   3.542  15.528  0.2984 -0.2029 -0.0315
13042W        W29890  11.457  12.501  15.542  0.0403 -0.1614 -0.1012
13043W        W29891   1.085   7.935   4.395  0.1100  0.4808  0.1475
13044W        W29892  17.238   2.845   2.017 -0.1085  0.0531 -0.1799
13045W        W29893   5.141  12.065  16.396 -0.2315 -0.1494 -0.3204
13046W        W29894   5.579  10.024  12.672  0.1099  0.1764 -0.1058
13047W        W29895  17.050  16.935   0.746 -0.2177  0.0315  0.0422
13048W        W29896   9.150  13.699   0.695  0.1129 -0.0470 -0.2447
13049W        W29897   8.766  13.696   0.360 -0.0160 -0.0451 -0.0623
13050W        W29898   4.911  13.660   5.204  0.1630 -0.2092 -0.1783
13051W        W29899  15.378  16.304   1.072  0.1831 -0.0098 -0.0889
13052W        W29900   1.040   7.923   5.637  0.0373 -0.3326  0.1089
13053W        W29901  16.240  11.281  16.424  0.1357 -0.0634 -0.1139
13054W        W29902   6.562  11.052  13.921 -0.1184  0.1127  0.0724
13055W        W29903   1.682   4.180   4.131 -0.2474 -0.1227 -0.2823
13056W        W29904   9.858   3.604   1.581 -0.1574 -0.0376 -0.1090
13057W        W29905  17.771  15.941  10.144 -0.5985 -0.0773 -0.1945
13058W        W29906   8.421   0.801   4.016  0.0724  0.0320 -0.0122
13059W        W29907   5.345   8.013   3.974 -0.2020  0.2936 -0.0032
13060W        W29908   6.072   7.043  13.800  0.1710 -0.1353  0.0169
13061W        W29909   1.338  12.046   5.149 -0.2425 -0.0795  0.0988
13062W        W29910   6.039  14.601   0.233  0.1099 -0.0376  0.2112
13063W        W29911   0.405   9.401   0.708 -0.0395  0.3506 -0.0668
13064W        W29912   3.796   9.987   1.773  0.0361  0.1525 -0.3248
13065W        W29913   4.254   8.652   0.725 -0.2653  0.0313 -0.0598
13066W        W29914  11.372   2.568   1.734 -0.0698 -0.1731 -0.4220
13067W        W29915  12.567  12.309  11.791  0.0716  0.2628  0.0558
13068W        W29916   5.741   3.199  14.220  0.0498 -0.0006  0.0790
13069W        W29917   6.799  13.671   1.355 -0.1215 -0.1045 -0.2549
13070W        W29918  12.605   0.260  11.696  0.0945  0.3554  0.1348
13071W        W29919   3.433   8.847  13.774 -0.2033 -0.1244  0.1587
13072W        W29920  14.651   7.786   3.813 -0.1066  0.0634  0.1203
13073W        W29921   6.834   9.141  14.222 -0.0619  0.0941  0.3023
13074W        W29922   0.106   6.473   0.500 -0.0604 -0.1527 -0.0091
13075W        W29923  15.826  17.649   1.723  0.0866  0.0950  0.1184
13076W        W29924   6.752  14.288  12.694 -0.0368  0.0904  0.1614
13077W        W29925  16.952  16.274   4.287 -0.0576  0.0429 -0.3089
13078W        W29926   5.991   0.861   4.156 -0.0201  0.2014 -0.0389
13079W        W29927   4.858   5.506  12.942 -0.0132 -0.0882  0.0300
13080W        W29928   8.512   4.817   3.656  0.3996  0.3819 -0.1994
13081W        W29929   2.745   6.777   1.926  0.0979 -0.2758 -0.4630
13082W        W29930   0.621   4.714   1.156 -0.1302  0.0700  0.1661
13083W        W29931  17.834   2.178   5.151  0.0072  0.0713  0.3305
13084W        W29932   7.630   4.420  14.715  0.0092  0.0454 -0.3160
13085W        W29933   5.596   0.079  13.175  0.2447 -0.1525 -0.1756
13086W        W29934  17.302   6.861   4.426  0.0535  0.1133 -0.1540
13087W        W29935  15.835  11.732   1.542 -0.1055 -0.3534  0.0580
13088W        W29936  12.073   2.912  14.027  0.1604 -0.0268  0.0317
13089W        W29937   0.504  17.274  13.931  0.1461  0.2033  0.0312
13090W        W29938   4.475   3.727   1.772  0.1614  0.1550 -0.1193
13091W        W29939   7.455  17.465   2.986 -0.0277 -0.0922  0.2513
13092W        W29940   5.780  10.153   1.584  0.1291  0.0343  0.0276
13093W        W29941   8.280  11.587   1.435 -0.2347 -0.1153  0.3509
13094W        W29942   1.430  10.745  14.387 -0.2103 -0.3071 -0.0654
13095W        W29943   4.167  12.908   4.553 -0.0406  0.0742 -0.2019
13096W        W29944  14.288  15.203   0.035 -0.1419 -0.0318 -0.0659
13097W        W29945  13.836  10.619   2.914  0.1726  0.2802  0.1576
13098W        W29946   2.280  17.012  14.302 -0.0689 -0.2963  0.0023
13099W        W29947   8.945   6.743  14.189  0.2855 -0.0182 -0.3750
13100W        W29948  17.564  10.980  12.072 -0.0781 -0.0540 -0.2988
13101W        W29949  12.235   9.384   2.942  0.1375 -0.2631  0.0944
13102W        W29950  16.868  11.972  14.722 -0.0386  0.0995  0.1725
13103W        W29951  14.319   8.346   5.609  0.0170 -0.0202  0.3795
13104W        W29952  14.514   3.919   5.809 -0.0109  0.0666  0.0375
13105W        W29953  16.943   5.564   2.360 -0.2244 -0.0751 -0.2133
13106W        W29954  11.368   0.999  11.202  0.0678 -0.2743  0.3237
13107W        W29955  10.751   9.321   3.581  0.1814 -0.1934  0.0801
13108W        W29956  10.101  11.820   0.759  0.1326 -0.1847 -0.1446
13109W        W29957   9.411   5.969  13.331  0.2896 -0.1381  0.2028
13110W        W29958  15.925  12.742   3.232 -0.5510 -0.0285 -0.0864
13111W        W29959  17.859  14.911  11.041 -0.3584  0.0329  0.4065
13112W        W29960  16.459   4.423   5.999 -0.2059  0.0168 -0.1363
13113W        W29961   9.429  11.781   0.146 -0.3071  0.0812 -0.3078
13114W        W29962  17.598  11.523  12.145  0.0285 -0.0641  0.1276
13115W        W29963  13.640  14.288  15.816 -0.2621  0.4191  0.1302
13116W        W29964  10.121  14.622   0.547  0.1092 -0.0362 -0.0424
13117W        W29965   0.084  12.625   1.924  0.2656  0.2306 -0.1211
13118W        W29966   0.292   6.257   4.352 -0.0710  0.0204  0.2315
13119W        W29967   2.412   5.744   1.570  0.1207  0.1234 -0.1840
13120W        W29968   9.464   1.114  14.919  0.1207  0.0837  0.0477
13121W        W29969   0.002  16.132  11.867 -0.0582  0.0174 -0.3109
13122W        W29970   9.301   1.224   1.245 -0.1303  0.1046 -0.0445
13123W        W29971   6.231  13.851  13.651 -0.1516 -0.0418  0.1210
13124W        W29972  11.610  17.225  13.760 -0.1262  0.0601 -0.1650
13125W        W29973   1.489   9.768  16.324  0.0739  0.0690  0.1437
13126W        W29974  13.020   1.924   1.937 -0.2167 -0.0069  0.1660
13127W        W29975  12.128   1.381   2.248 -0.3486 -0.1313  0.2235
13128W        W29976   4.103   0.264  12.856 -0.0890 -0.1471  0.0093
13129W        W29977  17.542   0.686   0.505  0.0473  0.0032 -0.0226
13130W        W29978   2.904  16.188  12.557 -0.0223  0.0747 -0.0006
13131W        W29979   6.111  16.705   2.236 -0.1341  0.3929  0.0300
13132W        W29980  11.642  11.883   2.526 -0.2087 -0.3458  0.4544
13133W        W29981   8.866   7.383   4.259 -0.1772 -0.1203  0.3383
13134W        W29982   6.314   5.275  14.095 -0.0312 -0.1359  0.0643
13135W        W29983   7.971   3.164  14.809 -0.1116 -0.0512  0.2678
13136W        W29984   9.499   5.145   0.461  0.0212 -0.2146 -0.0943
13137W        W29985  12.072   6.560  12.579  0.3337  0.1406  0.3965
13138W        W29986  16.060   7.122  12.581  0.0842  0.2235 -0.2647
13139W        W29987   5.227   5.838   0.755 -0.4297 -0.1172 -0.0169
13140W        W29988  11.438  14.635  14.764 -0.0626 -0.1597 -0.1671
13141W        W29989   4.762  14.365  12.684 -0.1137 -0.0086 -0.0151
13142W        W29990  17.481  15.822  11.969 -0.1363 -0.0519  0.1438
13143W        W29991   9.267   8.802   2.448 -0.0349 -0.0776  0.1285
13144W        W29992   1.731   6.572  12.735  0.2193 -0.1336 -0.0203
13145W        W29993   3.621  15.649  12.546  0.0586  0.0034 -0.0090
13146W        W29994  14.729   2.172   5.167 -0.1590 -0.1046  0.0771
13147W        W29995  16.839   9.738  13.165  0.1532  0.2063 -0.3428
13148W        W29996  10.691  16.956  13.735 -0.1940 -0.2258 -0.3119
13149W        W29997  12.817   3.303  12.444 -0.1180  0.1437  0.0663
13150W        W29998   3.197   9.985   5.289 -0.0645 -0.1054  0.1093
13151W        W29999   7.342   2.363   0.493 -0.0909 -0.1759  0.1630
13152W        W30000   6.956  15.684   0.804  0.0194  0.3208  0.2383
13153W        W30001  17.384   1.377  13.867 -0.2849  0.1490 -0.2323
13154W        W30002  16.146  13.628  11.940  0.0588 -0.1316 -0.1131
13155W        W30003  17.578  12.065   3.614  0.0751  0.2109  0.0751
13156W        W30004  10.462  13.996  12.269  0.0555  0.2844 -0.0416
13157W        W30005   8.232   0.189   1.522 -0.1148 -0.1470  0.0325
13158W        W30006  14.526  13.824  11.571 -0.0117  0.0310 -0.0321
13159W        W30007   2.608  13.315   0.217 -0.2895  0.0227  0.0810
13160W        W30008   8.835  15.051  16.200  0.0666  0.2541  0.3041
13161W        W30009   4.116   9.535   0.356 -0.0729 -0.0317 -0.1590
13162W        W30010  16.222  11.463  12.679  0.1365 -0.2337 -0.0646
13163W        W30011   6.718  12.498  16.091 -0.1320  0.1284  0.0259
13164W        W30012  17.668   9.560   3.938  0.0913 -0.2802 -0.1432
13165W        W30013   6.748  12.045   3.576 -0.2958  0.2212 -0.2880
13166W        W30014   5.313   2.433  15.139 -0.2343  0.1241  0.1601
13167W        W30015  12.650   0.351   3.053 -0.4169 -0.0364  0.3883
13168W        W30016   4.685  12.485  12.983 -0.1117 -0.0751  0.0282
13169W        W30017   2.202   0.922   1.283  0.0102 -0.1802  0.2344
13170W        W30018  16.303   5.607  11.452  0.0819 -0.2003 -0.0920
13171W        W30019   1.219  15.331  13.708 -0.1484  0.0479  0.1870
13172W        W30020   3.802  17.118   2.891  0.2292 -0.2706 -0.0622
13173W        W30021   6.174   5.588   2.445 -0.0945 -0.0019  0.0597
13174W        W30022   3.872  11.854   2.017 -0.2512  0.3077  0.0715
13175W        W30023  15.093   3.546   0.336 -0.1483 -0.3046  0.1142
13176W        W30024  15.554   2.976   3.677  0.2169 -0.1230 -0.0744
13177W        W30025   3.774   9.123   2.154 -0.0592 -0.2225  0.4606
13178W        W30026   0.183  16.573  11.186  0.3597  0.1002  0.0966
13179W        W30027  11.819   2.426   1.584 -0.1555  0.2469  0.0215
13180W        W30028   7.495   6.261   4.548 -0.1433  0.1159 -0.0304
13181W        W30029  14.139  17.832  10.882 -0.0270 -0.0358 -0.0167
13182W        W30030  14.514   6.658   1.892  0.0412  0.2440  0.1690
13183W        W30031  16.462  11.363   5.288 -0.1099 -0.4450  0.5786
13184W        W30032  14.584   3.896   2.609 -0.0994  0.0153 -0.1870
13185W        W30033   2.545  13.840  11.031  0.2467 -0.2606 -0.1100
13186W        W30034   8.817  10.576  15.218 -0.1780 -0.0581 -0.2202
13187W        W30035  12.945  17.222   2.999  0.2152  0.1338  0.3102
13188W        W30036  11.772  11.752  15.501 -0.1012  0.2182 -0.0257
13189W        W30037   9.221  16.439   5.491 -0.0155  0.0868 -0.5466
13190W        W30038  11.671  14.077  13.925  0.1945 -0.2835 -0.1997
13191W        W30039  13.476   7.699   4.827  0.1461 -0.1858 -0.0664
13192W        W30040   8.208  11.538  11.800  0.2521  0.2508  0.1227
13193W        W30041   0.434   7.005   2.480  0.0928 -0.1104  0.0567
13194W        W30042  11.969   3.036  12.494  0.1231  0.0649 -0.0208
13195W        W30043   4.593   2.297   4.946 -0.0949  0.0192 -0.4183
13196W        W30044   4.476  12.112  14.331 -0.3863  0.0872 -0.0241
13197W        W30045  14.640  12.581  10.782 -0.0743  0.0653  0.0469
13198W        W30046   4.787  13.400  13.844 -0.0726 -0.0050 -0.1983
13199W        W30047   8.857   8.030   6.173 -0.0052 -0.3036  0.0641
13200W        W30048   5.817   6.543  12.689 -0.0493 -0.0153  0.0682
13201W        W30049  11.752  11.209  15.155 -0.2161 -0.0974  0.0248
13202W        W30050   4.552   0.955  14.792 -0.0027 -0.0738 -0.0963
13203W        W30051   6.704   7.607  13.131 -0.0489 -0.0091  0.0411
13204W        W30052  13.098  10.227  14.315  0.0603 -0.0711  0.1751
13205W        W30053  12.965  13.473   0.366 -0.0744 -0.1026 -0.0029
13206W        W30054  15.261  10.034  11.298  0.3659 -0.1476 -0.2637
13207W        W30055   5.989  10.036  16.263  0.1805 -0.0660 -0.1746
13208W        W30056   1.354   5.160  14.760  0.2100 -0.2156 -0.0466
13209W        W30057  15.911   5.732  12.721  0.2691 -0.1675 -0.0409
13210W        W30058   5.066   0.919   4.316  0.4251 -0.0779 -0.3267
13211W        W30059  14.301  13.971  12.031 -0.0735  0.3298 -0.2325
13212W        W30060   2.243   3.972   3.891  0.2219  0.2682  0.1419
13213W        W30061   2.457   5.857  16.112 -0.0612 -0.0003  0.1874
13214W        W30062   3.155   2.538  14.833  0.1412  0.1782 -0.2085
13215W        W30063  17.232  15.491   1.349  0.2709  0.1142 -0.0408
13216W        W30064   4.246   8.195   5.230  0.3327 -0.3365 -0.2442
13217W        W30065   7.305   5.830   2.105 -0.0393  0.0261  0.0687
13218W        W30066  13.764   8.332  13.303 -0.0052  0.1318 -0.1538
13219W        W30067   3.617   9.846   6.382  0.1546 -0.1743 -0.3189
13220W        W30068   1.411   6.305   1.248 -0.2985 -0.0420 -0.0935
13221W        W30069   8.462   9.881  11.930  0.2076  0.2713 -0.0783
13222W        W30070   4.708   4.109  15.358 -0.0294  0.0106 -0.3279
13223W        W30071   6.216   5.118   1.126  0.1136 -0.2158  0.1101
13224W        W30072   6.928   7.700  14.665  0.1584 -0.0707 -0.0048
13225W        W30073   4.507   5.354   4.056  0.0241  0.1131  0.4383
13226W        W30074   4.314   4.596  12.413 -0.0124 -0.0114 -0.2336
13227W        W30075   3.821  10.615  15.926  0.1143 -0.0222 -0.0781
13228W        W30076  16.666   7.351  12.667 -0.0258  0.1787  0.0084
13229W        W30077  12.442  16.262  15.565  0.0557  0.1047 -0.1978
13230W        W30078   2.223  15.531  15.584 -0.1044  0.1301  0.1243
13231W        W30079   9.996  17.555   1.188  0.1826  0.1758  0.1486
13232W        W30080  14.350   0.597   3.697 -0.2012 -0.5035 -0.3221
13233W        W30081   6.362   0.933  15.852 -0.2360 -0.1500  0.1178
13234W        W30082  17.426  10.564  13.011  0.4295 -0.2379  0.0988
13235W        W30083   9.796  15.639  15.871 -0.1074 -0.1325 -0.0027
13236W        W30084  15.000  10.831  15.159  0.2072  0.0150  0.0999
13237W        W30085   4.039   1.465  16.157  0.0398 -0.0024 -0.3608
13238W        W30086  15.695   5.680   3.316 -0.1692  0.2393 -0.1722
13239W        W30087   6.660   6.557  15.916 -0.1726  0.1193  0.0396
13240W        W30088   7.274   2.595   4.471 -0.2539  0.2538  0.0245
13241W        W30089  12.129  12.444  12.038  0.1421  0.0597  0.0498
13242W        W30090   4.352   1.307   2.487  0.3003 -0.0694 -0.0708
13243W        W30091  12.316  14.160  15.875 -0.0809 -0.0244 -0.1857
13244W        W30092   0.251  11.671   4.703 -0.3019 -0.0715 -0.1537
13245W        W30093  17.717   2.185  13.275  0.0189 -0.3053  0.1026
13246W        W30094   0.250  14.268   3.533 -0.0896  0.0575  0.1899
13247W        W30095   1.644  15.494   1.778 -0.4152  0.0949  0.1710
13248W        W30096   9.055  14.134  12.375 -0.0556 -0.1443  0.0446
13249W        W30097   4.954   0.094  12.979  0.4241  0.0670  0.0133
13250W        W30098   7.944  16.957  14.504  0.3022 -0.0321  0.0315
13251W        W30099   1.264  12.311  13.949 -0.1961 -0.2052 -0.3413
13252W        W30100   7.822   4.241   3.594 -0.0602  0.0425 -0.3199
13253W        W30101  11.762   9.516   4.091 -0.0226  0.2935  0.1617
13254W        W30102  17.874   9.783  11.524 -0.0035 -0.0688  0.3674
13255W        W30103  11.370   7.676  16.359 -0.2092  0.1822 -0.0861
13256W        W30104   3.566  16.269  13.985 -0.0234  0.2246  0.1385
13257W        W30105  11.102   1.604  15.444 -0.2873  0.1563 -0.2760
13258W        W30106   3.916  11.500  14.395  0.1909 -0.0248 -0.0294
13259W        W30107  13.728   8.688   4.713 -0.0544  0.0970 -0.2937
13260W        W30108   7.525  16.935  14.135 -0.0541  0.2642  0.2413
13261W        W30109   6.926   0.801  15.961  0.3280  0.0485 -0.0924
13262W        W30110   4.389  10.731   0.733  0.0623  0.1208 -0.0264
13263W        W30111   9.953   6.909   1.147  0.0932  0.0574  0.2598
13264W        W30112   4.538   8.825   2.753 -0.0255  0.1255 -0.0304
13265W        W30113  10.696   4.452   2.525 -0.2351  0.2570  0.0227
13266W        W30114  14.943  10.417   5.178  0.0338  0.0357  0.0446
13267W        W30115  16.525   4.918  16.067  0.1765  0.3058 -0.1564
13268W        W30116  13.248   0.654   3.772  0.0119  0.1826  0.0816
13269W        W30117   8.039  17.747   0.796 -0.1548  0.1115  0.0640
13270W        W30118   9.858  16.478  13.285 -0.1016  0.1007 -0.1873
13271W        W30119   5.346   9.137  15.089  0.0079  0.2033  0.1756
13272W        W30120   6.435  15.625  14.758  0.0932 -0.1045  0.2300
13273W        W30121   1.464  11.814  12.122 -0.0980  0.2239 -0.1582
13274W        W30122   6.890  16.356  12.928 -0.2529  0.2252  0.0039
13275W        W30123   2.209   3.792  13.119 -0.2516  0.0218 -0.2855
13276W        W30124  16.586   2.845   3.207 -0.2130 -0.0506  0.4011
13277W        W30125   7.716  16.785   1.873 -0.0614  0.3898  0.0458
13278W        W30126  10.012  12.913   0.680  0.0787  0.0034 -0.1597
13279W        W30127   2.445  17.606  14.611 -0.1964 -0.0989  0.2149
13280W        W30128  15.061  11.589  11.344 -0.1678  0.2024 -0.1208
13281W        W30129  15.984   6.919   5.068 -0.2117  0.0337  0.0720
13282W        W30130   9.896   6.974  10.748  0.1671  0.2562  0.0498
13283W        W30131  10.316  15.966  12.609 -0.2799 -0.3950  0.0337
13284W        W30132  13.319  14.653  14.382  0.1027 -0.1643  0.2235
13285W        W30133  13.139  12.233   4.940  0.2952  0.1013  0.1189
13286W        W30134   9.566   2.833   2.837  0.0786  0.0534  0.2980
13287W        W30135  14.789  14.649  10.693  0.1696  0.0259  0.1440
13288W        W30136   3.800   0.777   4.544 -0.0587 -0.3639  0.0844
13289W        W30137  15.723  10.156   2.488 -0.0337  0.1557  0.2148
13290W        W30138   9.132   7.199  14.198 -0.0187  0.0459 -0.0975
13291W        W30139   0.902  16.330  15.705 -0.0791  0.0845  0.3138
13292W        W30140  13.943   5.669  14.601  0.0955  0.2573 -0.3200
13293W        W30141  13.441   1.710   1.669 -0.0528  0.0503  0.0984
13294W        W30142   6.270  15.279   1.070 -0.2121  0.3084  0.1615
13295W        W30143   9.398   6.034   3.770 -0.1430  0.1010  0.0258
13296W        W30144  12.551  13.152   1.666  0.2042  0.1247  0.0833
13297W        W30145  14.041  14.776  11.518  0.0759 -0.0988  0.0659
13298W        W30146   9.500   1.222  13.905  0.0264  0.0710 -0.0363
13299W        W30147   6.886  12.933   2.188 -0.1082 -0.1384 -0.1726
13300W        W30148  17.826  10.339   0.022  0.0840 -0.1906 -0.0435
13301W        W30149   1.535   8.062  14.037 -0.0506  0.0910  0.2976
13302W        W30150  11.547   6.851  15.348 -0.1403  0.4510  0.3568
13303W        W30151   4.101   9.735  13.948 -0.2924 -0.1272 -0.4406
13304W        W30152  16.008   4.358  16.337 -0.0320  0.0834 -0.0034
13305W        W30153   2.004   8.562   0.355 -0.0337 -0.1352 -0.1931
13306W        W30154   2.527  10.743   5.003 -0.0115  0.0899  0.1310
13307W        W30155   3.925   3.087  12.306  0.1554 -0.0170  0.1566
13308W        W30156  15.617  15.864  14.652  0.0170  0.3158 -0.0901
13309W        W30157   8.902  15.370  13.475 -0.3160 -0.0744 -0.2583
13310W        W30158   3.323   5.068  14.030 -0.0967 -0.0912 -0.1085
13311W        W30159   3.277   8.582  12.731 -0.2666 -0.3369 -0.1290
13312W        W30160   3.498   4.008   3.292  0.0399 -0.0604 -0.2235
13313W        W30161  10.130  12.108  13.854  0.0484 -0.3811  0.1904
13314W        W30162  11.730  10.846  11.954  0.2001  0.1284 -0.4325
13315W        W30163  14.290   0.872   3.187 -0.1358 -0.2644  0.0514
13316W        W30164   8.074   7.556  13.380  0.0730  0.1311 -0.2404
13317W        W30165   8.706   5.267  12.511  0.2119  0.3815 -0.0497
13318W        W30166  10.207  10.048   6.482 -0.1503 -0.2962 -0.1135
13319W        W30167  14.273  13.043  15.459 -0.0002  0.1710  0.2606
13320W        W30168   4.773   9.465   5.720 -0.2563  0.2205  0.1541
13321W        W30169  12.711  15.684  12.406 -0.1705  0.3616 -0.3100
13322W        W30170   8.134   3.864  16.161  0.2336  0.4726 -0.1235
13323W        W30171   8.486  13.355   1.508  0.0890  0.2712  0.0125
13324W        W30172  16.796  12.327  12.574 -0.0220  0.1308  0.1677
13325W        W30173  11.344  17.604  15.785  0.0055  0.4433  0.1823
13326W        W30174   9.383  15.159  14.362 -0.0655 -0.0378  0.1946
13327W        W30175   1.588   4.617   0.843 -0.1916 -0.1354  0.0636
13328W        W30176   9.334   0.661   2.176  0.1835 -0.3806  0.3271
13329W        W30177   4.329   8.765   3.975 -0.0482  0.2793  0.0029
13330W        W30178  10.396   4.232  12.983 -0.1875  0.2280  0.1542
13331W        W30179  10.129  10.579  11.310  0.1797 -0.1017  0.2312
13332W        W30180  16.799   4.020  12.540 -0.5420 -0.1304 -0.0902
13333W        W30181  14.638  15.339  14.054 -0.1083  0.0329 -0.2086
13334W        W30182   3.200  15.228  13.888  0.0672 -0.1241  0.3733
13335W        W30183   3.651   6.888   4.060 -0.3575 -0.2235 -0.0639
13336W        W30184   4.954   2.280   4.611  0.0460 -0.0625 -0.1081
13337W        W30185   9.960  17.768   2.991  0.1791  0.0657  0.3203
13338W        W30186   9.880   4.218   2.457 -0.0595  0.0302 -0.0873
13339W        W30187  12.185  13.745   4.571 -0.0540  0.0152 -0.2128
13340W        W30188  12.698  16.312  14.367 -0.3061 -0.1311 -0.0521
13341W        W30189  14.914  15.313  14.950  0.0107  0.0224  0.1645
13342W        W30190   2.548   5.217  14.424 -0.0202  0.2220 -0.1745
13343W        W30191   4.251   1.448  15.116 -0.0617 -0.1038  0.1980
13344W        W30192  13.075  14.252  12.712 -0.1228 -0.0800 -0.1971
13345W        W30193  13.066   6.189   2.826  0.2145  0.2891  0.1919
13346W        W30194   8.151  12.615  13.757  0.0186 -0.0404  0.3007
13347W        W30195   3.248  12.763   1.993 -0.0203 -0.2141  0.0479
13348W        W30196   5.564  14.669  14.804  0.2601  0.0963 -0.0744
13349W        W30197   9.512   9.755   1.051  0.0056  0.3250 -0.2219
13350W        W30198   6.012   6.490   1.516 -0.1065 -0.1821  0.3091
13351W        W30199   3.395  16.724  11.696  0.3095 -0.0086 -0.2321
13352W        W30200   7.365   6.169  14.769 -0.3011 -0.1276 -0.0227
13353W        W30201   7.152  17.184   5.266  0.1906  0.0235  0.1795
13354W        W30202   4.293   5.962  14.261 -0.1435  0.0973 -0.1389
13355W        W30203   0.247   5.904  14.557  0.0921  0.1278 -0.1288
13356W        W30204   6.544   8.309   5.267  0.0691  0.2601  0.0961
13357W        W30205   2.594   6.385   3.606  0.0451  0.0637 -0.1745
13358W        W30206   2.416  12.695  12.372  0.0723 -0.1238  0.1782
13359W        W30207   3.057  10.567  13.945  0.0852  0.2383 -0.2660
13360W        W30208  16.928  10.150  13.569  0.0533 -0.2408 -0.1091
13361W        W30209   4.055  16.440  13.851  0.0877  0.0759 -0.0917
13362W        W30210   1.299  11.048  12.933 -0.1851 -0.0736  0.0656
13363W        W30211   1.303   0.066  12.554  0.0006  0.1192  0.0107
13364W        W30212  13.326   7.960   4.341 -0.1552 -0.1469  0.2076
13365W        W30213  12.015  11.832   4.682  0.1334 -0.1407  0.0526
13366W        W30214   9.296   3.324   3.746 -0.0299 -0.3042 -0.0593
13367W        W30215   6.574  13.160   3.966  0.0536  0.1908  0.0471
13368W        W30216   4.568   5.314   4.927  0.0627 -0.0902 -0.4010
13369W        W30217   1.449  10.964  14.905 -0.1622 -0.1324  0.0806
13370W        W30218   3.381  12.726  14.002  0.0144 -0.0265 -0.2289
13371W        W30219  16.415  15.640  15.820 -0.0853 -0.0830  0.0532
13372W        W30220   2.419  16.570  14.082 -0.1815 -0.0049  0.0253
13373W        W30221   1.444   7.905   2.471 -0.1218  0.1259  0.1272
13374W        W30222   7.584   5.328  14.340  0.2696 -0.0320  0.0617
13375W        W30223  14.822   2.682  13.076  0.0189  0.0547 -0.0218
13376W        W30224  12.878  15.072  10.910  0.3329 -0.0807  0.1564
13377W        W30225  17.123  14.454  14.126  0.1844  0.2051  0.1535
13378W        W30226  10.977  15.091   5.311 -0.0933  0.1986 -0.1666
13379W        W30227   2.032   5.520  11.986  0.3470  0.3483  0.3343
13380W        W30228   3.177  17.883   4.900  0.1720 -0.2304  0.0610
13381W        W30229   5.042   1.391   5.145 -0.2315 -0.0091 -0.0916
13382W        W30230  16.747  16.152   1.568 -0.0914 -0.0941  0.1179
13383W        W30231   8.637   5.765   3.998 -0.2494 -0.0675 -0.0163
13384W        W30232  16.970  12.594  10.983 -0.2650 -0.1230 -0.1094
13385W        W30233   7.067  10.622   4.024  0.3677 -0.0107  0.1991
13386W        W30234  11.326  11.867  16.274 -0.2526  0.3872 -0.0139
13387W        W30235   3.672  16.253  15.114  0.0664  0.1095 -0.2654
13388W        W30236  10.065   6.459  13.251 -0.1014 -0.1420 -0.1374
13389W        W30237   7.291  13.038  13.173 -0.1466  0.3613 -0.2536
13390W        W30238   3.393   7.282   4.343 -0.0244  0.0830  0.2915
13391W        W30239  14.715  17.358  10.886  0.0886  0.1407 -0.2005
13392W        W30240  16.601  13.307  14.523  0.2199 -0.2592 -0.0350
13393W        W30241  17.466   6.455  15.217 -0.1600 -0.0525 -0.0479
13394W        W30242  10.403  15.830   1.574  0.0334 -0.2713  0.1201
13395W        W30243   0.057   1.239   0.609  0.0958  0.2682 -0.2481
13396W        W30244  13.290   7.842  14.166  0.0499  0.2691 -0.1547
13397W        W30245   4.090   2.775   4.861 -0.2588 -0.0190 -0.2573
13398W        W30246   9.918  12.411  11.982 -0.1376  0.1495  0.0774
13399W        W30247  12.120   4.131   4.019 -0.2190  0.1685  0.1109
13400W        W30248  12.142  14.063  13.737  0.0331 -0.2238  0.0456
13401W        W30249  17.748  12.490   2.937  0.0633  0.2594 -0.2122
13402W        W30250   3.357  10.844  15.850  0.7168  0.3798  0.2060
13403W        W30251   4.503   2.544  14.370  0.0061 -0.0441  0.3034
13404W        W30252   5.173  17.574   1.005  0.1528  0.1600 -0.2089
13405W        W30253   8.007   5.762  12.599  0.0873 -0.1544 -0.0344
13406W        W30254   7.575   2.474   3.351 -0.0596  0.1650  0.1035
13407W        W30255   4.045   7.041  15.241  0.4339  0.1063  0.3174
13408W        W30256   5.241   7.933   3.473  0.1883 -0.0418  0.0847
13409W        W30257   9.469   2.815   1.226 -0.1604  0.1815 -0.2756
13410W        W30258  12.869   6.143  15.409  0.0275 -0.1054  0.0183
13411W        W30259  16.782  10.143   5.483  0.3062 -0.1421  0.1012
13412W        W30260  13.918   2.350  11.263 -0.2210  0.1488  0.0850
13413W        W30261  15.363   0.069   2.299 -0.2095  0.0304  0.1560
13414W        W30262   9.867  12.161  12.528  0.0286 -0.0683  0.1827
13415W        W30263  17.844  10.896  14.318  0.2363  0.0879  0.1258
13416W        W30264   0.481   7.842   2.311  0.0274 -0.1475  0.5189
13417W        W30265   6.403   3.965   4.695  0.1740 -0.0088 -0.1274
13418W        W30266  15.484   5.159   4.272  0.2123 -0.2978 -0.0328
13419W        W30267  14.278  17.547  14.097 -0.0106  0.0316 -0.0221
13420W        W30268   7.447  15.244  14.157 -0.0341  0.0245 -0.1310
13421W        W30269   2.320   2.687   3.365 -0.3282  0.1751 -0.1581
13422W        W30270   2.267   5.757  14.892 -0.0831 -0.1118 -0.2030
13423W        W30271  13.149  16.620  14.274  0.1935 -0.2411 -0.2373
13424W        W30272   6.354   4.350  15.234 -0.3184 -0.0812  0.1821
13425W        W30273   2.908   9.992   0.982 -0.2270 -0.1913 -0.1123
13426W        W30274   7.841   1.657  11.379  0.0443  0.0471 -0.0000
13427W        W30275  17.500   0.651   1.751 -0.2187  0.0078  0.0614
13428W        W30276   6.174   3.892   3.833  0.0012 -0.1769 -0.2428
13429W        W30277  15.989   3.805  12.727  0.3451  0.0348  0.1836
13430W        W30278   2.420   9.578  15.723  0.2704  0.2161  0.1775
13431W        W30279  14.798   2.626   2.258 -0.0260  0.0327  0.0803
13432W        W30280   8.025   6.287   2.365  0.0151 -0.0507 -0.2053
13433W        W30281   6.040  12.110   4.126 -0.2227  0.0757  0.2692
13434W        W30282   5.162  11.963  11.242  0.1421 -0.0267  0.1637
13435W        W30283   6.250  10.533   0.932  0.0983 -0.0443  0.0328
13436W        W30284   4.983   7.374   3.004 -0.2635  0.0473 -0.4200
13437W        W30285   5.552  13.893   0.772 -0.0151 -0.1052 -0.0950
13438W        W30286  13.970  14.240  13.905 -0.0291  0.0555 -0.0432
13439W        W30287   2.830  13.639  13.839  0.1542 -0.1970  0.3256
13440W        W30288   0.795  13.477  15.229 -0.1961  0.0144 -0.3687
13441W        W30289  12.103  16.329   2.587  0.0992 -0.0913 -0.0166
13442W        W30290   8.505   9.177  15.604 -0.2194  0.0567  0.1345
13443W        W30291  16.259   1.537  14.859  0.1467 -0.2570  0.1046
13444W        W30292   2.476   4.163  11.051 -0.0594  0.0407 -0.0211
13445W        W30293   9.885   8.290   3.999 -0.1799  0.0567  0.0562
13446W        W30294   7.223  11.908   4.537  0.1898 -0.0777 -0.3593
13447W        W30295  11.877  11.788   3.274  0.1340  0.1960  0.1053
13448W        W30296  10.674   5.179   0.001  0.1846  0.1043 -0.0663
13449W        W30297   1.787  11.642   2.326  0.1557 -0.5406  0.1878
13450W        W30298  13.011  15.221  14.430  0.0487 -0.1518  0.1556
13451W        W30299  15.259  12.965   1.702  0.0187 -0.4293  0.5093
13452W        W30300  15.401   7.989  11.655 -0.0850 -0.0008 -0.2574
13453W        W30301   4.365  11.960  15.800 -0.3012 -0.0665 -0.1407
13454W        W30302  14.332   2.497  13.346 -0.1602  0.0960  0.1454
13455W        W30303  10.633  16.608   4.074  0.1459  0.3117 -0.0821
13456W        W30304  10.590   5.746  13.928  0.3460 -0.1569 -0.1147
13457W        W30305  10.872  13.944   0.180 -0.0188 -0.2961  0.1609
13458W        W30306   9.720  13.766  12.804  0.1254 -0.2403 -0.1333
13459W        W30307  15.889  15.768   1.340 -0.0725 -0.2898 -0.0515
13460W        W30308  11.933  15.898   2.286  0.1399  0.1358  0.0062
13461W        W30309   4.691   7.708  14.484  0.1628 -0.0076 -0.3944
13462W        W30310  17.356   8.045   2.371 -0.3720  0.1557  0.3127
13463W        W30311  10.594  16.636  11.894 -0.0650  0.0388 -0.3632
13464W        W30312   8.821   8.034   4.748 -0.0828 -0.1255 -0.1478
13465W        W30313  11.424   2.776  14.819  0.3009 -0.1962  0.3498
13466W        W30314   3.104  13.223  15.505 -0.0411 -0.5243 -0.1627
13467W        W30315  16.040  14.041  12.694 -0.4431  0.1993 -0.2962
13468W        W30316  10.827   3.398  14.475 -0.2339 -0.0366 -0.3185
13469W        W30317   4.099   3.762   4.104 -0.0422  0.0008 -0.4408
13470W        W30318   5.355   3.091  12.942 -0.1725  0.2704 -0.0972
13471W        W30319  15.953   8.046  13.420 -0.1147  0.0525  0.0178
13472W        W30320  10.130   5.552   4.843  0.0334 -0.0438  0.0196
13473W        W30321   2.670  16.395  13.127 -0.2833 -0.0482 -0.0859
13474W        W30322   3.602   1.165  11.468  0.2184 -0.0156 -0.1135
13475W        W30323  14.314   6.195   2.649  0.0777  0.0407 -0.0559
13476W        W30324   1.594   5.332   4.382  0.0253 -0.1880  0.2653
13477W        W30325  17.640   3.629  14.388 -0.2524 -0.2706 -0.0087
13478W        W30326  11.554  11.532  11.300  0.0652 -0.0508 -0.2464
13479W        W30327   8.619   9.646   0.155  0.3722  0.0306  0.1327
13480W        W30328   6.224  16.751   6.110  0.1758 -0.1821 -0.1271
13481W        W30329   2.026  11.042  11.796  0.0269 -0.0587  0.2002
13482W        W30330  13.776  11.661   6.010  0.0563 -0.0295  0.2056
13483W        W30331   6.386   2.968   4.634 -0.1956  0.2232 -0.1444
13484W        W30332   4.405  17.086   0.691 -0.2612 -0.0327 -0.0902
13485W        W30333   8.409  12.081  13.565  0.1067  0.1681  0.0256
13486W        W30334  13.485   1.893  14.047 -0.1531 -0.0839  0.1023
13487W        W30335  13.091   1.061  14.602 -0.0183  0.1931 -0.0121
13488W        W30336   6.512  17.449  15.586  0.1221 -0.0015 -0.0961
13489W        W30337   8.481   0.558  11.093  0.2573  0.0732 -0.0524
13490W        W30338  12.298  13.793  15.554  0.1493 -0.2957 -0.1311
13491W        W30339  11.145  14.463   4.775 -0.2054  0.2832  0.2479
13492W        W30340  13.078  13.895   1.365 -0.1349 -0.0590 -0.0169
13493W        W30341   4.517  17.027   1.167  0.0876 -0.1801 -0.0064
13494W        W30342  10.131   4.343   5.599 -0.0410  0.1665 -0.3472
13495W        W30343  12.562  16.143  13.292  0.0313  0.0301 -0.0085
13496W        W30344   0.714  15.909  11.508 -0.0982  0.2366  0.1003
13497W        W30345  10.737   5.110   0.924 -0.0746  0.0881 -0.3397
13498W        W30346  14.769  13.568   5.301  0.0832 -0.1004 -0.0045
13499W        W30347   1.930   2.976  12.147  0.4546 -0.3182  0.0930
13500W        W30348   7.259  12.722   1.897 -0.0922  0.0566 -0.0950
13501W        W30349   6.326  15.713   3.622 -0.0337  0.0739  0.0353
13502W        W30350  14.689   8.539   2.938 -0.1131 -0.0571 -0.3209
13503W        W30351  14.547  14.670   3.341  0.0671  0.0336 -0.1356
13504W        W30352  10.814   3.279  11.810  0.3134 -0.2650 -0.1445
13505W        W30353   2.738   1.069  12.377 -0.2088  0.0005 -0.2598
13506W        W30354   1.249   8.800  15.289 -0.0223 -0.1463 -0.1669
13507W        W30355   0.904   7.369   2.191  0.3705  0.1145  0.1985
13508W        W30356   6.661  17.306   4.378  0.2323  0.1063  0.0028
13509W        W30357  11.115  11.893   5.340 -0.3293  0.1180 -0.0625
13510W        W30358   0.944  13.903   4.762 -0.1904  0.0795  0.2718
13511W        W30359   4.860  16.030   4.808 -0.0109  0.1141 -0.4268
13512W        W30360  11.341  16.380   1.738 -0.4835  0.1220 -0.1096
13513W        W30361   3.182  16.244  13.639  0.0815 -0.2442 -0.2606
13514W        W30362   5.407  13.408   5.353  0.2079 -0.1912 -0.1923
13515W        W30363  15.509   6.673   0.810  0.2922 -0.1256 -0.1569
13516W        W30364   4.902  17.454  12.623 -0.0860  0.1831 -0.1318
13517W        W30365   1.615  14.618  15.146 -0.1356  0.2404 -0.1921
13518W        W30366   4.274   4.336  16.186 -0.0034 -0.0712  0.0479
13519W        W30367   3.168   2.604   4.633 -0.5340  0.0768  0.0788
13520W        W30368  12.357  11.906   0.915 -0.0117 -0.0069 -0.0875
13521W        W30369   8.483  16.969  15.157 -0.2091  0.2241  0.2476
13522W        W30370  13.651   4.951  16.459  0.0360 -0.1495  0.0766
13523W        W30371  14.722  10.094   3.332  0.1452  0.2083  0.2178
13524W        W30372   8.503  14.147  15.131  0.2772  0.0945  0.0319
13525W        W30373   0.957   6.171  14.649 -0.0981 -0.1039 -0.3223
13526W        W30374  13.034   1.178  11.402  0.1972  0.3671  0.1772
13527W        W30375  16.262   1.000  12.918  0.0151  0.1570 -0.0146
13528W        W30376   9.480  17.239  14.234 -0.1639  0.3935 -0.0942
13529W        W30377   9.499  11.931  15.347 -0.1393  0.0309  0.0355
13530W        W30378  16.365   8.608   1.223 -0.2677 -0.0370  0.0735
13531W        W30379   3.382   2.940  11.126  0.0582  0.0943 -0.1740
13532W        W30380   5.017  17.165  11.802 -0.2782 -0.3135 -0.0180
13533W        W30381  17.166   5.248  16.410 -0.1511  0.0087  0.0453
13534W        W30382   6.359  16.884  15.493  0.2848 -0.0692  0.1009
13535W        W30383   6.522   4.610  11.629 -0.0426 -0.0037 -0.0354
13536W        W30384   1.192  14.656   3.122  0.0477  0.1157 -0.0411
13537W        W30385   3.731  14.119   3.200  0.0974 -0.0531  0.1365
13538W        W30386  12.005   8.922   2.175 -0.2695 -0.1260 -0.1116
13539W        W30387   9.885   9.758   1.407 -0.1573 -0.1926  0.2204
13540W        W30388  16.360   9.790   1.255  0.1506 -0.1218 -0.1288
13541W        W30389  10.886   3.714  13.770 -0.3264 -0.1160  0.1003
13542W        W30390  13.370   6.985  15.141  0.0421  0.2255  0.1820
13543W        W30391   0.323  10.130  12.663  0.1480 -0.2583 -0.0828
13544W        W30392  13.165   3.045  14.713  0.0825 -0.1056  0.1269
13545W        W30393   0.547  15.275   4.404 -0.1702  0.0571 -0.3431
13546W        W30394   8.840   0.002  13.675 -0.2019  0.1463  0.1090
13547W        W30395  14.927   7.699  13.557  0.2031  0.1156 -0.0518
13548W        W30396   0.938   9.042   0.904 -0.0457 -0.0244 -0.0318
13549W        W30397   1.236  13.350  13.534 -0.0531  0.0333  0.0804
13550W        W30398   7.156  16.228  14.579 -0.1061 -0.1919 -0.2530
13551W        W30399  15.652   2.621  13.141  0.0239  0.1097 -0.0460
13552W        W30400   4.919  15.354   1.149  0.0718 -0.0200  0.1798
13553W        W30401   1.934   1.633   5.656 -0.4651  0.1144 -0.3893
13554W        W30402  15.569   4.575   1.155  0.0462  0.0518  0.0400
13555W        W30403  13.408  10.694   0.306 -0.2083 -0.0657  0.0299
13556W        W30404   1.014   4.316   1.531  0.2721  0.2370 -0.0224
13557W        W30405   6.238   8.428  14.026  0.1975 -0.0712 -0.3983
13558W        W30406  11.816   4.377  12.706 -0.2309  0.0101 -0.0600
13559W        W30407   4.976   6.242  15.272 -0.1132  0.1298  0.0454
13560W        W30408  12.009  10.509  15.919 -0.0497  0.0719  0.1382
13561W        W30409   4.918   6.245   0.672 -0.0868  0.5073  0.2451
13562W        W30410  10.645   8.159   0.276 -0.0646 -0.3424 -0.2942
13563W        W30411   6.789   1.060   5.809  0.0461  0.0768  0.0559
13564W        W30412   9.015   3.606   4.006 -0.1412  0.0303 -0.2966
13565W        W30413  10.118   5.638  15.390  0.0460 -0.0927  0.1459
13566W        W30414   0.947   0.076   3.608 -0.0000 -0.0687  0.0256
13567W        W30415   2.423  17.322   3.162  0.0776 -0.1152  0.1717
13568W        W30416  15.146   0.070  15.251  0.1261  0.2460  0.0133
13569W        W30417  13.214  13.684  12.758 -0.2313 -0.3465 -0.3080
13570W        W30418  15.783   1.703   1.620  0.0926  0.0693  0.3403
13571W        W30419   6.409  10.233  11.139 -0.0278  0.1797  0.0595
13572W        W30420   2.451   2.988  13.283 -0.0994 -0.1351 -0.2194
13573W        W30421   7.799   9.814   4.236 -0.1366 -0.2215 -0.1461
13574W        W30422   7.047   4.516  13.117 -0.2621 -0.1242 -0.0270
13575W        W30423   3.942   6.047  11.609 -0.1131  0.1735  0.0348
13576W        W30424  13.409   6.399  11.567 -0.0658  0.2035 -0.2887
13577W        W30425   6.442   9.365  13.955 -0.1847  0.0751 -0.2413
13578W        W30426   0.431  15.443   3.666  0.2349  0.1152  0.0832
13579W        W30427  10.072  12.615  13.265  0.0891 -0.0097 -0.2026
13580W        W30428  12.180   7.379  13.912 -0.0925  0.1790  0.1198
13581W        W30429  12.852  16.409   1.071  0.0138 -0.1231 -0.1339
13582W        W30430  11.116  10.980  12.522  0.0322 -0.0089  0.3780
13583W        W30431   8.720  14.743  12.777 -0.1179 -0.1044  0.1453
13584W        W30432   7.485   8.269  11.372 -0.2658 -0.1382 -0.0320
13585W        W30433  12.404   0.698  12.353  0.2905 -0.1036  0.1646
13586W        W30434  17.832  13.549  12.100 -0.1574 -0.0144  0.0837
13587W        W30435  10.114  17.325   3.893 -0.0790  0.0749 -0.1779
13588W        W30436   6.949   8.032  15.035 -0.0304  0.2805 -0.1003
13589W        W30437   3.913   3.881   5.106  0.0775  0.2769  0.0082
13590W        W30438   3.262  11.055  16.325 -0.1016 -0.0164  0.1404
13591W        W30439   1.232   7.662  12.613  0.2415  0.0883 -0.0298
13592W        W30440  11.388   7.030   4.593  0.1318 -0.0281 -0.0223
13593W        W30441   2.682   7.960  15.874 -0.0509 -0.1222 -0.0597
13594W        W30442   6.234   5.639  12.570  0.2624 -0.1010  0.0022
13595W        W30443   9.710   3.201  14.759  0.0178 -0.1073  0.0406
13596W        W30444   7.426  14.377   1.441 -0.1596  0.1510 -0.0784
13597W        W30445  11.779   7.863   3.620  0.0385 -0.0202  0.0833
13598W        W30446   9.230  14.655  12.439  0.0097 -0.0120 -0.2007
13599W        W30447   6.819  14.896   5.638  0.0827  0.1671  0.3143
13600W        W30448   1.477   7.683   4.682 -0.1618 -0.1740  0.2232
13601W        W30449  12.821  10.390   0.062  0.2040 -0.1787  0.1097
13602W        W30450  16.710  17.218  14.860 -0.1143  0.0670 -0.1449
13603W        W30451   7.849   9.838  13.962  0.0306 -0.2879  0.0157
13604W        W30452   0.236  14.520   4.293  0.1520  0.1054 -0.2906
13605W        W30453   8.054  12.180  15.244  0.0557  0.2292  0.0031
13606W        W30454   7.251  12.361   2.760 -0.1327 -0.0259 -0.0280
13607W        W30455   9.376   3.692   4.634 -0.3048 -0.1604 -0.0990
13608W        W30456  16.828  15.219   2.514 -0.2128 -0.2479 -0.0658
13609W        W30457   4.521  16.375   3.891  0.1184  0.3669 -0.1208
13610W        W30458   0.297  11.950  14.857 -0.0506  0.0668 -0.1979
13611W        W30459  10.309   1.432  14.752 -0.0427 -0.0063 -0.2982
13612W        W30460  11.767   9.539  15.779  0.0142 -0.3173  0.0023
13613W        W30461  15.977   9.303  12.993 -0.0079 -0.0979  0.0397
13614W        W30462  11.031   6.431  12.876 -0.2426 -0.1361  0.0323
13615W        W30463  15.438  15.485   1.217  0.1136  0.1336  0.1347
13616W        W30464   3.578  12.454  11.709 -0.0224  0.1680 -0.0499
13617W        W30465  16.002   2.858  14.214  0.2469  0.1062 -0.0861
13618W        W30466   5.426   3.234   3.734  0.1292 -0.1481 -0.1193
13619W        W30467  11.355  15.445   4.725 -0.1004  0.1008  0.2834
13620W        W30468   5.686   4.686   3.597  0.0400 -0.0166 -0.0794
13621W        W30469   0.795  10.403  12.227 -0.0818 -0.0376 -0.0392
13622W        W30470   7.687  12.133   2.098  0.0226  0.1977  0.0069
13623W        W30471   8.837  10.553   4.944 -0.0370  0.2360  0.0835
13624W        W30472   4.617   0.513  14.507  0.1080 -0.4953  0.4835
13625W        W30473  10.716  14.706  11.636  0.0906 -0.0778  0.2250
13626W        W30474  17.649  12.063  12.100 -0.0352 -0.1048  0.2274
13627W        W30475   0.538  12.026  13.455 -0.1229 -0.0274 -0.1476
13628W        W30476  17.705  17.154  13.150  0.2048 -0.0444 -0.0823
13629W        W30477  14.162   0.106   3.490 -0.0807 -0.0839  0.1579
13630W        W30478  15.549  13.365  14.154 -0.2856 -0.0285  0.2054
13631W        W30479   2.688   7.437  11.075 -0.3299 -0.1909 -0.1460
13632W        W30480  11.318   0.629   4.128 -0.0081  0.0516 -0.1433
13633W        W30481  13.692   6.527  11.929 -0.1561  0.0971 -0.1139
13634W        W30482   9.187   8.624   2.891 -0.0621 -0.0778  0.2548
13635W        W30483   1.085  17.803  14.083 -0.1408  0.0706 -0.1654
13636W        W30484  10.083  17.521   2.564 -0.1765 -0.0852 -0.0955
13637W        W30485   2.371  10.212  12.889  0.0378  0.0388 -0.2634
13638W        W30486   6.052   0.551  15.761 -0.0834  0.0575 -0.4466
13639W        W30487   8.901  16.861   5.414  0.0550 -0.0771  0.3718
13640W        W30488  12.841  15.577  15.882  0.1140  0.2104  0.2421
13641W        W30489   5.658  15.656  14.618  0.2904 -0.2414  0.1008
13642W        W30490  16.083  12.130  14.411 -0.0836  0.2191  0.0066
13643W        W30491   9.099  11.953  14.049 -0.3801  0.1900 -0.0059
13644W        W30492   0.221  15.562  16.032  0.0020 -0.1636  0.0754
13645W        W30493   4.896  16.483   3.520 -0.3065  0.0471 -0.1320
13646W        W30494  15.119  12.324  14.278 -0.1948  0.1020  0.1382
13647W        W30495  15.147   3.724   2.719  0.0111 -0.0972 -0.1401
13648W        W30496  17.084   4.370  14.886  0.3043 -0.2859  0.1989
13649W        W30497  13.246   7.047  13.039  0.1251 -0.2052  0.1876
13650W        W30498   0.207   2.258   4.661 -0.2017  0.1704  0.0644
13651W        W30499   2.493   9.763  12.598 -0.2490  0.0279  0.2178
13652W        W30500   0.476   6.527   0.891 -0.1553 -0.2094  0.1496
13653W        W30501   8.375  15.017  12.602  0.2185  0.0003  0.0723
13654W        W30502  15.826   4.261   0.878 -0.3802  0.1628 -0.0602
13655W        W30503  15.885   9.448  14.054 -0.0324  0.1310  0.1359
13656W        W30504  17.704  10.701  15.596 -0.1048 -0.0129 -0.1818
13657W        W30505  10.024  13.200   2.042 -0.4324  0.1123  0.0853
13658W        W30506  16.260   0.614  11.835 -0.0028  0.0030 -0.0247
13659W        W30507   9.546   6.412  12.470 -0.2473  0.2103 -0.0694
13660W        W30508   1.094   8.186   1.148  0.0857 -0.1045 -0.1296
13661W        W30509   8.363   6.709   3.646 -0.0816 -0.0591 -0.1908
13662W        W30510  17.541  13.293   1.684  0.0603 -0.1689 -0.0080
13663W        W30511  13.922   5.788   2.603  0.0877  0.0031  0.1405
13664W        W30512  15.251   5.888   4.457  0.1481 -0.2037  0.2391
13665W        W30513   8.935   8.872  14.087 -0.2012  0.0484  0.0015
13666W        W30514  11.342   4.132   4.476 -0.0437  0.2113 -0.1894
13667W        W30515  13.985   6.362  11.468 -0.0516  0.2074  0.0299
13668W        W30516  13.350  17.443  10.705 -0.3745 -0.1613 -0.0972
13669W        W30517  16.821  16.254  14.090  0.1917 -0.3583  0.3009
13670W        W30518  17.385  13.551  13.681 -0.0411 -0.0376 -0.0184
13671W        W30519   9.726   5.081  12.063 -0.2369 -0.1758  0.2719
13672W        W30520   9.435   1.587  15.161 -0.0223 -0.1291 -0.1602
13673W        W30521   2.544   2.428  11.580  0.1872 -0.0452  0.1257
13674W        W30522  13.691   1.616  16.368  0.0059  0.0168 -0.1851
13675W        W30523  15.199  16.241  11.092 -0.1355  0.0976 -0.0676
13676W        W30524  12.268   1.421  11.127 -0.0828 -0.3471  0.3469
13677W        W30525   0.193   3.633  12.920  0.3846  0.1304 -0.2130
13678W        W30526   9.916  12.565   0.320 -0.2286 -0.0962 -0.0668
13679W        W30527   4.931   8.751   3.849 -0.0429  0.0599 -0.1195
13680W        W30528   4.923   9.107  12.969  0.0046  0.0260  0.0454
13681W        W30529   1.201  12.321  13.441 -0.1727 -0.0428  0.2016
13682W        W30530  13.379  10.338  13.808 -0.0742  0.0485 -0.1849
13683W        W30531  16.840   6.774   0.533 -0.1228 -0.1098 -0.0902
13684W        W30532  11.743   8.925  13.071  0.2259  0.0569 -0.2116
13685W        W30533   6.064  10.787   5.550  0.3367 -0.0459  0.3962
13686W        W30534  12.505   8.719   5.293 -0.3328  0.2256 -0.1527
13687W        W30535  10.041   5.693  12.185 -0.1567  0.1172  0.5987
13688W        W30536  13.874  10.677   1.558  0.2113  0.1718  0.1393
13689W        W30537  13.228   1.314   2.566  0.3309  0.1563 -0.0676
13690W        W30538  14.248  17.145   4.212  0.0366 -0.1455 -0.0197
13691W        W30539   4.965  10.437  12.144  0.0504  0.0962 -0.1920
13692W        W30540   3.641  16.284   4.110  0.2318 -0.1671 -0.1415
13693W        W30541   5.930  10.682   0.386 -0.1580  0.0889  0.0893
13694W        W30542  13.754  15.193   2.473  0.1060 -0.3408 -0.1916
13695W        W30543   9.870   1.181  13.443 -0.1846  0.1836 -0.0348
13696W        W30544  14.439  13.830   1.864 -0.1913  0.0083 -0.1097
13697W        W30545  13.316   8.110   0.071  0.1757 -0.0345 -0.0435
13698W        W30546   9.437  11.277   4.646  0.1054  0.1314 -0.0135
13699W        W30547   5.833  12.618   3.374  0.2045  0.2882  0.1247
13700W        W30548  15.657   7.747  13.173 -0.1784 -0.1356 -0.2103
13701W        W30549  15.827   4.967  11.579  0.0675 -0.3611  0.0243
13702W        W30550  15.616   2.202  11.859  0.2086 -0.1398  0.1112
13703W        W30551   4.801   7.036  11.954 -0.2118 -0.0143 -0.0941
13704W        W30552  11.396  12.016   4.795  0.2874 -0.1457  0.1107
13705W        W30553  16.392  12.050   1.595  0.1495 -0.0786  0.1349
13706W        W30554  17.841   1.194  14.231  0.1110  0.1139  0.1052
13707W        W30555   6.899  11.409  12.815  0.1291 -0.2822  0.1801
13708W        W30556   5.606  14.981   2.425 -0.0685  0.2082 -0.1169
13709W        W30557   4.956  15.779  13.215 -0.3436  0.3136  0.1334
13710W        W30558   9.653   2.188   2.087 -0.0416  0.2867 -0.0140
13711W        W30559   3.605  12.248  14.927  0.1490 -0.0732 -0.0490
13712W        W30560   6.563  10.843   5.291 -0.0327 -0.1091  0.3444
13713W        W30561   7.204   7.788  13.202  0.0746  0.1666 -0.0099
13714W        W30562   1.388  15.750   0.982  0.0687  0.0341  0.0839
13715W        W30563   9.883  11.787   2.197  0.2399  0.0900 -0.3682
13716W        W30564  14.440  16.071  15.020 -0.0204 -0.1896 -0.3234
13717W        W30565   8.639  10.174  12.268  0.0263  0.0031  0.0995
13718W        W30566   3.671   5.250   0.126  0.0354  0.0022 -0.0648
13719W        W30567   2.063   7.394   1.777 -0.1250  0.0647 -0.1332
13720W        W30568  16.715   0.456   1.002  0.1619  0.0359  0.0003
13721W        W30569   5.955  15.948  12.760  0.0119 -0.1372  0.1276
13722W        W30570  17.441   1.702  12.093  0.0895 -0.2212  0.0764
13723W        W30571   6.315   3.132   6.012 -0.0886 -0.0306  0.2195
13724W        W30572   6.712  10.928  12.749  0.3807 -0.0140 -0.3294
13725W        W30573  12.534   0.737  12.940 -0.0967  0.3725  0.2158
13726W        W30574   1.927   3.242  11.660  0.0032  0.1229 -0.2416
13727W        W30575   5.592   6.937   2.665  0.0759  0.2057  0.0522
13728W        W30576   7.905  15.198  16.399 -0.0374  0.4765 -0.0422
13729W        W30577   7.229  15.356  12.759 -0.0237  0.0118  0.0763
13730W        W30578   7.558  13.943   4.561 -0.0019 -0.1032  0.2994
13731W        W30579   4.280   4.449   0.769 -0.0162 -0.0613  0.0121
13732W        W30580   7.032  16.135   2.272 -0.2146  0.1588  0.0394
13733W        W30581   2.789   2.109  13.383  0.2153 -0.1935 -0.2253
13734W        W30582   9.821   8.234   4.474  0.0410  0.0566  0.1720
13735W        W30583  15.894   7.908   0.550 -0.0672  0.0890  0.1250
13736W        W30584  14.928  10.772  13.238 -0.1046  0.1460  0.1458
13737W        W30585   0.503  12.543   5.316  0.1092  0.1114  0.1166
13738W        W30586   8.104   3.841   4.906 -0.1054  0.1306  0.0017
13739W        W30587   4.561   4.012  14.098 -0.3627  0.1024 -0.2912
13740W        W30588  13.639  14.831  11.896 -0.0100  0.0242 -0.0026
13741W        W30589   5.049   1.317   5.719  0.0321 -0.1584  0.1674
13742W        W30590   5.430  17.556   2.867 -0.1666 -0.1575 -0.0338
13743W        W30591   4.770  10.037   1.996 -0.0335  0.0082 -0.0144
13744W        W30592   9.803  15.703   3.900  0.2222 -0.1358  0.2196
13745W        W30593  10.075  16.860  12.232 -0.3302 -0.0993  0.2865
13746W        W30594  14.939   8.839   5.157 -0.2749 -0.2305 -0.0976
13747W        W30595   7.808   2.235  14.920 -0.0353  0.1267  0.1247
13748W        W30596  10.355   0.405   0.282  0.2947  0.0720  0.3104
13749W        W30597  16.898   1.830   0.918  0.0069  0.0171 -0.1493
13750W        W30598  10.602   1.716  12.917  0.1213  0.0833 -0.2575
13751W        W30599  12.011   5.988  11.886 -0.2015  0.1241  0.2600
13752W        W30600   9.455  10.512  14.801  0.0201  0.0307 -0.0535
13753W        W30601  16.880  15.432  15.636  0.0751  0.1134  0.4284
13754W        W30602   7.226   5.346  15.591  0.0864  0.0676 -0.1979
13755W        W30603  15.284  10.467  11.648  0.4379 -0.1157 -0.2177
13756W        W30604  14.873   3.616  15.959  0.0603  0.0355 -0.0446
13757W        W30605   4.983   8.253  11.980 -0.3681 -0.0564  0.0069
13758W        W30606   7.332   5.302   1.439  0.0810  0.0982  0.1299
13759W        W30607   4.215   4.808  11.663  0.2286 -0.2293  0.2975
13760W        W30608   3.894   1.669  12.178  0.2738  0.1511 -0.1112
13761W        W30609   2.009   3.921  16.177  0.2079 -0.2057 -0.0099
13762W        W30610  16.521   4.363  14.352 -0.0063  0.0362  0.1999
13763W        W30611   1.001   3.584  11.276 -0.1059 -0.0472 -0.3866
13764W        W30612   0.391  12.322   3.157  0.2023  0.3793  0.0715
13765W        W30613   6.388  16.151   1.441 -0.1218  0.0834  0.0326
13766W        W30614   8.295   7.608   3.877 -0.2060  0.0583  0.1213
13767W        W30615   5.800  11.116   3.705  0.3626  0.0133  0.3131
13768W        W30616  14.618   5.430  12.690  0.2446  0.2905 -0.1418
13769W        W30617   8.642   2.677   3.145  0.2749  0.2826 -0.1064
13770W        W30618   7.617   2.676  12.692  0.1785 -0.2009 -0.0292
13771W        W30619   7.918   7.247  12.422  0.0114 -0.1557  0.0937
13772W        W30620  15.686  10.880   3.874 -0.2552 -0.0339  0.0335
13773W        W30621   6.484   6.501   5.686  0.1314 -0.2308  0.0985
13774W        W30622   2.426  15.403  14.055  0.1211 -0.2893 -0.3046
13775W        W30623  11.604  12.434   2.458 -0.0964  0.0790  0.1174
13776W        W30624   6.313  13.118  16.388 -0.1814 -0.1539 -0.1346
13777W        W30625  12.973  14.001  11.831  0.1413  0.0140 -0.1186
13778W        W30626   0.409  11.648   0.115  0.3000  0.1049  0.0562
13779W        W30627   6.479   5.939  15.299 -0.0205 -0.1085  0.0840
13780W        W30628   6.328  16.569   1.747  0.0459  0.1286 -0.1838
13781W        W30629  13.762  11.986  15.326  0.0442  0.2065 -0.5615
13782W        W30630  14.619  16.906   1.548 -0.1127 -0.2935  0.3274
13783W        W30631   1.952   3.052   0.035 -0.1275  0.4998 -0.2637
13784W        W30632   3.467   1.678  12.854  0.0277  0.0688  0.2286
13785W        W30633  11.850   7.210   4.263 -0.2703  0.2197 -0.1033
13786W        W30634   2.657   1.883  15.287 -0.2107 -0.3336  0.1643
13787W        W30635  11.612   3.303   2.610  0.2406  0.1857 -0.0730
13788W        W30636   0.997  13.918   1.652  0.0410 -0.0092  0.2399
13789W        W30637  11.431  10.680  13.448  0.1619 -0.0253 -0.2654
13790W        W30638   9.850   4.849   1.691 -0.0608 -0.1965  0.2073
13791W        W30639   5.746   3.238   3.028 -0.0651  0.0904 -0.3664
13792W        W30640   2.247  14.974  12.103  0.1438  0.0335  0.0485
13793W        W30641  17.614  11.401  14.271  0.0390 -0.3584 -0.2154
13794W        W30642   2.967   9.673  14.575 -0.0416 -0.0595  0.1740
13795W        W30643   8.587   6.432   4.263 -0.0320 -0.0359  0.3767
13796W        W30644   0.868   5.916  11.556 -0.0142 -0.0119  0.2984
13797W        W30645   5.289  12.624  12.218  0.0654  0.0489 -0.0954
13798W        W30646   2.251   8.813  11.655 -0.2269 -0.0956  0.1614
13799W        W30647   7.642  13.396  13.039  0.0213  0.0328  0.0731
13800W        W30648   7.542  17.478  13.000  0.0179  0.0925  0.2127
13801W        W30649   4.797   6.210   5.233  0.1204 -0.0090 -0.0538
13802W        W30650   5.014   0.922  12.873  0.3087  0.0309  0.2286
13803W        W30651  17.283  12.032  10.882 -0.0436 -0.0727  0.0466
13804W        W30652  15.389   9.264  12.201  0.0495  0.3715 -0.1814
13805W        W30653   1.907   0.155  15.094 -0.1550 -0.2198 -0.2017
13806W        W30654   3.149  13.689   1.919  0.1073 -0.1784  0.0784
13807W        W30655   5.546   9.829   5.252 -0.0848  0.1798 -0.2327
13808W        W30656  14.659  14.932  14.477 -0.2301 -0.1411 -0.4481
13809W        W30657  13.862  12.882   2.778  0.2510 -0.0985  0.0427
13810W        W30658  11.672   1.320   2.522 -0.1950  0.0133  0.1982
13811W        W30659  15.837   0.933   2.306  0.0086  0.0300  0.2800
13812W        W30660   5.492   9.943   3.295  0.0476  0.0047  0.0599
13813W        W30661  14.499   4.539  14.850 -0.1841 -0.2490 -0.2068
13814W        W30662   5.611   8.659   3.202  0.0546  0.0805  0.1730
13815W        W30663   3.920  12.642   3.774 -0.0657  0.0231  0.0661
13816W        W30664  12.266  12.800   2.077  0.0747  0.1527  0.1056
13817W        W30665  10.821  16.276   3.607 -0.2146  0.0233 -0.0394
13818W        W30666   6.449  13.339  11.724  0.1210  0.1604  0.0068
13819W        W30667   5.967  12.823  13.443 -0.0838 -0.2061 -0.2138
13820W        W30668   8.799  14.557  13.697  0.0134  0.1890  0.0259
13821W        W30669   0.481  13.169   0.538 -0.1903  0.0590  0.0334
13822W        W30670   3.587   1.204   0.212 -0.2841 -0.0361  0.2924
13823W        W30671  10.914   0.308  15.587  0.0024 -0.0560 -0.2761
13824W        W30672   0.255  11.120   0.342  0.1187  0.2567 -0.2107
13825W        W30673  14.223  12.152  13.438 -0.0397  0.0774  0.0504
13826W        W30674  14.554   9.429  13.542 -0.2757  0.0023 -0.0699
13827W        W30675   4.652  14.178  12.215  0.2901 -0.2482  0.0316
13828W        W30676  14.113   8.444   3.745 -0.0696 -0.3732  0.0818
13829W        W30677   1.119  14.421  16.159  0.1737  0.0838 -0.2345
13830W        W30678   0.386   0.822   5.091  0.0797  0.1181  0.1295
13831W        W30679   3.935   1.594  13.225 -0.0308 -0.0050 -0.0282
13832W        W30680  15.992   7.381  15.681  0.0398 -0.1798  0.2668
13833W        W30681   1.559   3.730   5.293  0.2131 -0.0393 -0.1504
13834W        W30682  11.024   0.159  12.222  0.3177 -0.1468 -0.3913
13835W        W30683   4.260  17.788   3.598  0.4474  0.0703  0.0731
13836W        W30684   3.699   6.990  13.816 -0.1922 -0.1171 -0.0072
13837W        W30685  17.098   0.040  14.229 -0.1318  0.0836  0.3309
13838W        W30686   2.192  15.264   5.388  0.1931 -0.0234 -0.2501
13839W        W30687   5.422   7.389   2.616 -0.1397  0.2192  0.1426
13840W        W30688   6.583  12.581  10.868 -0.0060 -0.1587 -0.0110
13841W        W30689   8.565  12.707   2.452  0.1366  0.0364  0.1495
13842W        W30690   3.413   1.620  14.606  0.1733 -0.2350 -0.0523
13843W        W30691   3.845  14.162   1.404  0.1082  0.0787 -0.0665
13844W        W30692   1.893  15.747  14.308 -0.2495 -0.2678  0.2743
13845W        W30693  12.669   3.827  12.965 -0.1003 -0.1289 -0.1468
13846W        W30694   5.750  10.676   4.076 -0.1455 -0.2624  0.0192
13847W        W30695   8.623  16.494   2.966  0.1175  0.0878  0.1164
13848W        W30696  11.409   5.883   1.090 -0.4103 -0.1192  0.2125
13849W        W30697  13.294  14.923  12.186  0.4035 -0.1439 -0.2359
13850W        W30698  11.556  10.110  16.399  0.0322  0.2783 -0.1834
13851W        W30699   4.200  10.224  13.745 -0.3060  0.1996 -0.1322
13852W        W30700  13.451   2.441  16.437  0.1845  0.1026  0.1242
13853W        W30701   5.363  13.130  15.971  0.1559 -0.0944 -0.3511
13854W        W30702  11.794  15.109   4.910 -0.0971 -0.0846 -0.0624
13855W        W30703   6.539  14.949  15.980  0.1707  0.1455  0.1211
13856W        W30704  13.658  14.387  13.446  0.0265 -0.1231  0.1289
13857W        W30705   0.041  17.089   3.646 -0.0193  0.0116  0.1281
13858W        W30706   5.599  13.347   0.737  0.0758 -0.2790  0.0649
13859W        W30707   6.311   0.420   1.836 -0.0347  0.2571 -0.1465
13860W        W30708   8.556   5.670  14.818  0.0331 -0.0897 -0.1201
13861W        W30709  17.492   4.678   3.035 -0.0103 -0.0477 -0.1986
13862W        W30710  11.526   3.906   2.622 -0.0053  0.0789 -0.1781
13863W        W30711   4.984   4.659   5.339  0.0063 -0.0569 -0.4317
13864W        W30712  12.982   3.819  12.428  0.1910 -0.1019 -0.0757
13865W        W30713   1.853  13.142  14.181  0.2090  0.2978  0.1147
13866W        W30714   0.525  12.775  14.016 -0.3566 -0.0537 -0.0156
13867W        W30715  10.191   7.000  13.674 -0.0086 -0.1907  0.2019
13868W        W30716   1.915  15.049  15.099 -0.0299  0.0313  0.2024
13869W        W30717   6.416  10.353   5.599  0.2674 -0.0213 -0.1473
13870W        W30718   8.106   5.422  15.619  0.1268  0.0331 -0.0250
13871W        W30719  10.891   0.956   1.558 -0.0169 -0.1000  0.0554
13872W        W30720   8.341  10.613   1.593  0.0021 -0.0733 -0.3643
13873W        W30721   0.774  14.062   3.616 -0.1134  0.1690 -0.2158
13874W        W30722   3.266   7.437   0.262 -0.1133  0.1585  0.1915
13875W        W30723   1.848  10.132   4.143 -0.0869 -0.1365 -0.0643
13876W        W30724  14.747   0.849  12.679  0.1259 -0.0967 -0.2127
13877W        W30725   3.403   3.410  13.919 -0.0041 -0.2341  0.2644
13878W        W30726   5.570  11.859  13.760  0.1733  0.0993 -0.1748
13879W        W30727   5.645  13.225  13.457  0.1711 -0.2853  0.2644
13880W        W30728  11.060   6.937  15.944 -0.0336  0.1077  0.2150
13881W        W30729  15.208  10.684   0.595 -0.0793 -0.0587  0.2013
13882W        W30730   6.411  10.798  16.078 -0.2333  0.1672 -0.0562
13883W        W30731   6.216  15.719  14.108 -0.0934  0.1770  0.1115
13884W        W30732   1.823  10.403   0.302  0.0090 -0.2287  0.1064
13885W        W30733   7.115   8.931  15.853 -0.1070  0.1827 -0.1467
13886W        W30734   2.204  10.577   0.618 -0.0971 -0.3228 -0.0706
13887W        W30735   7.257  10.486   4.494 -0.0786 -0.0262  0.0950
13888W        W30736   6.833  14.706  15.185  0.0927  0.0905  0.0499
13889W        W30737  10.586   1.593  16.218 -0.1516  0.0147 -0.0627
13890W        W30738   9.728  10.650   5.437  0.4520 -0.0076 -0.0907
13891W        W30739   0.660  11.024   3.623  0.0030 -0.0604  0.4393
13892W        W30740  17.541   5.233  13.080  0.0051  0.3477 -0.1045
13893W        W30741  15.220  16.041  13.257 -0.1325 -0.0514  0.0913
13894W        W30742  16.671  12.130   1.200  0.2839  0.3865 -0.2726
13895W        W30743   3.704  13.007   4.774 -0.2028 -0.1846 -0.1388
13896W        W30744  16.770  14.706  10.147 -0.2197  0.3225 -0.1429
13897W        W30745  14.873  12.900   4.597 -0.1063 -0.2765  0.0604
13898W        W30746   9.867   0.663  13.723  0.2379  0.1353 -0.0253
13899W        W30747   1.025   2.038  14.408  0.1635  0.0108  0.1134
13900W        W30748   8.574   6.065  15.196 -0.1257 -0.1136  0.1406
13901W        W30749  15.549   6.757  11.846  0.0875 -0.1085  0.1077
13902W        W30750  12.465  10.323  15.379 -0.0162  0.1600 -0.2565
13903W        W30751   0.415  10.095   1.994  0.0472  0.0934 -0.1309
13904W        W30752  14.950  13.559  14.875 -0.2495 -0.0474 -0.1255
13905W        W30753  11.595   7.859  14.462 -0.0415  0.0598 -0.1459
13906W        W30754  14.765   0.503   0.476  0.2087  0.0745  0.0377
13907W        W30755   4.016   1.106   5.291 -0.1389 -0.2470  0.3627
13908W        W30756  17.174  14.605  12.403  0.1591 -0.1073  0.0691
13909W        W30757  13.709   1.729  11.859 -0.1091  0.1313 -0.3031
13910W        W30758  10.885   8.472  16.401 -0.0740 -0.0386 -0.0263
13911W        W30759   2.465   3.659   1.378 -0.0634 -0.0798  0.1856
13912W        W30760   9.671  17.883  10.653 -0.2393  0.0521 -0.0664
13913W        W30761   7.306   9.498   1.311 -0.1969 -0.2119 -0.0570
13914W        W30762   8.723   8.233   1.549  0.0955 -0.0119 -0.0394
13915W        W30763  17.292  13.555  14.209  0.0806 -0.1403 -0.1523
13916W        W30764   5.958  16.836   1.096  0.2275  0.0511 -0.0647
13917W        W30765   9.809  10.584   1.046  0.0501 -0.2826  0.0195
13918W        W30766   0.620  12.333  15.866 -0.0546 -0.1690 -0.2350
13919W        W30767   8.888   1.648   5.078  0.0191  0.6155 -0.0130
13920W        W30768   1.195   2.150   3.809  0.1763 -0.1558  0.0708
13921W        W30769   6.371   3.808  13.112 -0.0526 -0.3211  0.1086
13922W        W30770  12.647   9.045   2.710 -0.1542 -0.0299  0.0091
13923W        W30771  13.382   8.540  13.082  0.3651 -0.0662  0.0703
13924W        W30772   0.873   0.988   3.305 -0.0527  0.0760 -0.1341
13925W        W30773   4.495   2.058  12.833 -0.0932 -0.0342  0.1279
13926W        W30774   3.932  14.243  15.142 -0.1396  0.0371  0.0184
13927W        W30775   0.377  14.389   3.077  0.0521  0.1047 -0.0705
13928W        W30776  14.405   2.034  16.010 -0.1495 -0.0393  0.2645
13929W        W30777   9.257   4.832   3.027 -0.1085 -0.1569  0.0552
13930W        W30778  10.940   3.704   2.006  0.0546 -0.1886  0.1957
13931W        W30779   7.544   3.019   5.089  0.0097 -0.0176 -0.1143
13932W        W30780   7.091   6.968   0.636  0.0646  0.1496 -0.0096
13933W        W30781  13.211   2.055  16.013 -0.0317 -0.5379  0.2481
13934W        W30782  14.035   0.816   2.003  0.0918 -0.0473 -0.3781
13935W        W30783  14.086  15.019   3.348  0.1112  0.0042 -0.1544
13936W        W30784   3.194   8.882  12.328 -0.2037  0.2184  0.0364
13937W        W30785   3.905  12.878  15.634 -0.4260  0.3243  0.0317
13938W        W30786   0.373   5.371   4.580 -0.0603  0.0218  0.2162
13939W        W30787   1.289  16.095   2.266  0.1482 -0.2701 -0.1194
13940W        W30788  14.511  17.717  14.597  0.0504  0.0016  0.0723
13941W        W30789   9.944   0.442  11.323 -0.0259  0.0676 -0.1331
13942W        W30790  10.416  16.451  12.333 -0.1454  0.0501  0.2447
13943W        W30791  11.882  10.766   0.695  0.0173 -0.1890 -0.0699
13944W        W30792   1.967   7.239  13.714 -0.0506  0.0799  0.0844
13945W        W30793   5.522   3.730   2.743 -0.2391 -0.0643  0.0468
13946W        W30794   6.743   8.262  13.975 -0.0450 -0.4274  0.2731
13947W        W30795   3.417   5.662   1.272 -0.2160 -0.1392 -0.1174
13948W        W30796   9.221  10.999   6.147 -0.2495 -0.0141  0.2709
13949W        W30797   6.045   7.240   2.940  0.3809 -0.1146  0.1766
13950W        W30798  16.433  12.972   4.157 -0.1543  0.0649  0.1096
13951W        W30799   0.557   8.324   3.000  0.0293  0.1651  0.2126
13952W        W30800   2.619  17.847  14.119  0.0391  0.1975  0.0106
13953W        W30801   4.423  16.941  12.965  0.0395  0.2187 -0.0098
13954W        W30802   9.338  17.704   0.463  0.1421 -0.0373 -0.0525
13955W        W30803   9.662   5.614  14.013  0.1374  0.1032  0.2269
13956W        W30804   3.538   5.493  14.341 -0.2097 -0.0974  0.1450
13957W        W30805  17.672   7.726   0.612 -0.0351 -0.1353 -0.2065
13958W        W30806   6.162   0.559  11.643 -0.1420 -0.2282 -0.0866
13959W        W30807  10.632   7.523  14.486 -0.0353  0.3857  0.2366
13960W        W30808   0.211   6.818   0.056 -0.1203  0.0624 -0.1404
13961W        W30809   6.348   7.602   2.135 -0.0622  0.1650  0.0090
13962W        W30810  12.793   2.260   4.891 -0.3713  0.1093 -0.0441
13963W        W30811  15.615   0.691  16.276 -0.0875  0.2916  0.2173
13964W        W30812   4.237   5.855  12.425  0.2835  0.0061 -0.1835
13965W        W30813   8.829   2.829  14.927  0.0055 -0.1187 -0.0448
13966W        W30814  17.116  11.604  13.280  0.1709  0.2605  0.0942
13967W        W30815   0.183  10.578  14.633  0.0773  0.0822  0.2437
13968W        W30816  15.795  15.803   3.203  0.0629 -0.5164 -0.1067
13969W        W30817  15.577   8.790   1.521  0.0364 -0.3215 -0.1697
13970W        W30818  17.602   6.145   0.504 -0.2508 -0.0260  0.1813
13971W        W30819   8.281   8.427   4.487  0.2868  0.1133  0.0696
13972W        W30820   9.034  16.422  10.749  0.2176  0.2123 -0.2555
13973W        W30821  17.494  11.899   0.477 -0.2045 -0.2535  0.2885
13974W        W30822  10.145   5.888   1.786  0.1786  0.0492 -0.2816
13975W        W30823   2.658  10.566  14.392  0.1044 -0.0059 -0.1604
13976W        W30824   9.657   1.769   1.366  0.1593 -0.2922  0.1867
13977W        W30825   3.492  11.939  12.895 -0.0242  0.1018 -0.1654
13978W        W30826   2.622  11.164   2.004  0.2500  0.0213 -0.1729
13979W        W30827   1.199   2.642   2.840  0.0951  0.2851 -0.3593
13980W        W30828  14.581  11.210   2.414  0.1284 -0.3526 -0.3261
13981W        W30829   1.488  10.039  15.769 -0.0677 -0.0424 -0.2871
13982W        W30830   4.387   9.925   4.693  0.0033  0.0277 -0.0296
13983W        W30831  14.117   7.703   3.743 -0.5165  0.0391 -0.1701
13984W        W30832  15.127   6.910   2.861 -0.3513 -0.0140 -0.0344
13985W        W30833  12.747  14.193   1.645  0.0344  0.0640 -0.0636
13986W        W30834  16.755   7.084   3.115 -0.1586 -0.1191 -0.3558
13987W        W30835   2.448   3.768   2.053 -0.2285  0.0415 -0.0610
13988W        W30836   4.733   0.202  11.961 -0.0900  0.2018  0.5099
13989W        W30837   2.943  14.897  11.102  0.0045 -0.1912  0.2985
13990W        W30838   0.423  15.709  11.054  0.0905 -0.4454  0.0439
13991W        W30839   0.128   0.667  13.361 -0.2672 -0.2521 -0.0980
13992W        W30840  13.582   8.614  14.488 -0.1234 -0.3758 -0.0235
13993W        W30841  17.200   7.975   2.901  0.0294 -0.0572  0.1802
13994W        W30842  12.448  13.284   4.013 -0.0081 -0.2825 -0.0928
13995W        W30843   9.743   2.697   2.264 -0.0044 -0.0760 -0.2127
13996W        W30844   8.224  13.512  12.362 -0.0348  0.1037 -0.2637
13997W        W30845  16.806   2.963  14.597  0.0411 -0.0664  0.2464
13998W        W30846  12.983   3.753  15.898  0.0967 -0.1350  0.3088
13999W        W30847  13.586   7.809   0.559 -0.3130  0.2046  0.0991
14000W        W30848   7.994  15.829   4.989  0.1320  0.1575 -0.0825
14001W        W30849   0.605   1.069  15.001  0.0175  0.0123 -0.0386
14002W        W30850  15.418  14.476   1.263 -0.0132 -0.4760  0.0302
14003W        W30851   0.741   4.406   0.330  0.0861 -0.0089 -0.0477
14004W        W30852   6.290   5.475   1.478  0.0389  0.3871 -0.2379
14005W        W30853   5.333  12.965  11.697 -0.1704 -0.0921  0.1766
14006W        W30854   6.476  17.023  14.243 -0.0650 -0.1493 -0.5911
14007W        W30855  10.335   3.227   0.809 -0.0532 -0.0442 -0.1422
14008W        W30856   5.841  10.645   4.559  0.1736  0.0081 -0.0834
14009W        W30857  16.661  10.728   2.619 -0.1829 -0.1371  0.2932
14010W        W30858   8.976  15.512  16.106  0.0457  0.3923  0.1606
14011W        W30859   9.505   7.541   6.124 -0.1834 -0.1003  0.1030
14012W        W30860  17.179  10.341   0.648 -0.2042  0.1801 -0.0175
14013W        W30861   8.182  17.182  15.451 -0.0261 -0.2075 -0.0086
14014W        W30862  17.882  10.389  10.698  0.0889 -0.1068  0.2875
14015W        W30863  17.166   6.391   0.271 -0.0372  0.2416  0.1291
14016W        W30864  12.934  14.805   2.393  0.1177  0.0872 -0.1277
14017W        W30865  15.851  11.156   4.298 -0.0968 -0.2204  0.3621
14018W        W30866  15.499   8.982   5.565 -0.2049  0.2622  0.1441
14019W        W30867   7.829   3.432  16.246 -0.2840 -0.0723  0.0960
14020W        W30868  13.004   3.551   2.894 -0.1112 -0.1559 -0.1183
14021W        W30869  12.305   6.399  14.615 -0.0280 -0.2527 -0.1971
14022W        W30870   7.097  12.079  12.698 -0.1679 -0.0628  0.1593
14023W        W30871   4.990  10.275   2.605 -0.0707  0.0096 -0.1815
14024W        W30872  16.798  12.921  12.907 -0.1205 -0.0008 -0.0765
14025W        W30873   6.206  10.250   5.136 -0.0891  0.3603 -0.2269
14026W        W30874  14.494   3.042  15.563  0.0663 -0.0177  0.2867
14027W        W30875  13.397   8.559   1.611  0.0756 -0.1381  0.0001
14028W        W30876  12.630   0.521  13.843  0.0771 -0.1103 -0.0761
14029W        W30877   9.182   5.633  10.356  0.0311 -0.0298  0.1777
14030W        W30878   9.832   2.256   1.566  0.0917  0.0950  0.0741
14031W        W30879  11.592   6.879   5.806 -0.1425 -0.0144  0.2168
14032W        W30880  10.932  17.530   5.449 -0.2348  0.2622 -0.1433
14033W        W30881  11.802  10.344  13.541  0.1816 -0.2857  0.1292
14034W        W30882   8.589   2.069   5.122  0.1164 -0.1516 -0.1437
14035W        W30883   9.325  15.989   5.544 -0.0320  0.1393 -0.1390
14036W        W30884   9.673   3.767  12.400 -0.1570  0.1463  0.0565
14037W        W30885   8.984  16.251   4.434  0.2428  0.2388  0.1044
14038W        W30886  12.131  11.406  11.637  0.2984 -0.0109  0.0157
14039W        W30887  12.349  16.821   2.533  0.0498 -0.0761  0.0744
14040W        W30888   5.092  12.612   5.068  0.2437  0.1350  0.0482
14041W        W30889  10.268   0.917  13.550 -0.1897 -0.2921 -0.0251
14042W        W30890   3.780   2.372   3.834  0.1054  0.1320 -0.1834
14043W        W30891   5.438   6.890  11.983 -0.1185  0.1629  0.0423
14044W        W30892   1.449   5.119   0.835 -0.1896  0.0235 -0.2094
14045W        W30893  17.611   9.681  12.545  0.1418 -0.1223 -0.2233
14046W        W30894   1.062  11.346  13.731 -0.0569 -0.2912 -0.0864
14047W        W30895   5.499   7.044   2.110  0.2018 -0.1688  0.0830
14048W        W30896   6.950   7.560   2.827 -0.1339  0.0944 -0.1800
14049W        W30897  16.958  10.532   2.959 -0.1736 -0.2707  0.1062
14050W        W30898   5.361  12.048   0.515  0.0427  0.2332  0.2958
14051W        W30899  10.292   7.923   2.891 -0.0324  0.2605 -0.2577
14052W        W30900  16.809  17.769  10.439  0.1200  0.0238 -0.0627
14053W        W30901   2.187   6.252  15.916 -0.0159 -0.3499 -0.0816
14054W        W30902   7.857  12.354  14.820  0.1188  0.1205 -0.0988
14055W        W30903   6.872  17.447   1.701  0.2050  0.0679 -0.2043
14056W        W30904   1.381   9.044  12.457 -0.2939 -0.1305 -0.0769
14057W        W30905  12.480   4.782   1.748  0.1673  0.1938  0.2420
14058W        W30906   4.934   9.950  15.540  0.0101 -0.0173  0.0145
14059W        W30907  15.879   8.280  15.486  0.0863  0.0900 -0.2230
14060W        W30908  12.491  14.433   3.608 -0.0566 -0.1012  0.1199
14061W        W30909  14.161   3.353  16.182 -0.2734 -0.2493  0.1791
14062W        W30910   4.425   8.022   2.867  0.0071  0.1455  0.4573
14063W        W30911  10.726  17.565  12.927 -0.0462  0.0423 -0.1150
14064W        W30912   7.208  13.826   4.146 -0.1800 -0.0603 -0.1108
14065W        W30913   6.909  15.348  15.934  0.0855  0.0776 -0.2543
14066W        W30914   1.535   3.781  13.335  0.0983  0.1571 -0.0879
14067W        W30915  13.522   7.996  13.717  0.1358  0.0603  0.1764
14068W        W30916  14.213  11.106  13.776 -0.0524  0.2383 -0.2920
14069W        W30917   0.505  16.483   1.883 -0.0226 -0.1233  0.1398
14070W        W30918  15.236   5.372  14.190 -0.0033  0.2918 -0.0919
14071W        W30919  12.783  11.808  11.620  0.0507 -0.1677  0.0381
14072W        W30920   1.839   8.168  13.084  0.2041  0.1333 -0.2045
14073W        W30921  12.761  17.238   0.615  0.0521  0.2967 -0.2270
14074W        W30922  17.452  14.773  15.800  0.1852 -0.2037  0.3063
14075W        W30923   8.408  16.474  14.277  0.0689  0.0487  0.0464
14076W        W30924   5.961   9.564  16.244 -0.1074  0.3959  0.1689
14077W        W30925   4.669   6.245   3.410  0.2078  0.0967 -0.1500
14078W        W30926   4.166  16.298   4.323 -0.0423 -0.0093 -0.0622
14079W        W30927  13.884   8.679  11.021 -0.0391  0.0572  0.0732
14080W        W30928  16.694   0.851   1.468  0.2039 -0.1905  0.0194
14081W        W30929   4.999   8.897   2.591  0.2727  0.0021 -0.1724
14082W        W30930   6.073  16.468  12.676  0.0387 -0.1520  0.0161
14083W        W30931  16.434   7.196  11.733  0.1493  0.0183 -0.1726
14084W        W30932   8.068   2.798   5.255 -0.3351 -0.1036  0.0393
14085W        W30933  12.834  15.324  11.875 -0.0490  0.0471 -0.1106
14086W        W30934  12.116  15.160  11.372 -0.2403  0.0072 -0.1616
14087W        W30935   5.950   3.879   4.741  0.2735  0.0471 -0.2910
14088W        W30936   8.018   8.788   0.173 -0.1505  0.0699  0.3037
14089W        W30937   9.986   0.290  13.209  0.0780  0.0631 -0.0157
14090W        W30938  17.445  14.081   0.018  0.0104 -0.0138 -0.4707
14091W        W30939   9.551   8.965  12.192  0.1443  0.1491 -0.3501
14092W        W30940   4.629   2.536   1.608 -0.3656 -0.0138 -0.0483
14093W        W30941  11.824   2.450  15.521  0.0974  0.0589  0.1395
14094W        W30942  15.163  13.059  14.989 -0.2401 -0.1664 -0.0014
14095W        W30943  13.318  17.824  13.895  0.1781 -0.1067 -0.1450
14096W        W30944   1.245   3.460   2.125 -0.0130 -0.0974 -0.0449
14097W        W30945  14.908   6.556   0.903 -0.0261  0.2893 -0.0230
14098W        W30946  13.214  11.855  16.130 -0.1174 -0.1704 -0.1560
14099W        W30947   5.561  14.918  15.548 -0.4632  0.2578 -0.1656
14100W        W30948  15.271  12.332   0.264 -0.0550 -0.1285 -0.0682
14101W        W30949   1.346   0.724   1.753  0.3940  0.0898  0.1302
14102W        W30950   4.885  11.184   3.994 -0.0912 -0.1733 -0.0333
14103W        W30951   3.992  15.471  14.414  0.1998 -0.2581 -0.1327
14104W        W30952   3.815   3.645   0.915  0.0992 -0.1669 -0.1068
14105W        W30953   0.700   7.008  15.232 -0.2313  0.1430 -0.1476
14106W        W30954   1.392  17.868  14.776  0.0447  0.2528 -0.0296
14107W        W30955   1.713  13.241   4.437 -0.0941  0.1498 -0.4240
14108W        W30956   9.917   3.749  11.969 -0.0464 -0.0922 -0.2371
14109W        W30957   7.429  17.841  12.522  0.0505 -0.2157  0.2123
14110W        W30958   6.300  14.513  12.703  0.3442  0.2985 -0.0869
14111W        W30959   0.228   9.199   2.392  0.2023  0.1725 -0.2257
14112W        W30960  17.234  17.648   4.463  0.1147 -0.2144 -0.3978
14113W        W30961  13.992   3.764  13.265  0.0861 -0.2781 -0.2683
14114W        W30962   4.520   6.601  12.012  0.4292 -0.0714  0.0715
14115W        W30963   3.356   7.660   0.702  0.0391  0.3669 -0.0254
14116W        W30964  17.152  14.800  16.234 -0.0795  0.2446  0.0571
14117W        W30965   9.336   0.817  12.039 -0.0756 -0.0064 -0.0105
14118W        W30966  13.454   6.145  15.449  0.1146  0.3467 -0.2478
14119W        W30967  10.312   9.920  14.823 -0.1497 -0.0907 -0.2526
14120W        W30968  12.856  16.489  15.750  0.2191  0.0382 -0.1192
14121W        W30969   7.292   7.138  12.519  0.1731  0.1105  0.1824
14122W        W30970   2.258  13.387  11.025 -0.0484  0.0764 -0.1232
14123W        W30971   3.617   1.607   2.123  0.2345  0.1163 -0.1714
14124W        W30972  10.223   3.125  14.034 -0.1171  0.0842 -0.1619
14125W        W30973   1.965   0.793   4.039  0.0843  0.0868 -0.1263
14126W        W30974  14.560  11.925  12.550  0.2648  0.2289  0.0379
14127W        W30975   4.611  14.512   1.594  0.0129 -0.0217  0.1825
14128W        W30976  10.106   2.011  13.729  0.0028 -0.0097  0.1458
14129W        W30977  15.907  12.249  12.514 -0.0294 -0.2369 -0.0433
14130W        W30978   4.529   1.174   2.934  0.0401 -0.1202 -0.0710
14131W        W30979   7.371  12.381  11.903 -0.0773  0.1868  0.2457
14132W        W30980  11.315  17.789  11.554  0.0316  0.0969  0.0209
14133W        W30981  11.158  12.803   3.273  0.2071  0.3827 -0.0589
14134W        W30982  14.603   3.286  13.944 -0.0397 -0.2896  0.0717
14135W        W30983  13.401  11.262  15.964 -0.2687 -0.2594 -0.1232
14136W        W30984  14.887   3.654   5.285  0.1614  0.1452  0.2161
14137W        W30985   2.128   6.148   3.173 -0.2805 -0.0641  0.1146
14138W        W30986   9.977   0.504  14.220  0.2031  0.0760 -0.0555
14139W        W30987   8.081   7.002   1.682  0.1159  0.1261  0.2037
14140W        W30988  10.437  14.842   0.179 -0.1106 -0.2772 -0.0853
14141W        W30989  13.335   5.084   1.645 -0.1457 -0.2184 -0.0137
14142W        W30990   5.481  12.008  10.736 -0.0701  0.2114 -0.1818
14143W        W30991   2.589   5.027   1.895  0.1072  0.0556  0.0943
14144W        W30992  13.091  15.748  13.768 -0.0384  0.0883  0.0417
14145W        W30993   2.045  16.986   0.576 -0.2697 -0.0717  0.0915
14146W        W30994   1.556   0.956   4.230  0.1900  0.0787  0.1156
14147W        W30995  11.390  10.868   2.653 -0.0361 -0.2622 -0.0854
14148W        W30996  14.976   3.144   6.165 -0.6941 -0.0964  0.1987
14149W        W30997   6.068   2.208   5.307 -0.1615 -0.2698 -0.0475
14150W        W30998   2.981   1.717  13.092  0.0977  0.1373  0.3515
14151W        W30999  17.626   3.499  15.007 -0.0623 -0.2110  0.1255
14152W        W31000   9.320  12.053  11.755  0.2014  0.2944 -0.1429
14153W        W31001  11.773  12.952   2.646  0.0755 -0.0955 -0.1738
14154W        W31002   6.842   6.481   4.905  0.3123  0.0554 -0.3126
14155W        W31003   6.189  12.164   5.356 -0.2353  0.0000 -0.1533
14156W        W31004   0.909   9.550   3.680  0.1344  0.0616 -0.5887
14157W        W31005   6.643   4.877   0.347  0.0826  0.1072  0.2929
14158W        W31006   3.374   5.675   5.579 -0.4769 -0.0389  0.0099
14159W        W31007  11.508   0.611  14.812  0.1852 -0.0327  0.0360
14160W        W31008  14.778  12.873   2.039 -0.1953 -0.0467 -0.0697
14161W        W31009   4.332   0.698   3.682  0.1123 -0.1830 -0.2930
14162W        W31010  17.253   3.815   4.481  0.1447  0.1043 -0.1695
14163W        W31011  12.565   8.886  15.937 -0.0896 -0.1580  0.1807
14164W        W31012  11.291  12.526   4.793  0.1179  0.0639 -0.2144
14165W        W31013   4.661   2.743   4.693  0.1075  0.1145 -0.2639
14166W        W31014  10.501  13.601   2.626 -0.0003  0.1644 -0.0927
14167W        W31015   8.901  13.510  13.998  0.2232 -0.3130 -0.1751
14168W        W31016   3.141   3.514  11.536  0.1875  0.0745  0.1907
14169W        W31017  14.693   5.049  13.079  0.0978 -0.0851  0.0519
14170W        W31018  14.600  17.024  16.172 -0.0383  0.1855 -0.3239
14171W        W31019  13.883  14.225  11.350  0.2034 -0.0801  0.0635
14172W        W31020   8.687   1.980   1.226 -0.0199  0.2381 -0.1775
14173W        W31021  12.360   5.318   4.668 -0.0315  0.1275  0.1349
14174W        W31022  15.594  10.865   1.222 -0.1135 -0.0395  0.0898
14175W        W31023  10.091  15.545  12.278  0.3909  0.3121 -0.0969
14176W        W31024   7.638   0.736  14.616 -0.0706 -0.3140 -0.1926
14177W        W31025   3.624  13.480  16.400 -0.0481 -0.4936  0.1504
14178W        W31026   1.123  16.981   4.311  0.0555  0.3305 -0.0605
14179W        W31027  14.552   7.497   4.662 -0.0527  0.1814 -0.0548
14180W        W31028   1.326  15.032  10.128 -0.2331  0.1169  0.1737
14181W        W31029   5.716  12.777  11.409  0.1497 -0.2014 -0.2393
14182W        W31030   0.575  17.703   3.870  0.2070 -0.0315 -0.0359
14183W        W31031   0.445  11.415   1.349 -0.0163  0.1387 -0.2155
14184W        W31032  13.789   2.585   5.163 -0.3335  0.0443  0.0512
14185W        W31033   8.404  11.667  16.116 -0.0128 -0.1380 -0.1273
14186W        W31034  16.154   7.955   2.908 -0.1162  0.1142  0.0459
14187W        W31035   1.368  16.143  12.716  0.0864 -0.0499 -0.0823
14188W        W31036   3.196   1.079   1.788  0.0454 -0.1200  0.0910
14189W        W31037   6.149  14.108  13.111 -0.0485 -0.1121 -0.3125
14190W        W31038  14.515  12.880  12.450 -0.2510 -0.3877 -0.0917
14191W        W31039   1.632   4.041  13.772 -0.1282  0.2370 -0.0086
14192W        W31040   2.708   5.583   2.432 -0.2565 -0.0885  0.1003
14193W        W31041   3.807   0.868   3.908  0.0174  0.2995 -0.0951
14194W        W31042  13.079   1.266  15.845 -0.1907 -0.1303 -0.1486
14195W        W31043   0.396   7.790   0.876  0.0382 -0.0319  0.1704
14196W        W31044   8.312   5.381  13.888 -0.0183 -0.0267 -0.0661
14197W        W31045  14.828  12.081  15.578  0.2841  0.2524  0.2150
14198W        W31046  17.271   2.265  15.329  0.0332 -0.1675  0.1273
14199W        W31047   9.787  12.216  13.534  0.0387  0.2227 -0.0404
14200W        W31048   9.709  15.251  16.292 -0.2178 -0.3317  0.0069
14201W        W31049   5.376   2.172   2.558  0.0798 -0.2843  0.3244
14202W        W31050  10.894  16.682  12.383  0.3490  0.3889 -0.1801
14203W        W31051   7.305   3.501   0.076 -0.1229 -0.0727 -0.1780
14204W        W31052   3.238  15.146  15.364  0.1960  0.0381  0.0198
14205W        W31053  14.345   4.122   0.639 -0.0466  0.1651 -0.0539
14206W        W31054   4.078   5.494  16.279 -0.0030 -0.3042 -0.0106
14207W        W31055  10.314   5.763  15.838  0.1651  0.1068 -0.0715
14208W        W31056   0.125  13.694   2.034 -0.1166 -0.1133 -0.0509
14209W        W31057   4.360  16.420   1.245  0.2557  0.0412 -0.1914
14210W        W31058  10.705  16.014   5.117  0.0168 -0.1224  0.0064
14211W        W31059  16.065   9.714   2.467  0.0111 -0.0673 -0.1718
14212W        W31060  17.597   8.521  11.247 -0.1736  0.0076  0.0604
14213W        W31061  17.863  12.361  14.226  0.0353 -0.1876 -0.3595
14214W        W31062   0.639   5.731  13.730  0.1247 -0.0389  0.2117
14215W        W31063   7.547   4.358   0.573  0.0256  0.0225 -0.1031
14216W        W31064  11.417  14.740  12.779 -0.0889 -0.0334 -0.0222
14217W        W31065   3.029   1.232  13.110  0.3036 -0.3061  0.1737
14218W        W31066  16.195   0.182   3.429  0.3549  0.0274 -0.1850
14219W        W31067  12.629   6.030  11.044 -0.1153  0.0474 -0.2742
14220W        W31068   4.441  15.754  15.387 -0.0857 -0.2721  0.1699
14221W        W31069  14.999   9.513  15.818 -0.1954  0.0373  0.1194
14222W        W31070  10.927  13.331   2.307  0.2283 -0.1955  0.0053
14223W        W31071   5.741   9.404   0.750  0.0236 -0.0720  0.2378
14224W        W31072   4.928  17.642  13.931  0.2340  0.0004  0.1674
14225W        W31073   7.344   2.121   5.439  0.1149 -0.0006 -0.2696
14226W        W31074   3.136  11.371   0.899 -0.1724  0.1485  0.3005
14227W        W31075   3.721   8.676  10.634 -0.1605  0.2112 -0.0476
14228W        W31076  17.798   0.095  15.577  0.1118  0.2513 -0.0573
14229W        W31077   2.463  13.213  13.964 -0.2577 -0.0095 -0.0155
14230W        W31078  15.540  17.744   0.334  0.0393 -0.1202 -0.2257
14231W        W31079  10.326  11.812  12.547  0.0407  0.2381 -0.4352
14232W        W31080  12.469   8.068   0.066 -0.0482  0.1290 -0.3396
14233W        W31081  16.030  11.515   1.141  0.0008  0.1302 -0.0121
14234W        W31082   9.999  16.577   3.535 -0.0955  0.0367  0.1603
14235W        W31083  16.110   5.556   2.071 -0.1314 -0.0984 -0.0040
14236W        W31084   9.745   0.697  15.195 -0.1329 -0.1206 -0.0631
14237W        W31085   0.330   1.782   1.344 -0.0709  0.0616 -0.1520
14238W        W31086  15.075  14.045  14.495 -0.0058 -0.1420 -0.0318
14239W        W31087   9.130   0.796  13.999  0.4679  0.1492 -0.0753
14240W        W31088  17.680  17.248  10.356 -0.2170  0.1359 -0.1162
14241W        W31089  12.203  10.721   1.649  0.1850  0.0981  0.2710
14242W        W31090   4.224   1.792   4.933  0.1886 -0.0147 -0.0384
14243W        W31091  12.045  12.490  15.728  0.2781 -0.2287  0.0073
14244W        W31092   5.925  15.007  11.847  0.0109  0.0953  0.1174
14245W        W31093   4.041  16.374   1.641  0.0372 -0.2115  0.0489
14246W        W31094  11.199  12.030   1.695 -0.0195 -0.0472  0.3181
14247W        W31095  10.638   5.762   0.201 -0.1850 -0.0257  0.1408
14248W        W31096   1.231  13.318  15.328 -0.0666 -0.1604  0.2460
14249W        W31097  12.543  14.685  15.816  0.0533 -0.0794  0.2481
14250W        W31098  16.414  13.882  13.598 -0.1436 -0.3406 -0.0349
14251W        W31099   7.317  14.174  14.781 -0.0447 -0.1425 -0.0500
14252W        W31100  14.190   0.080   4.573  0.0007  0.0895 -0.2555
14253W        W31101  13.523  10.352   4.109 -0.4056 -0.1412 -0.0624
14254W        W31102   4.201   8.159  16.088  0.1385  0.1305 -0.0255
14255W        W31103   2.624  16.296  12.150 -0.0803  0.1216 -0.2624
14256W        W31104   3.641   4.615  14.640 -0.0073 -0.0987  0.1201
14257W        W31105   1.971   5.779  12.466  0.0468 -0.1214 -0.3155
14258W        W31106   4.962  15.324  16.008  0.0659  0.1965  0.3471
14259W        W31107   7.197  14.796  11.506 -0.1553  0.0867  0.1963
14260W        W31108  12.326   8.834   4.687  0.3756  0.3242 -0.1247
14261W        W31109  12.147   1.542   2.731 -0.2277 -0.1549  0.2110
14262W        W31110  11.544  16.751   2.024  0.0432 -0.0679  0.3599
14263W        W31111   0.703   2.871   3.800 -0.0264  0.0888 -0.0780
14264W        W31112  15.787   6.815   0.303  0.1124  0.0925 -0.1119
14265W        W31113   8.150   1.933   3.620 -0.0329  0.0478  0.1109
14266W        W31114  13.051   8.879  13.248  0.1106  0.1846  0.1071
14267W        W31115   3.691   8.520  14.577  0.0087 -0.2071  0.3130
14268W        W31116   1.928   9.380   2.337  0.2034 -0.1109 -0.1848
14269W        W31117   5.146  13.103   4.969  0.2566 -0.0000  0.0089
14270W        W31118   5.102   3.076   2.835  0.1731 -0.0736 -0.0753
14271W        W31119  10.229  17.794   0.069  0.3348  0.1726  0.4123
14272W        W31120  12.679  10.604   2.149 -0.1723  0.3302  0.0059
14273W        W31121   6.080   7.244  14.744 -0.0416  0.2468 -0.2128
14274W        W31122  16.357  16.249   5.191  0.0646  0.0524 -0.0550
14275W        W31123   4.900  16.052   2.665 -0.1044 -0.0587 -0.2177
14276W        W31124  16.243   4.922   4.553  0.2368 -0.0110 -0.1564
14277W        W31125  16.058   6.652  12.907  0.0781 -0.1274  0.2523
14278W        W31126   5.976  13.440   2.184 -0.2377 -0.1081  0.3345
14279W        W31127   3.489   1.541  16.104  0.2123  0.1703  0.3119
14280W        W31128   5.094   2.595   2.596  0.2352  0.3541 -0.2822
14281W        W31129   2.785  13.333  14.309 -0.0899 -0.2048 -0.1774
14282W        W31130  16.323   5.765  13.594  0.0996 -0.2144 -0.0991
14283W        W31131  17.695   4.540   4.438  0.1855 -0.1510  0.1109
14284W        W31132   4.867   2.645   4.227  0.3135  0.0746  0.1853
14285W        W31133  11.259   8.815  13.220  0.1471 -0.0470 -0.3243
14286W        W31134  17.212  15.301   4.243 -0.0843 -0.1478  0.0088
14287W        W31135   9.618  12.339   3.360  0.2838 -0.0146  0.1789
14288W        W31136  15.085  10.042  13.712  0.0572 -0.1079  0.0210
14289W        W31137   3.188   7.266  13.046 -0.0794  0.1973 -0.4473
14290W        W31138   0.437   9.691  13.537  0.1589  0.0312 -0.1899
14291W        W31139  12.310   4.227  12.356 -0.0623 -0.1706  0.0252
14292W        W31140   3.945   6.407   3.932 -0.2383  0.0917  0.2319
14293W        W31141   6.028  13.910   1.646  0.2534 -0.2335  0.0210
14294W        W31142   2.132  11.801   0.174  0.0200  0.0563 -0.0564
14295W        W31143  17.536   0.291   1.309  0.0315 -0.2590  0.1676
14296W        W31144   1.956   4.843  15.952  0.1743 -0.0674  0.1533
14297W        W31145   6.149  16.006  11.702 -0.1219 -0.0279  0.0304
14298W        W31146  17.415   6.715   1.222  0.2193  0.1918 -0.2330
14299W        W31147  10.397   9.724  11.257 -0.3093 -0.1168 -0.2365
14300W        W31148   4.439  14.810   6.510 -0.0725 -0.2874  0.2279
14301W        W31149   6.650   2.028   3.305  0.1551  0.2886  0.2108
14302W        W31150  13.242   8.096   1.212 -0.0597 -0.0630 -0.1873
14303W        W31151   3.571  10.882   5.084 -0.2447 -0.3075 -0.2157
14304W        W31152  13.918  17.048   0.745 -0.0204 -0.0298 -0.4709
14305W        W31153   9.673  17.300  13.105  0.1325  0.0310  0.1339
14306W        W31154   0.522  13.338   1.989 -0.0319 -0.1046 -0.2059
14307W        W31155  14.679   1.527  12.840 -0.2030 -0.0227 -0.0964
14308W        W31156   2.654  12.355   1.417 -0.4080  0.1112  0.0866
14309W        W31157   1.629  11.532   1.224  0.0771  0.0272  0.1355
14310W        W31158  14.565  13.590  13.849  0.1289  0.3979  0.0168
14311W        W31159   5.689   6.645   4.468  0.1144 -0.0345  0.1160
14312W        W31160   7.734   7.935  11.667 -0.0178  0.2017 -0.2282
14313W        W31161   2.163   7.083  11.795 -0.0473  0.0641  0.2145
14314W        W31162   9.337   5.566  11.435 -0.1591  0.1309 -0.0340
14315W        W31163  15.549   2.569   4.857  0.2157  0.1855  0.0958
14316W        W31164  14.339  17.200  14.449 -0.0066 -0.0705  0.2323
14317W        W31165   9.697  16.953  13.456 -0.1806  0.1626  0.2101
14318W        W31166  10.936   7.844   1.194 -0.1747 -0.2219 -0.0524
14319W        W31167  14.826  11.599  13.682  0.0415  0.0887 -0.0966
14320W        W31168  15.781   4.608  13.722 -0.0208  0.1105  0.0709
14321W        W31169  16.298  11.418   4.173 -0.0865 -0.0962  0.0176
14322W        W31170   2.345  12.129  12.305 -0.0039 -0.2238  0.1014
14323W        W31171   4.663   7.542  15.925 -0.2623  0.1370 -0.0411
14324W        W31172   7.596   7.802  13.521 -0.1099  0.1329  0.3713
14325W        W31173   0.732  13.613   1.227 -0.0368  0.1086 -0.0237
14326W        W31174   1.640   9.261  11.591 -0.1771 -0.1594 -0.0092
14327W        W31175   1.056  10.523   2.420  0.4493  0.2116  0.2518
14328W        W31176   8.296   7.801  12.913  0.0576  0.1050 -0.1288
14329W        W31177  13.256   5.406   1.007  0.0020 -0.1487 -0.1576
14330W        W31178   0.628  15.269   2.868  0.3525  0.0777 -0.1400
14331W        W31179   7.888  13.151  12.274 -0.0017 -0.1090  0.0113
14332W        W31180  14.702   8.683  15.523 -0.1716  0.0036  0.1817
14333W        W31181   3.351   6.455   4.191  0.2968  0.2726 -0.1016
14334W        W31182   7.013   6.680  13.369 -0.1195 -0.2577  0.0017
14335W        W31183   8.817   1.977   2.732  0.0372  0.0216  0.3481
14336W        W31184  11.684  10.029  15.957  0.1231  0.0368  0.2621
14337W        W31185   3.463  11.264  14.507  0.0257 -0.0198 -0.0848
14338W        W31186   3.691   3.699  11.499  0.1591  0.0846  0.1596
14339W        W31187   2.051  13.863  16.254  0.2635 -0.0145 -0.1237
14340W        W31188  11.199  10.188  15.114 -0.0314  0.1299  0.3320
14341W        W31189   0.637  15.403  12.614 -0.1019  0.0983 -0.1888
14342W        W31190   1.578   4.728  14.518  0.0586  0.0854 -0.2481
14343W        W31191  12.526   8.172   0.699  0.0868  0.2830 -0.0693
14344W        W31192   4.562  12.834   4.304 -0.0808  0.0159  0.1408
14345W        W31193   1.308  17.119  16.261  0.1073 -0.4494  0.2661
14346W        W31194   7.939  16.219   5.380  0.2486 -0.0549 -0.0658
14347W        W31195   4.812   1.578   1.519  0.0280 -0.2736  0.2036
14348W        W31196   9.469  14.415  14.280  0.0796  0.0237 -0.0435
14349W        W31197   0.923  13.393   2.399 -0.0597 -0.2604 -0.3379
14350W        W31198  15.445   3.089   0.232  0.0384  0.1413 -0.1499
14351W        W31199  11.274   6.390   3.261 -0.1099 -0.0039 -0.1033
14352W        W31200   5.772   1.408  11.620 -0.2000 -0.1361 -0.0861
14353W        W31201   2.054  14.979  14.474  0.0324  0.1559 -0.2303
14354W        W31202   8.861   2.341   4.778  0.0349  0.0084 -0.0110
14355W        W31203   7.204  17.624   0.165 -0.1263  0.1001  0.1115
14356W        W31204   2.962  10.997  14.486  0.2294 -0.1138 -0.4164
14357W        W31205   6.684   2.657   3.959 -0.0918  0.1507 -0.1810
14358W        W31206   6.867   3.645   2.478 -0.0195 -0.0571  0.0057
14359W        W31207  16.579   0.582  13.533  0.0933 -0.3906  0.0621
14360W        W31208  16.190   5.729  14.889  0.0459 -0.2911  0.1913
14361W        W31209  14.204  15.184   1.673  0.0183 -0.2553  0.0262
14362W        W31210  12.359  15.361  16.008 -0.2252  0.1204  0.1305
14363W        W31211  11.838  10.038   2.393 -0.1501 -0.2755 -0.3083
14364W        W31212   3.681   0.267  14.585  0.0540  0.1069 -0.0552
14365W        W31213   3.736   9.108  11.779  0.0304  0.0595  0.1813
14366W        W31214   5.866  15.682   0.409 -0.1680  0.2000  0.1890
14367W        W31215   6.061   3.653  14.126  0.0898 -0.0998 -0.0537
14368W        W31216  12.585   8.701  12.479 -0.2446 -0.2239  0.0348
14369W        W31217   3.158   9.213  13.351 -0.0113  0.2405  0.0670
14370W        W31218   6.535   4.433  13.966  0.0112 -0.2272  0.0862
14371W        W31219   2.032   7.561  10.987  0.0726 -0.1649  0.0287
14372W        W31220  16.683  15.761  14.000  0.3179 -0.1787  0.1820
14373W        W31221   9.720  16.129  16.088  0.1325 -0.0419 -0.0750
14374W        W31222   3.737  13.243  10.414  0.0751  0.1008  0.2577
14375W        W31223  10.716   6.788   0.520  0.0849 -0.0698 -0.0389
14376W        W31224  16.278  10.671   0.862 -0.1977 -0.1735  0.0479
14377W        W31225   8.479   5.930   1.412  0.1150  0.1802  0.2870
14378W        W31226  13.462   1.496   1.109 -0.1871  0.3063 -0.1955
14379W        W31227  14.784  10.112  14.565 -0.0360  0.1042 -0.0478
14380W        W31228   2.597   0.146   3.752 -0.1680  0.1417 -0.2246
14381W        W31229   3.316   4.303   3.748  0.4641 -0.0679 -0.1132
14382W        W31230   2.073  15.523   2.078  0.1034 -0.0145 -0.1019
14383W        W31231  16.477  13.592   1.167  0.0077 -0.2098  0.0295
14384W        W31232  12.628  11.490   1.038 -0.1699  0.0714  0.0945
14385W        W31233   7.730   8.680  11.264 -0.0902 -0.0482 -0.0006
14386W        W31234   5.445   1.069   5.414  0.0994 -0.1829 -0.1621
14387W        W31235  13.006   2.837  14.111  0.0598  0.1993  0.4674
14388W        W31236   2.752  13.082  13.472 -0.2592 -0.2767 -0.0291
14389W        W31237   5.928  14.684   5.235  0.2820 -0.2167 -0.0535
14390W        W31238   1.990  16.499   0.688  0.0253 -0.3739  0.3444
14391W        W31239   0.494  12.928  15.962 -0.2497  0.1654 -0.0005
14392W        W31240  12.994   4.871  14.428  0.1243  0.3244  0.0259
14393W        W31241   8.975   3.350   2.145 -0.1322 -0.2536 -0.3324
14394W        W31242  11.332   5.442  15.378 -0.2945  0.0542 -0.0341
14395W        W31243   2.582  13.641  14.705  0.3432 -0.1637 -0.2188
14396W        W31244   2.181  17.799  13.234 -0.0796  0.0943 -0.2834
14397W        W31245  13.644  10.303  14.217 -0.2014 -0.0488  0.1263
14398W        W31246   0.215  10.810  13.856  0.0235  0.0187  0.1290
14399W        W31247   0.841   3.903  11.765 -0.0669  0.0097  0.1892
14400W        W31248   8.706   4.731  12.558 -0.1943 -0.1925 -0.2851
14401W        W31249   6.192   3.109   2.092  0.0910  0.0466 -0.0578
14402W        W31250   2.709  10.841   3.056  0.0581  0.1924  0.0268
14403W        W31251  12.911   7.574   1.231  0.5189 -0.1050 -0.0259
14404W        W31252   8.364   9.925  10.963  0.2315  0.0152 -0.0465
14405W        W31253   3.554   6.281   3.639  0.0470 -0.0582  0.2447
14406W        W31254  10.170  13.614   5.222  0.2858 -0.0594 -0.0458
14407W        W31255  16.425  15.705   5.819 -0.1064 -0.2528 -0.0494
14408W        W31256  17.523   2.165   4.194 -0.2419  0.0665 -0.1228
14409W        W31257  15.066   3.270  16.330  0.0806  0.0036  0.3002
14410W        W31258  14.453  16.998   0.589  0.0063  0.3918  0.1467
14411W        W31259  13.136   0.426  13.734 -0.2905  0.1284 -0.2819
14412W        W31260   8.563   8.369  11.978 -0.1662 -0.0982 -0.4380
14413W        W31261  13.944  12.565  16.451 -0.3823  0.0032 -0.1598
14414W        W31262   6.199  13.989   4.815  0.0238 -0.0602 -0.1763
14415W        W31263  14.649  15.434  11.775  0.1137  0.2414 -0.3180
14416W        W31264  10.052  14.414   2.686  0.0392 -0.0070 -0.1090
14417W        W31265  12.679   3.577  11.990 -0.2865  0.0074  0.1905
14418W        W31266   7.415   3.410  14.649  0.3915 -0.3258 -0.0993
14419W        W31267   9.677  17.468   2.158 -0.2489 -0.1056  0.0294
14420W        W31268  16.838   0.922  12.060  0.0000 -0.2179 -0.0173
14421W        W31269   4.832  16.156  12.198 -0.0487 -0.1064  0.3114
14422W        W31270   0.227   1.172   1.204 -0.1707  0.1748 -0.1145
14423W        W31271  16.911   8.354   2.333 -0.0909 -0.1459  0.0663
14424W        W31272  12.257   9.891  12.723  0.1118 -0.0455 -0.1445
14425W        W31273   5.945   9.345   2.234 -0.2023 -0.1530  0.0080
14426W        W31274   0.690   3.454   3.979  0.1408 -0.0479 -0.1388
14427W        W31275  16.122   0.886   0.475  0.0510 -0.0792 -0.1999
14428W        W31276   7.784  13.925  12.881 -0.0851  0.1073 -0.2060
14429W        W31277  10.257   0.046  15.107  0.0016 -0.4659  0.1305
14430W        W31278  13.133   3.266  15.905 -0.0816 -0.1521 -0.1477
14431W        W31279   2.280  16.176   0.518 -0.0652 -0.0504  0.5221
14432W        W31280  14.480   7.153   2.044 -0.3926 -0.0055  0.1770
14433W        W31281   5.387   3.609   2.226 -0.3234  0.5254  0.3646
14434W        W31282   7.588  11.418   5.022  0.2502  0.0294 -0.5823
14435W        W31283   0.647  12.865   3.129  0.2317  0.0798 -0.0849
14436W        W31284  16.536  12.126   2.976  0.2712  0.3356  0.3631
14437W        W31285   2.092   5.778   1.200 -0.1083  0.1884  0.4147
14438W        W31286  15.971  14.988   0.393 -0.0399 -0.0568 -0.1482
14439W        W31287  10.744   3.298   3.503  0.0807 -0.0462 -0.2319
14440W        W31288  15.272  15.138   2.659 -0.0627  0.1700 -0.1209
14441W        W31289   5.400   2.982   3.249  0.2024 -0.1934 -0.1037
14442W        W31290  12.393   9.492   6.325  0.1712 -0.0382  0.1223
14443W        W31291   9.077   4.145   2.515 -0.0473  0.2618 -0.0094
14444W        W31292  15.652  17.159  14.594  0.0832  0.2114 -0.1756
14445W        W31293  16.881  12.984   0.767  0.1338  0.2994  0.0074
14446W        W31294  14.015   5.823  16.363  0.2045  0.1369 -0.0443
14447W        W31295   2.839  15.012   2.972 -0.0283 -0.2013  0.1470
14448W        W31296  15.034   8.405  15.206  0.0512  0.0762 -0.0946
14449W        W31297   7.372  15.671   2.886 -0.1173 -0.0756  0.1008
14450W        W31298  14.629   8.929   1.897 -0.3928  0.0578 -0.0227
14451W        W31299   4.168   8.685  14.713  0.2388  0.3164  0.0410
14452W        W31300   3.713  12.505   0.001 -0.1145 -0.2693 -0.2864
14453W        W31301  11.048  17.538  14.386 -0.0384 -0.2236  0.1131
14454W        W31302   9.617  12.274   3.874 -0.0959 -0.0075  0.0734
14455W        W31303  11.716   6.145  14.062 -0.1589  0.0318 -0.0408
14456W        W31304  13.109   2.473  12.378 -0.1101 -0.0406  0.3726
14457W        W31305   1.892   8.470  11.565 -0.0118  0.1891  0.3530
14458W        W31306   7.255  16.040  15.402 -0.0073 -0.0455 -0.1883
14459W        W31307   1.283   0.691   2.559  0.1319 -0.1852 -0.1323
14460W        W31308   4.398   9.188   3.137  0.1498  0.1815 -0.0240
14461W        W31309   3.271  12.230  14.344 -0.0843  0.1680  0.0788
14462W        W31310   7.167   6.937   3.942 -0.0743 -0.2062 -0.1889
14463W        W31311   1.585  10.743   2.351  0.0002 -0.2548  0.0298
14464W        W31312  10.585  17.216   4.283 -0.2281  0.1370  0.0105
14465W        W31313  13.944   9.122   4.532 -0.1883 -0.0157  0.1274
14466W        W31314  17.842  12.318  14.775 -0.1514 -0.1998  0.2352
14467W        W31315  15.230   4.574  13.814  0.2681  0.1471 -0.2286
14468W        W31316   3.914  14.411  14.679 -0.0800 -0.0447 -0.0584
14469W        W31317   7.016  11.136   4.343 -0.3703 -0.1149 -0.1458
14470W        W31318   1.015  15.088  12.836  0.3257 -0.0647 -0.1645
14471W        W31319  14.155   6.975  12.677 -0.0525 -0.3014  0.0474
14472W        W31320   4.742   3.181  14.982 -0.0482 -0.1642  0.0317
14473W        W31321   6.863  17.540   3.916 -0.1554 -0.0303  0.1407
14474W        W31322   6.332  13.992   3.815  0.1963 -0.1984 -0.1846
14475W        W31323   9.782  10.587  12.847  0.2456  0.1641 -0.1182
14476W        W31324   1.240   0.030   0.023 -0.1364 -0.1578  0.0746
14477W        W31325   6.126  16.114   4.216  0.1685  0.4060  0.0827
14478W        W31326   2.326   1.331  13.991  0.3564  0.0802 -0.3163
14479W        W31327   2.854   5.428  12.730  0.0356 -0.3384  0.4020
14480W        W31328  11.365  13.282  15.242 -0.1120  0.1391  0.0730
14481W        W31329  14.497  12.561  11.988 -0.3337  0.0658  0.0645
14482W        W31330  17.013  13.397  13.171  0.1958 -0.2282 -0.1109
14483W        W31331  11.482   0.852   0.324  0.1655  0.1052 -0.1514
14484W        W31332   4.709   7.380   4.689  0.0124  0.1225  0.3085
14485W        W31333  13.176  12.863  14.944 -0.0254  0.1556  0.1109
14486W        W31334   8.217  12.977   3.336  0.2160  0.1718  0.0145
14487W        W31335   4.530   4.672  15.310  0.1853  0.0725 -0.0062
14488W        W31336   2.080   2.259   0.333 -0.1380 -0.4167 -0.3772
14489W        W31337  16.352   5.989  14.475  0.1040  0.3022 -0.0552
14490W        W31338  17.247  16.330  11.955  0.1472  0.2035 -0.0883
14491W        W31339   2.571  15.382  16.022  0.2421 -0.0217  0.0326
14492W        W31340  15.848   7.539   0.900 -0.1173  0.1279  0.1979
14493W        W31341   8.274   9.017   5.337 -0.0064 -0.1761 -0.1394
14494W        W31342  12.578  10.950   4.580  0.1412 -0.0103  0.1917
14495W        W31343  11.873  11.636   1.024  0.2717  0.3104 -0.0079
14496W        W31344   2.625   6.145  15.734  0.0406  0.2407  0.0341
14497W        W31345   0.987   8.310   3.973 -0.0584  0.0795  0.2858
14498W        W31346  13.977  11.501   1.819  0.1179 -0.1104  0.1074
14499W        W31347   0.927   7.959   6.174 -0.1483  0.0677 -0.2282
14500W        W31348  14.522   5.130   4.750  0.1069 -0.3247  0.0037
14501W        W31349   9.044   0.072  11.428  0.2628  0.1769  0.1460
14502W        W31350   3.074  13.251  13.164 -0.1002  0.0977 -0.1036
14503W        W31351   5.665  16.364  11.852 -0.2824 -0.0706 -0.4323
14504W        W31352   9.511   0.094  11.614 -0.1473 -0.1936 -0.0158
14505W        W31353  10.839   1.065   3.281 -0.1417 -0.1291  0.0461
14506W        W31354  11.056  17.172   0.223  0.2607 -0.0194  0.0470
14507W        W31355  10.566  12.498  13.133 -0.0736 -0.1852 -0.3161
14508W        W31356   6.267   5.662   0.989  0.3664 -0.2213  0.0572
14509W        W31357   2.841   7.448   5.139  0.2711  0.1122  0.1621
14510W        W31358  15.835  15.819   2.529  0.0289 -0.4221  0.0740
14511W        W31359   0.051   5.349  14.379  0.1137 -0.3084  0.0331
14512W        W31360   7.510   2.737  11.058 -0.3994 -0.1155 -0.0945
14513W        W31361  17.715   1.387   3.911  0.1659  0.0497 -0.1919
14514W        W31362  10.248   1.149  16.242  0.1183 -0.0338  0.0493
14515W        W31363  14.074  15.741   4.777 -0.0151  0.1241  0.2043
14516W        W31364  15.756   4.779  12.067 -0.2280 -0.0708  0.1501
14517W        W31365   3.475   7.718  14.790  0.1994 -0.1483 -0.3451
14518W        W31366   1.707   6.342  12.308 -0.2529 -0.0387  0.2884
14519W        W31367   8.634   0.464  12.521 -0.0593 -0.0660  0.1373
14520W        W31368  11.199   6.302   5.092  0.2934  0.1428 -0.1443
14521W        W31369  10.333   5.662  13.507 -0.1648  0.0842 -0.2067
14522W        W31370   1.053  12.954   0.077 -0.4997  0.2276 -0.0830
14523W        W31371   9.312  11.019   3.134  0.1596  0.0945  0.1966
14524W        W31372   5.498   0.935   1.721  0.1653  0.1616 -0.1198
14525W        W31373  12.650   4.353   1.357  0.0493  0.3160 -0.2881
14526W        W31374  11.015  14.548   3.180  0.2697  0.0322  0.0622
14527W        W31375   8.950   9.530   0.612  0.1189  0.0893 -0.3356
14528W        W31376  16.410  17.321  15.227 -0.0062 -0.2580  0.0126
14529W        W31377   0.808   0.423  16.200 -0.2571 -0.1016 -0.1132
14530W        W31378  12.249   7.212   3.524  0.2469  0.0430 -0.2310
14531W        W31379   7.090  11.404  11.944  0.1034  0.1633  0.3286
14532W        W31380   5.681   0.844  13.806  0.3305 -0.2449  0.1088
14533W        W31381   3.835  16.287  15.604  0.1059 -0.1843 -0.0760
14534W        W31382  15.583  11.513  13.859 -0.0451 -0.0038  0.0339
14535W        W31383   9.290   3.451  13.663 -0.0314 -0.0673  0.3805
14536W        W31384   1.670   1.352   5.224 -0.2683  0.3673 -0.0698
14537W        W31385   2.383  13.458   5.228  0.5339 -0.1955  0.0351
14538W        W31386  13.868   8.903   1.878  0.3671  0.0520 -0.1808
14539W        W31387  14.892  16.390  15.886 -0.4630  0.4092 -0.0941
14540W        W31388   6.334   1.305  10.752 -0.1443 -0.1206  0.1913
14541W        W31389   7.762   9.757   6.178  0.0483  0.0388  0.1497
14542W        W31390  13.495  12.653   1.168  0.0729  0.0326  0.0680
14543W        W31391  10.225  16.980   4.911  0.1657 -0.1479 -0.0105
14544W        W31392   8.873   6.968   2.443 -0.0637 -0.0647  0.0809
14545W        W31393  14.105  11.762   2.229  0.1025  0.0339 -0.1868
14546W        W31394  15.561  11.140   3.360  0.0560  0.0239 -0.0816
14547W        W31395  15.918  13.261   1.014 -0.1375  0.1326  0.1628
14548W        W31396   7.348   8.830   1.123  0.4144  0.0299 -0.0628
14549W        W31397   5.947   1.463   2.244  0.1240  0.2159  0.0284
14550W        W31398  13.020   8.847  15.804  0.3270  0.1703  0.1062
14551W        W31399   5.937  13.343  13.097 -0.2856 -0.3315  0.0984
14552W        W31400  14.141  16.171  15.453 -0.0772  0.2445 -0.2110
14553W        W31401   5.371  14.347   0.525  0.1414 -0.1459  0.2701
14554W        W31402   4.677   5.549   1.677  0.0296 -0.1112 -0.0153
14555W        W31403   4.650  15.062   0.800 -0.2711  0.0586  0.1549
14556W        W31404   5.993  17.308  12.591 -0.1235 -0.0555 -0.0521
14557W        W31405   8.198   4.444   2.689  0.2437 -0.0283 -0.1117
14558W        W31406  13.554   2.120  12.253  0.1861  0.1384  0.0141
14559W        W31407  15.164   5.573   4.063 -0.0895 -0.2337  0.3397
14560W        W31408   3.432  14.460  14.589  0.1539 -0.1571  0.1163
14561W        W31409  14.045   3.304   0.183  0.0211  0.0006 -0.2057
14562W        W31410  16.716   6.508   5.007 -0.0718 -0.2621  0.2144
14563W        W31411   0.928  15.456  15.237  0.0036 -0.1329  0.3165
14564W        W31412  14.413   3.676   2.134 -0.1615  0.1380  0.3606
14565W        W31413   9.059   6.492  15.060  0.1103  0.3022  0.1080
14566W        W31414   5.519  14.869   2.992 -0.0173  0.1453  0.1690
14567W        W31415   4.051  17.403   4.985  0.2997  0.5320 -0.1341
14568W        W31416   7.613   6.062   1.457  0.0515 -0.0064  0.1828
14569W        W31417  14.160   9.232   2.750  0.2700 -0.0462 -0.3891
14570W        W31418  15.146  10.220   4.738  0.0027 -0.2016  0.1242
14571W        W31419   3.587   4.756   6.114  0.0226  0.2095  0.1035
14572W        W31420   3.022   9.376  11.441  0.0483  0.2085  0.1209
14573W        W31421   9.121  12.150  15.178  0.2397 -0.2109  0.0766
14574W        W31422   4.589  17.274  12.225 -0.2181 -0.0035 -0.0473
14575W        W31423   4.031  13.633  12.549 -0.1349 -0.1566 -0.2251
14576W        W31424  14.942  12.724  11.267  0.1179  0.0846 -0.0405
14577W        W31425  11.626  17.672   0.104  0.1158  0.0940  0.0110
14578W        W31426   4.528  16.841   0.134  0.0036 -0.1131 -0.0849
14579W        W31427  15.126   8.705   2.003 -0.1850  0.0387 -0.1472
14580W        W31428   7.957   2.844  10.890 -0.0697  0.0672  0.1984
14581W        W31429  13.384   3.115  11.389 -0.1513 -0.0591 -0.0954
14582W        W31430   3.408   6.301  11.373  0.1741  0.2178  0.1233
14583W        W31431  16.816  17.250   3.763  0.3020  0.2234  0.1461
14584W        W31432   4.596  11.205  15.507  0.2646 -0.0264  0.3462
14585W        W31433   8.617   5.829  12.548 -0.1901 -0.0199  0.2829
14586W        W31434   9.957   4.069   4.784 -0.2562  0.1672 -0.1835
14587W        W31435  10.005   4.555  13.965 -0.1611  0.0148  0.1095
14588W        W31436  16.461  13.680  14.101 -0.0260 -0.0420  0.2285
14589W        W31437   4.667   9.894  12.519  0.2326  0.1292 -0.1335
14590W        W31438  15.707  10.543   2.770 -0.2617  0.2372  0.0042
14591W        W31439  14.047  15.126  12.220 -0.3080 -0.0499 -0.1964
14592W        W31440   3.107   9.567   3.170 -0.0621  0.3256  0.1876
14593W        W31441   7.282   2.979   1.638  0.0382  0.1968  0.0791
14594W        W31442  10.016   1.784  12.472 -0.3834  0.4450  0.2338
14595W        W31443   2.736   4.619   2.263  0.1942 -0.0134 -0.0424
14596W        W31444   5.491  12.884   5.282  0.1269 -0.2523  0.3982
14597W        W31445  10.516  17.817  10.770  0.1234 -0.2342 -0.0404
14598W        W31446  15.507   2.495   1.903  0.1853  0.1635  0.0348
14599W        W31447  12.374  14.726  15.363 -0.0762  0.0710  0.0974
14600W        W31448  15.410   4.750   4.586 -0.0760 -0.2183  0.1505
14601W        W31449   4.191   0.386  13.695  0.3838  0.1554  0.0545
14602W        W31450   1.252   8.586  13.653 -0.0723 -0.1929 -0.0048
14603W        W31451   4.030  12.658  11.705 -0.3642 -0.1888  0.2257
14604W        W31452  14.683  12.457   1.065  0.1470  0.2875 -0.1936
14605W        W31453   8.853  15.588   2.045  0.0387 -0.2292  0.0375
14606W        W31454   1.354   3.453   3.390 -0.0705  0.0115  0.3030
14607W        W31455   7.796  12.489   1.616 -0.0171 -0.0889 -0.0621
14608W        W31456  17.029   4.775   0.046  0.0763 -0.2920  0.1797
14609W        W31457  12.894  12.067  13.380  0.0598 -0.0233 -0.0725
14610W        W31458   8.299   9.181  15.117 -0.0779 -0.1738 -0.1705
14611W        W31459   8.221  11.395   4.896 -0.1383 -0.3329 -0.1473
14612W        W31460   4.836  10.576   5.323 -0.3054 -0.0253  0.0427
14613W        W31461   8.555   6.387  12.842  0.0351 -0.0080  0.2461
14614W        W31462   7.054   3.328   2.866  0.1455 -0.3171  0.0844
14615W        W31463   9.523   5.192   5.613  0.1889  0.2553 -0.0746
14616W        W31464  10.895   6.296  12.188 -0.0546 -0.1822 -0.1271
14617W        W31465   3.530   9.794  14.028 -0.0253  0.1064 -0.0154
14618W        W31466   2.801  10.261  13.168 -0.1281 -0.0575  0.2571
14619W        W31467   9.405  13.991   2.291  0.1910  0.5474 -0.0514
14620W        W31468  15.494  15.306  12.824  0.5013 -0.0313 -0.1586
14621W        W31469   9.805   0.742   4.292  0.0797  0.0486  0.0317
14622W        W31470   8.485  13.237   2.883  0.0296 -0.2649  0.0361
14623W        W31471   2.313  12.253  14.084 -0.2638 -0.0739  0.1876
14624W        W31472   1.732   0.011  15.664 -0.2464 -0.0484 -0.0578
14625W        W31473   7.479   4.970   3.897 -0.1354 -0.0626 -0.0686
14626W        W31474  10.355   1.343  14.219  0.1503  0.2742 -0.3085
14627W        W31475   0.040  15.138   1.642  0.2511  0.0119  0.3242
14628W        W31476   2.898   0.887   2.395  0.2389 -0.2296 -0.1328
14629W        W31477  15.266   5.219   0.052 -0.0230 -0.2630  0.2650
14630W        W31478  12.931   6.209   4.639 -0.1699  0.0892 -0.2679
14631W        W31479   9.834   1.936   0.218 -0.1197 -0.1683  0.4299
14632W        W31480  16.148   4.974   3.580  0.0009 -0.1599 -0.2063
14633W        W31481  13.604  10.134   4.559 -0.0795  0.1633  0.0293
14634W        W31482  16.895   8.242   0.565  0.2601  0.0001 -0.0950
14635W        W31483   0.491   1.080  11.009 -0.3392 -0.1258  0.1108
14636W        W31484  15.559   2.974  11.197 -0.1516 -0.1649 -0.1895
14637W        W31485   3.620   9.383  13.274 -0.0086  0.0199  0.1312
14638W        W31486   8.167   9.572   1.749 -0.0617 -0.1328 -0.0297
14639W        W31487  13.204   8.885   0.626 -0.2036  0.1249 -0.0576
14640W        W31488   7.401  14.121  15.992  0.0842  0.0890  0.1432
14641W        W31489   6.385  17.110   1.076 -0.1541 -0.1014 -0.3314
14642W        W31490   6.819   2.838   4.410 -0.0983 -0.0020  0.1084
14643W        W31491  17.117   1.063   1.206 -0.0186 -0.2089  0.0374
14644W        W31492   6.588   1.014  16.279  0.0898 -0.1567  0.0511
14645W        W31493   4.917   6.663  14.392  0.0635 -0.0839 -0.0936
14646W        W31494   3.250  13.540  11.221 -0.0221 -0.2697  0.1676
14647W        W31495  16.965   9.208   0.237 -0.2114  0.0034  0.3112
14648W        W31496  13.491   4.428  15.682 -0.2373  0.3027  0.0913
14649W        W31497  16.334   7.534   5.222  0.0922 -0.0208 -0.1671
14650W        W31498  16.358   4.814   4.093 -0.1732  0.1229 -0.0911
14651W        W31499  14.488   0.128   2.619 -0.2302  0.1059  0.1252
14652W        W31500   9.780   6.993  13.298 -0.2220  0.1630 -0.0480
14653W        W31501  13.997  17.762  14.436  0.0995 -0.2429  0.1304
14654W        W31502  17.236   6.816   3.170  0.1919  0.1712  0.2812
14655W        W31503  10.558   6.383   3.577 -0.0199 -0.1525  0.2026
14656W        W31504  10.951   8.869   3.358  0.1038  0.0624 -0.1095
14657W        W31505   3.119   0.806   0.925  0.1267 -0.1503 -0.1665
14658W        W31506   3.032  10.925   2.652  0.0060  0.0342  0.1655
14659W        W31507  16.717  10.156   1.448  0.1400  0.2649  0.3134
14660W        W31508   1.536   4.984   1.670  0.0294  0.0804 -0.0986
14661W        W31509  10.882   3.233  12.617  0.1585  0.2637 -0.0699
14662W        W31510   1.435  16.704  12.582 -0.1303 -0.0653  0.3656
14663W        W31511   2.117  16.513   4.783  0.0894  0.0306 -0.0177
14664W        W31512  15.574   5.926   0.245 -0.2036 -0.0231 -0.0261
14665W        W31513  17.799   2.949   0.556  0.1653  0.0099 -0.0654
14666W        W31514  14.125   3.060  14.849 -0.0956 -0.0384 -0.1044
14667W        W31515  11.170   5.469  15.915 -0.3751  0.2163 -0.3106
14668W        W31516  12.285  11.379   1.737  0.0431 -0.1189 -0.2988
14669W        W31517   1.646   2.638  16.024 -0.2883 -0.2068 -0.0710
14670W        W31518   7.518   3.755  15.485  0.0032  0.2358 -0.4138
14671W        W31519   2.872   1.423   4.393 -0.1118 -0.1515  0.0374
14672W        W31520   3.797  13.575  11.323  0.1614 -0.1871 -0.3801
14673W        W31521   2.254   8.271  11.880  0.0533 -0.0827  0.1523
14674W        W31522  16.889  16.263  16.021  0.2059  0.1627  0.1886
14675W        W31523  10.017   9.311   1.646 -0.0872  0.3685 -0.3262
14676W        W31524   3.555   2.414   1.619 -0.2900 -0.0308  0.3189
14677W        W31525   0.901   9.956   4.028  0.0619  0.2860  0.2740
14678W        W31526  13.500   2.496   2.458 -0.0112 -0.3958  0.2619
14679W        W31527   4.874   1.404  13.051 -0.1799 -0.0750 -0.1375
14680W        W31528   3.716   2.437  10.376  0.2886 -0.1395 -0.0062
14681W        W31529  12.431   4.829  15.847  0.1975 -0.1722  0.0839
14682W        W31530  16.247  15.532  12.410  0.3056 -0.1932  0.0991
14683W        W31531   8.284  15.498   2.454  0.0410  0.1791  0.1822
14684W        W31532   2.374  14.445  15.220 -0.3832  0.2760  0.0469
14685W        W31533   9.966   3.670   3.852  0.2593  0.2057 -0.4616
14686W        W31534  15.922  16.530   4.436 -0.2002 -0.0906 -0.0508
14687W        W31535   2.820  11.363   3.363 -0.1648  0.1974  0.2949
14688W        W31536  17.020   7.906  13.455 -0.1790 -0.2956 -0.2007
14689W        W31537  16.452   8.977  16.417  0.1573 -0.2909 -0.1258
14690W        W31538  15.675   8.121   5.483  0.3333 -0.3776 -0.1893
14691W        W31539   7.612   0.842  12.411  0.1011 -0.1439 -0.1181
14692W        W31540   0.716  13.018   4.605 -0.1734 -0.5366 -0.0410
14693W        W31541   3.148   0.015  13.832  0.1695  0.1687 -0.0733
14694W        W31542   1.147   8.106   3.436 -0.1323 -0.0809 -0.1406
14695W        W31543  14.498  11.776  14.689  0.0605  0.0063  0.0998
14696W        W31544  10.442  17.494   3.481 -0.2067 -0.0483 -0.0850
14697W        W31545  10.373   3.289  13.601 -0.1074 -0.1884 -0.0195
14698W        W31546   7.405  10.039   4.450  0.1593  0.2953 -0.0519
14699W        W31547   6.611   9.735  15.114 -0.0004  0.1374 -0.2273
14700W        W31548   3.990   6.996  14.227  0.0432 -0.0078 -0.0131
14701W        W31549  16.911  13.254  14.084 -0.0586 -0.1956 -0.1799
14702W        W31550  11.919   4.136   3.234 -0.3896 -0.1643 -0.2067
14703W        W31551   3.203  17.047  14.006 -0.0418  0.2081 -0.1410
14704W        W31552  12.523   2.974  13.246 -0.1936  0.0344  0.1219
14705W        W31553  12.124   8.972  14.975 -0.1068 -0.0810  0.1618
14706W        W31554   9.867   9.771   1.945 -0.2744  0.0931  0.0044
14707W        W31555   9.374  10.756   6.526 -0.2084  0.0355 -0.1610
14708W        W31556   0.028  11.570   2.935 -0.1629 -0.2143 -0.0695
14709W        W31557  15.852  17.325  14.122  0.1545  0.0070 -0.0637
14710W        W31558  14.528   2.195   1.487  0.2682 -0.2603  0.1159
14711W        W31559   0.937  11.259  14.482 -0.1044  0.0639  0.0828
14712W        W31560  10.779   5.968   5.162  0.2423  0.1518  0.1624
14713W        W31561   4.665  17.033   2.485  0.1733  0.3383  0.2144
14714W        W31562  16.168   9.457   1.618 -0.2144  0.2612  0.0158
14715W        W31563  16.338  14.334  14.852 -0.0214 -0.0776  0.0254
14716W        W31564  17.823   1.007  15.487 -0.2603  0.0070  0.0594
14717W        W31565   5.419   8.558   4.639  0.2889  0.1037 -0.1674
14718W        W31566  13.582   1.018   3.961 -0.3332 -0.0505  0.0068
14719W        W31567   3.055   2.107   0.578  0.1801  0.0399  0.0015
14720W        W31568   1.625   3.054  13.759  0.2894  0.1214  0.2080
14721W        W31569  17.145  12.688   0.065  0.1814 -0.1902  0.2013
14722W        W31570   8.695   4.735   1.373 -0.1833  0.1152  0.3571
14723W        W31571   7.449   9.309  16.101 -0.2189 -0.1126 -0.0042
14724W        W31572   1.325   4.487   3.338  0.0728 -0.0844 -0.1912
14725W        W31573  16.763   8.600   1.554  0.0060  0.1106  0.1129
14726W        W31574  10.246   8.801  12.988  0.0637 -0.2439  0.1768
14727W        W31575  12.888   2.366   3.989  0.1387  0.0623 -0.0196
14728W        W31576   1.542  16.251   3.060 -0.1269  0.1375 -0.1267
14729W        W31577  17.209  16.351  15.204  0.0603  0.1122 -0.1900
14730W        W31578  12.379   7.784   5.328  0.1242  0.2081  0.1919
14731W        W31579   3.928   3.926   2.027 -0.2050 -0.0921  0.1887
14732W        W31580   3.072  12.952  11.127  0.0868 -0.0158  0.0987
14733W        W31581   6.929   2.202  15.866 -0.0808 -0.2399  0.0881
14734W        W31582  17.089   7.320   2.244  0.1294 -0.0092 -0.1338
14735W        W31583   1.433   2.267   2.541  0.1311  0.3494  0.1401
14736W        W31584   0.074  13.485  14.847 -0.0997 -0.0878  0.0706
14737W        W31585   6.724  16.571  15.560  0.0542  0.1320  0.2387
14738W        W31586   2.022  17.757   2.301 -0.0424 -0.2290 -0.0943
14739W        W31587  15.103   2.306  12.946 -0.0706 -0.3475 -0.1358
14740W        W31588  10.209   7.393  15.660 -0.2716 -0.0641 -0.0111
14741W        W31589   6.672  15.422   3.359 -0.0313 -0.1480  0.1192
14742W        W31590  14.329   1.601   3.464  0.1358 -0.1148  0.0515
14743W        W31591  16.129  13.121  12.714  0.0847  0.0662  0.1346
14744W        W31592  14.873  15.800  15.100 -0.0203  0.0992 -0.1444
14745W        W31593  16.213  10.660  11.126 -0.0057 -0.2590 -0.0317
14746W        W31594   2.295   8.245  13.414 -0.2769 -0.0155  0.1578
14747W        W31595  11.669  15.593   1.347  0.2351  0.2805  0.2664
14748W        W31596  11.159  17.424  11.136 -0.0892 -0.1337 -0.2960
14749W        W31597   4.272  11.301  15.869 -0.1690 -0.1187 -0.4394
14750W        W31598   7.704   9.801  14.676  0.0856  0.0156 -0.6186
14751W        W31599  14.082   3.859   5.111 -0.1714 -0.0481 -0.3788
14752W        W31600  14.797  12.401  11.593  0.2633  0.0938 -0.1983
14753W        W31601  10.098   6.500   5.265 -0.3360 -0.0343  0.0112
14754W        W31602  11.402   4.458  15.090  0.0257  0.3689  0.0239
14755W        W31603   5.846  13.127  10.600 -0.2075  0.1982 -0.0791
14756W        W31604   1.625  15.324   3.107 -0.0814 -0.0754  0.2625
14757W        W31605   6.183  17.726   2.441  0.1158 -0.0510 -0.1955
14758W        W31606  15.851  17.680   1.175 -0.2123  0.0159  0.2920
14759W        W31607  12.812   5.004  13.915  0.4111  0.2044  0.2718
14760W        W31608  13.273  10.137   1.933 -0.1610 -0.2734 -0.2257
14761W        W31609   5.566  10.084   3.843  0.0606 -0.3727  0.1840
14762W        W31610   0.631  16.687  11.386  0.3365 -0.0215  0.1150
14763W        W31611  16.437   0.104  13.747  0.1275 -0.1180 -0.0746
14764W        W31612  17.276   7.400  11.896 -0.0374 -0.3837 -0.0451
14765W        W31613  11.335   0.429  11.416 -0.3135  0.1137  0.0987
14766W        W31614  15.554  14.340  12.400  0.3688 -0.2577  0.2504
14767W        W31615  16.976  17.531   1.011 -0.0094  0.3151  0.2378
14768W        W31616   0.623   2.918   1.034 -0.1223  0.0037 -0.0363
14769W        W31617  16.128   7.366   2.066  0.1661 -0.1024 -0.0610
14770W        W31618   3.332  14.845  11.453 -0.2027 -0.1118 -0.1036
14771W        W31619   7.856  17.840   5.756 -0.0425 -0.2779 -0.0039
14772W        W31620   3.492  10.045  12.639 -0.2520  0.1923 -0.0377
14773W        W31621  10.031   7.580  15.239  0.1201  0.0981  0.2659
14774W        W31622  12.735   1.054   1.899  0.0236  0.1691  0.1547
14775W        W31623   1.496   3.021  15.359  0.0895  0.0050  0.1381
14776W        W31624   3.499   4.540   1.286  0.2911  0.0026  0.1502
14777W        W31625  10.058   2.649   1.156 -0.1040  0.2189  0.0088
14778W        W31626   8.438   1.567   4.885 -0.4381 -0.4041  0.0734
14779W        W31627   1.632  15.767   4.649 -0.1460  0.1875 -0.1709
14780W        W31628   4.539   1.032  13.054 -0.0070  0.0092 -0.0045
14781W        W31629   3.278  13.341   3.772 -0.1925  0.0914  0.0018
14782W        W31630  11.766   2.953   1.818  0.1372  0.0043 -0.2822
14783W        W31631  13.328   6.876   2.496 -0.3880 -0.4018  0.2525
14784W        W31632  10.491   0.092  13.118 -0.4246  0.0646 -0.3089
14785W        W31633   2.117  12.927   1.077 -0.0205  0.1196 -0.0539
14786W        W31634   3.779  10.878  15.295 -0.0797  0.4208 -0.0557
14787W        W31635   4.042   5.091   3.391 -0.1035 -0.1821  0.2394
14788W        W31636  11.732   8.852  11.908 -0.1950  0.1843  0.0860
14789W        W31637  17.742  10.074  12.251  0.1460 -0.0777  0.0629
14790W        W31638  14.917   9.974  15.782  0.0535 -0.1126 -0.1217
14791W        W31639  16.135  10.167  14.671 -0.1910 -0.1584 -0.0831
14792W        W31640   5.816  10.752   1.339 -0.1182 -0.0532  0.2740
14793W        W31641   8.124   8.750   4.874 -0.1956 -0.2255  0.1561
14794W        W31642   9.188  12.371   2.613 -0.1580  0.0936 -0.1132
14795W        W31643   2.212   0.722  15.921  0.1632  0.0733  0.1579
14796W        W31644  14.209   4.168   3.337  0.0636  0.1303 -0.1145
14797W        W31645  10.356   2.337   1.621  0.0008 -0.0278 -0.4652
14798W        W31646   6.663  10.997   3.934 -0.3390 -0.3112 -0.0691
14799W        W31647  10.860   8.430   3.625 -0.1423  0.1810  0.1322
14800W        W31648   7.255   9.383  14.252 -0.1824 -0.3017  0.0476
14801W        W31649  17.472   8.101  16.224 -0.2505 -0.1080  0.1111
14802W        W31650  11.392  10.325   5.142 -0.1300 -0.0226 -0.1856
14803W        W31651   8.244   7.038  12.003 -0.0535  0.2538  0.2074
14804W        W31652   3.123   3.016   5.139 -0.0526  0.0103  0.3823
14805W        W31653  14.500   2.759  14.685 -0.0272 -0.2744  0.1314
14806W        W31654  11.063  17.702  15.352 -0.2954 -0.1361  0.0728
14807W        W31655  15.455   4.325   4.349  0.0551 -0.2586  0.1980
14808W        W31656   1.690  11.536  12.942 -0.1309  0.3415  0.1231
14809W        W31657  11.705   7.469   1.742 -0.0598 -0.0848 -0.1924
14810W        W31658   0.137   2.477   3.054 -0.0029 -0.0871  0.4289
14811W        W31659   8.464   6.203   2.157  0.0093  0.1968  0.1672
14812W        W31660  14.736   6.858  14.344 -0.2286  0.3957 -0.0681
14813W        W31661  10.326   9.627   2.769  0.1474  0.4522 -0.0020
14814W        W31662  12.163   8.562   1.761  0.1865  0.1264  0.1247
14815W        W31663   6.196   0.012  14.284  0.1895 -0.0948 -0.4671
14816W        W31664   4.415   1.178   0.572 -0.2302 -0.1255 -0.1628
14817W        W31665   1.373  15.296  12.132 -0.2001  0.3438 -0.1785
14818W        W31666  15.362  10.937  11.473 -0.2740 -0.1408 -0.0022
14819W        W31667   2.448   6.772   5.782  0.1206  0.0130  0.2337
14820W        W31668   8.532   9.129  13.186  0.2640 -0.1821  0.1795
14821W        W31669  16.493   4.566   0.012 -0.0121 -0.1342 -0.2441
14822W        W31670  12.885  16.186   2.482 -0.0627 -0.1084  0.1251
14823W        W31671   6.488  15.557   5.855  0.1000 -0.1472  0.1810
14824W        W31672  13.048  10.029  14.824 -0.0988  0.0659 -0.0945
14825W        W31673   6.952   9.851   5.340 -0.1054 -0.2231 -0.1976
14826W        W31674  14.030  17.439   3.364  0.2456  0.2420 -0.0969
14827W        W31675  11.875  15.306   0.969 -0.2908 -0.0933 -0.1246
14828W        W31676   0.172  16.945  11.594 -0.0857 -0.0318 -0.1262
14829W        W31677   9.920   0.228  15.958 -0.1986  0.0130 -0.0773
14830W        W31678   3.295  16.071   3.303 -0.2441 -0.2044 -0.2003
14831W        W31679   3.756  10.055  15.504  0.1775 -0.0904  0.1511
14832W        W31680   4.864   7.800  16.411 -0.0659 -0.0198 -0.0240
14833W        W31681   6.056   4.349   1.330 -0.0218 -0.0632 -0.0468
14834W        W31682   4.223   0.223   0.440 -0.1513  0.2178 -0.1673
14835W        W31683  10.816   5.497   3.831  0.1418  0.0986  0.1128
14836W        W31684   3.354  13.315   2.176 -0.2580 -0.3615  0.1621
14837W        W31685   5.570   6.271   3.227 -0.1544  0.0301 -0.0205
14838W        W31686   3.397  14.487   3.912  0.2997 -0.2333 -0.1571
14839W        W31687  12.027   2.490  13.177  0.0267  0.1325  0.2207
14840W        W31688   4.985  16.172  16.464  0.0270 -0.2077  0.0303
14841W        W31689   2.301  12.723  14.937 -0.3375  0.1854 -0.3398
14842W        W31690  11.293  16.088  14.960  0.0582 -0.1230  0.1084
14843W        W31691  11.308   1.477  16.290  0.3112  0.3096  0.0851
14844W        W31692   1.030   5.884  15.644 -0.0106 -0.1234 -0.1967
14845W        W31693   1.470   9.437  12.761  0.2134  0.0180  0.0932
14846W        W31694   6.300  11.161  11.864 -0.3492  0.3006  0.0969
14847W        W31695  14.872   6.317   4.665  0.0480 -0.0525 -0.0659
14848W        W31696   9.287   2.626  13.080 -0.0677 -0.0427  0.2012
14849W        W31697   2.558   7.105  12.209  0.1365 -0.2172 -0.1215
14850W        W31698  13.907   5.588   3.127  0.2431 -0.3111 -0.0518
14851W        W31699  16.505   1.050   4.278 -0.0835 -0.0088  0.0993
14852W        W31700   6.595   1.617  15.204  0.2623  0.1783 -0.0688
14853W        W31701   7.342  11.262   1.855  0.0661 -0.0058  0.0794
14854W        W31702   9.463  11.264   1.561  0.0853  0.0053 -0.1837
14855W        W31703   6.351  16.592   1.197  0.0356  0.3206  0.0015
14856W        W31704   9.168  10.243  15.109  0.1803 -0.1114  0.1164
14857W        W31705   3.245  15.249  13.130 -0.1435 -0.2654 -0.0058
14858W        W31706   8.597   2.968  12.867  0.1029  0.1819 -0.2478
14859W        W31707  13.362   6.919   4.504  0.1492 -0.4534  0.0655
14860W        W31708  13.701  16.787   1.750  0.0405 -0.2648 -0.2325
14861W        W31709  12.019   5.248  15.478 -0.2327 -0.0152  0.0219
14862W        W31710   5.847   7.690   2.726 -0.0010  0.0660 -0.0729
14863W        W31711  10.378  16.843  12.610  0.2633  0.2761 -0.0031
14864W        W31712  12.075   5.525   2.340 -0.0834  0.0753  0.1421
14865W        W31713   8.656   6.906   4.892 -0.1552  0.0695 -0.4146
14866W        W31714  13.960   9.613   3.039  0.0948 -0.0991  0.0393
14867W        W31715  17.630   7.996   1.603  0.1757  0.0779  0.2227
14868W        W31716   3.502   7.141   3.068 -0.0363  0.1161 -0.2743
14869W        W31717   6.477   0.823  13.530  0.2445 -0.2428  0.1014
14870W        W31718  10.303   8.549  15.853 -0.0662  0.0962  0.0696
14871W        W31719   8.496   3.097   1.954 -0.1875  0.3427  0.1272
14872W        W31720   4.220   3.558   0.453  0.0530  0.1348  0.1383
14873W        W31721   8.175  16.476   0.260 -0.0146 -0.1957 -0.0481
14874W        W31722   0.360  10.469  10.428  0.1701 -0.1567  0.1082
14875W        W31723  13.085  11.724   4.342  0.0402  0.2107  0.0793
14876W        W31724   6.594   8.581  15.809 -0.1216 -0.0024  0.3265
14877W        W31725   1.519  17.518   0.083  0.0634  0.3687  0.1522
14878W        W31726   2.072  12.002  13.687 -0.2552  0.2352 -0.0223
14879W        W31727  10.646   2.820  12.691 -0.1040 -0.1892 -0.2676
14880W        W31728  13.360   4.549   3.847 -0.1770 -0.0802  0.2667
14881W        W31729   1.233   8.086  14.501  0.0701  0.0272  0.0555
14882W        W31730   1.790  11.936   3.895  0.1129 -0.0373 -0.0473
14883W        W31731   1.886  11.601   3.155 -0.0267  0.1289  0.0982
14884W        W31732  13.994   0.776  11.030 -0.4676 -0.2104 -0.2719
14885W        W31733   8.716   4.323  13.419 -0.2479 -0.1127  0.0716
14886W        W31734   9.901   0.477   1.104  0.1874 -0.0132  0.1195
14887W        W31735   9.993   9.470   0.576 -0.2364 -0.0955  0.2997
14888W        W31736   1.115   8.329  10.805  0.0851  0.0398 -0.3068
14889W        W31737  11.338  11.277  13.201 -0.3718 -0.0730 -0.0829
14890W        W31738   9.095  17.504  13.449 -0.0560 -0.0557 -0.0628
14891W        W31739   4.449   2.110   0.699 -0.0141 -0.2548  0.2007
14892W        W31740  14.103   2.401   3.332 -0.2890 -0.0056  0.2542
14893W        W31741   2.051   8.695   0.836 -0.2071 -0.0764  0.0595
14894W        W31742   7.436   1.699  13.132 -0.5130 -0.0997 -0.1476
14895W        W31743  16.805   1.903   2.464  0.1339  0.1440  0.0120
14896W        W31744   9.464   3.802   0.009 -0.3142  0.0229  0.1144
14897W        W31745   1.512   6.774  13.550 -0.3962  0.1196 -0.0062
14898W        W31746   9.342  10.346  13.437 -0.2712  0.1116 -0.2727
14899W        W31747  13.522   2.566  15.929  0.0041 -0.0180 -0.0631
14900W        W31748   9.041   0.851   0.295 -0.0358  0.1168 -0.1147
14901W        W31749   0.921  14.269   1.293  0.0539  0.1882  0.0622
14902W        W31750  11.410   8.569   0.257  0.1935 -0.1068  0.0467
14903W        W31751   3.183  11.196  12.019 -0.2595  0.0227 -0.1334
14904W        W31752  16.318   0.530  14.113  0.0397 -0.2028 -0.2288
14905W        W31753   4.452   4.483  14.378 -0.1932 -0.0712  0.0364
14906W        W31754   5.917  16.394   1.479  0.2488 -0.1595 -0.0483
14907W        W31755  15.174   6.512   1.330  0.0797  0.0676 -0.0960
14908W        W31756   1.952   8.219  14.787 -0.0335  0.0354  0.1849
14909W        W31757  11.933   5.767  13.720 -0.2423  0.0029 -0.0139
14910W        W31758  16.521  16.286   3.918 -0.0317 -0.0381 -0.1086
14911W        W31759   4.125  12.045   1.077  0.2665  0.0852 -0.0945
14912W        W31760  17.367   4.070   0.153  0.2960 -0.1994 -0.3705
14913W        W31761  16.037   0.254  15.684 -0.4963  0.0066 -0.3303
14914W        W31762  14.518   0.959   2.059 -0.1040  0.0305 -0.0849
14915W        W31763  13.540   1.713   2.954  0.1917  0.3993  0.0366
14916W        W31764  17.380   5.135   3.255 -0.0375 -0.0315  0.2536
14917W        W31765  17.397   9.622   0.110  0.1307  0.0921 -0.3167
14918W        W31766  17.696   5.525   1.631  0.0928  0.1240 -0.1264
14919W        W31767   4.793   7.973   2.417  0.0846 -0.2006 -0.0401
14920W        W31768   3.363   5.317  11.430  0.1412 -0.0502 -0.0527
14921W        W31769   4.291   2.554   3.828 -0.0697  0.1728  0.4874
14922W        W31770   4.005  16.560  15.132 -0.0763 -0.6900  0.1473
14923W        W31771   4.908  12.468   4.645  0.4166 -0.2036 -0.1506
14924W        W31772  17.707   3.745  16.263 -0.4205 -0.1121 -0.0994
14925W        W31773   6.312  10.087  15.738  0.0518  0.1608  0.2067
14926W        W31774  17.812  10.665  15.095 -0.0528  0.0336  0.1763
14927W        W31775  13.939  16.237   0.230  0.1320 -0.0796  0.3413
14928W        W31776   3.011  15.757  15.294 -0.1237  0.1745  0.1571
14929W        W31777  16.137  10.830   2.897  0.6423  0.0072 -0.4843
14930W        W31778   7.213  10.300  14.515  0.0445 -0.1443  0.2552
14931W        W31779   1.104   6.268   2.765  0.2184 -0.1855 -0.0370
14932W        W31780  15.560   3.473  12.403 -0.0714 -0.2189  0.0111
14933W        W31781  12.562   4.699   2.229  0.0111 -0.0612 -0.1383
14934W        W31782   1.632  11.897  15.047 -0.1934 -0.0191 -0.0073
14935W        W31783   6.874   0.544  12.704 -0.0286 -0.3712  0.2319
14936W        W31784  17.753  14.177   4.747  0.2335  0.0109  0.3570
14937W        W31785   2.576  10.240   0.737 -0.0611 -0.0453 -0.0442
14938W        W31786  11.125   4.491  13.341  0.1907  0.1692 -0.2098
14939W        W31787   6.723  11.543  11.094 -0.3623  0.1606 -0.3005
14940W        W31788   0.125   3.895   4.788  0.1736  0.1354 -0.0764
14941W        W31789   9.027   0.983  14.660 -0.0071 -0.1940 -0.1321
14942W        W31790   4.348  13.591   2.915 -0.0812 -0.0429  0.3311
14943W        W31791  15.269  16.078   3.171  0.1382 -0.0475 -0.1271
14944W        W31792  12.242   7.486   2.749 -0.1278 -0.0465 -0.2799
14945W        W31793  10.965  11.937   1.150 -0.2382  0.2397 -0.2986
14946W        W31794   1.283   3.593   1.181 -0.2040  0.1785 -0.0958
14947W        W31795   1.251   1.267   1.437  0.0450  0.0804  0.4941
14948W        W31796   5.411  13.444   2.939 -0.2565  0.0036  0.0186
14949W        W31797   2.884   7.048  16.007  0.1048 -0.0021  0.0605
14950W        W31798   0.125   0.031   0.813 -0.1338  0.1708 -0.0783
14951W        W31799   0.614  12.122  10.614 -0.2580 -0.0643  0.1142
14952W        W31800  13.390   1.116  13.219 -0.0555  0.0673 -0.1862
14953W        W31801   1.604   9.039  12.027 -0.0561 -0.3537  0.0330
14954W        W31802  10.210  15.787   5.193 -0.4364 -0.1262 -0.0059
14955W        W31803  17.541   0.482  15.403  0.0937  0.1577 -0.0313
14956W        W31804  14.218   1.342   0.152 -0.0742  0.1586 -0.3824
14957W        W31805   0.713   0.270   1.082  0.1129 -0.0359 -0.1827
14958W        W31806  15.617  12.627  12.057  0.1038 -0.0098 -0.2297
14959W        W31807   2.714  10.321   3.100  0.2934 -0.0144  0.0600
14960W        W31808  12.965  14.784   1.280  0.1810 -0.4179 -0.4708
14961W        W31809  10.655  17.144  15.459  0.0982  0.0935  0.2724
14962W        W31810   9.291   8.197   4.642  0.2193 -0.1691  0.3554
14963W        W31811  14.508   5.929  14.017  0.1203 -0.0502  0.1551
14964W        W31812   6.606  15.455  12.644 -0.4590  0.1118  0.3114
14965W        W31813   3.456   6.662   1.212 -0.2373  0.2496  0.0985
14966W        W31814   4.664  15.963  12.628 -0.0582 -0.0468  0.1863
14967W        W31815  14.943   4.094   1.519  0.1880 -0.1311  0.1340
14968W        W31816  15.041  17.684   3.375  0.2728  0.0507 -0.2738
14969W        W31817   2.953  14.156  13.891  0.0744 -0.1551  0.0476
14970W        W31818   0.346  11.617   4.198 -0.0401 -0.1800  0.1872
14971W        W31819   2.991  16.768   3.904  0.0482  0.2886  0.1262
14972W        W31820  15.017   9.704  14.407 -0.2375  0.0732 -0.4238
14973W        W31821   3.174  12.156  13.199  0.1331  0.1277  0.0956
14974W        W31822  15.712   1.949   1.192  0.1988 -0.0893 -0.2571
14975W        W31823  13.958  17.405  11.785  0.3224 -0.1484  0.0184
14976W        W31824  10.967  16.259  14.577  0.0345 -0.4113  0.3594
14977W        W31825   4.480  15.980  14.507 -0.0280 -0.0216  0.0141
14978W        W31826  10.747  13.403  15.517  0.1484 -0.3237 -0.0197
14979W        W31827  17.759  14.592   3.358 -0.4334 -0.4772 -0.1135
14980W        W31828   7.343  15.546   1.615  0.3139  0.0057 -0.2388
14981W        W31829  17.190   2.852  13.202  0.1430 -0.2677 -0.0186
14982W        W31830   0.894   5.553  15.987 -0.2318  0.1118 -0.1644
14983W        W31831   9.103   3.501   0.562 -0.1268  0.0573 -0.0673
14984W        W31832  13.243   3.426   2.489 -0.0975  0.2428 -0.2163
14985W        W31833   0.618   4.090   3.412  0.1022 -0.3820  0.2219
14986W        W31834  12.898   3.377  15.041 -0.1145 -0.0578  0.0929
14987W        W31835   2.761   3.754   5.769  0.0829  0.0174 -0.3170
14988W        W31836  13.068   1.694   4.334 -0.0136  0.3997 -0.0688
14989W        W31837  15.594  14.909   2.257  0.1248 -0.1593  0.0615
14990W        W31838  16.359   2.940   1.347 -0.0452 -0.0307 -0.1294
14991W        W31839  12.175  15.180   3.534 -0.2568  0.4058  0.0720
14992W        W31840   8.020   8.542  16.190  0.0344 -0.2216  0.2593
14993W        W31841  14.073   3.493   2.851  0.1401  0.2303  0.1511
14994W        W31842   4.606   9.586   2.203 -0.1863  0.0812  0.1009
14995W        W31843  12.130  13.329  15.654 -0.0359  0.0451  0.2301
14996W        W31844   8.537   9.277   2.419 -0.0131  0.2554  0.0317
14997W        W31845  16.862  16.835  12.227 -0.0849 -0.1225  0.1302
14998W        W31846   4.572  12.808  16.061  0.3744  0.0538  0.1987
14999W        W31847  12.114  17.084  15.677  0.0255 -0.0906 -0.0543
15000W        W31848  12.305   2.028  11.491  0.3108  0.0381  0.0064
15001W        W31849   7.454  14.443   0.937 -0.1153 -0.2110 -0.1066
15002W        W31850   7.486   5.842   3.070 -0.1491 -0.1200 -0.1619
15003W        W31851   0.623  15.057   0.842  0.0768  0.1699 -0.1200
15004W        W31852   4.000   7.382  11.661  0.1896  0.2520  0.1214
15005W        W31853   3.772  16.370   0.087 -0.0714 -0.4628  0.1419
15006W        W31854   4.704   3.650  15.182 -0.0903 -0.0346 -0.1600
15007W        W31855  14.401  17.275  13.006  0.0647 -0.4403 -0.1483
15008W        W31856   0.742   0.297  12.737  0.3803 -0.2160 -0.0043
15009W        W31857   3.929   0.266   4.548 -0.0140  0.0381 -0.2559
15010W        W31858  14.379   9.643   0.802  0.0275 -0.3893 -0.2389
15011W        W31859   5.053  13.044   5.465 -0.1012  0.5397  0.1794
15012W        W31860   4.697  16.914   3.395 -0.2419  0.1423  0.4403
15013W        W31861   4.657   9.189   4.634 -0.1212  0.1151  0.3560
15014W        W31862   9.418  10.775  15.864  0.0741  0.3290  0.2227
15015W        W31863  11.118   9.200  15.036  0.2499  0.2292  0.1223
15016W        W31864   3.253   7.075   1.426 -0.1876  0.0945 -0.1503
15017W        W31865   6.523  13.436   4.614  0.0252  0.3782 -0.0398
15018W        W31866  13.937   2.032   1.349 -0.2689  0.0026 -0.1195
15019W        W31867   8.008  11.506  14.245  0.1290  0.5267  0.1374
15020W        W31868   9.792  16.157   4.977  0.0065 -0.1524  0.2314
15021W        W31869   5.841   9.867  15.788  0.0419  0.1022 -0.0582
15022W        W31870   1.658  11.775  14.454  0.1188 -0.0133 -0.1088
15023W        W31871   1.196   6.353  15.491  0.1349  0.0373 -0.0589
15024W        W31872   7.552  11.565   3.762 -0.0432 -0.1141 -0.1272
15025W        W31873  11.450   3.067   2.187 -0.0177 -0.3450 -0.1482
15026W        W31874   4.198  11.533  12.332  0.1440  0.0011 -0.2635
15027W        W31875   5.229   0.482  16.275 -0.0845  0.0472  0.1914
15028W        W31876   4.885   3.188   4.671  0.0700 -0.1606  0.1917
15029W        W31877   0.255   8.490  13.315 -0.1516  0.2321 -0.1624
15030W        W31878  17.841  15.112  16.081 -0.5500  0.0996 -0.1138
15031W        W31879  13.513   6.487  14.747 -0.0350  0.3206  0.0943
15032W        W31880  14.711  11.012   3.661  0.2585  0.0119 -0.3865
15033W        W31881   4.419   8.400   2.504 -0.0583  0.1622  0.0842
15034W        W31882   5.060   5.520   2.752  0.0845  0.0157  0.4023
15035W        W31883   9.143  16.626  12.860 -0.0647  0.0352 -0.2229
15036W        W31884  13.632  15.972   1.170 -0.0827 -0.1723 -0.3525
15037W        W31885   4.627  11.988   4.694  0.0081 -0.2227 -0.0016
15038W        W31886   3.925  10.791   6.043  0.2038  0.0943  0.3914
15039W        W31887   6.709  13.817  15.727 -0.0304 -0.0773 -0.0011
15040W        W31888   0.313  11.661   2.443  0.1611  0.1694  0.2097
15041W        W31889   8.316   8.237   0.569 -0.0399  0.2415  0.0252
15042W        W31890   3.703   0.821   1.127 -0.2225  0.0761 -0.0261
15043W        W31891   3.260  14.662   0.876  0.1674  0.1336 -0.0714
15044W        W31892  14.536   7.836   0.247 -0.0815 -0.2270  0.0245
15045W        W31893   5.656   0.282  13.668  0.1752  0.4111  0.2144
15046W        W31894   1.894  16.487   3.352 -0.1377 -0.3403 -0.3110
15047W        W31895  13.358  10.409   5.039  0.1295 -0.0009 -0.0437
15048W        W31896   7.863  14.863  15.875 -0.1023  0.1503  0.0817
15049W        W31897  10.705   4.522   3.584 -0.0539 -0.0524  0.2040
15050W        W31898  12.419  10.228   2.419  0.0194  0.3250 -0.0335
15051W        W31899   4.604   2.077  11.350 -0.0653  0.2934 -0.1075
15052W        W31900  13.291  16.225   0.890  0.2172  0.1514  0.1078
15053W        W31901   3.086  13.045  14.579 -0.0357  0.2430 -0.0339
15054W        W31902  12.696   0.964  11.147 -0.2145 -0.0590 -0.2417
15055W        W31903   3.398  11.740  14.209 -0.0056 -0.0085 -0.0131
15056W        W31904  13.610  12.029  14.832  0.0758 -0.2713  0.0742
15057W        W31905   9.325   5.551   5.871 -0.1629 -0.2062  0.1116
15058W        W31906   2.621   2.451  12.178  0.2499 -0.1745  0.1669
15059W        W31907   5.347   1.538  13.654  0.1475  0.0209  0.0807
15060W        W31908   4.870  14.049   4.858  0.0747  0.3606  0.0678
15061W        W31909   2.526  13.215   3.388  0.0667  0.0133  0.2780
15062W        W31910  10.545   2.942  14.365  0.0248 -0.0500 -0.0237
15063W        W31911   8.416  12.094   3.979  0.2197 -0.0626  0.1154
15064W        W31912   6.356  16.606   2.710 -0.0387 -0.0344  0.1584
15065W        W31913   6.980  13.437  13.194 -0.0233  0.1377  0.3036
15066W        W31914  14.918  11.535   1.811  0.1955 -0.1225  0.1166
15067W        W31915  13.724  13.934   0.512 -0.1219 -0.0584 -0.2819
15068W        W31916   6.954  10.775  13.705 -0.5354  0.0573  0.0292
15069W        W31917   5.494   5.421   4.715  0.0943 -0.1875  0.1931
15070W        W31918  14.677   3.892   4.912 -0.0411  0.1315  0.1863
15071W        W31919  11.030   7.599   1.767  0.0340 -0.1679  0.0098
15072W        W31920   5.693  16.588   1.877  0.0195  0.0270 -0.2233
15073W        W31921   2.337   9.088   4.465 -0.1086 -0.1137  0.0290
15074W        W31922   6.139  14.362   3.494 -0.1663  0.1350 -0.1661
15075W        W31923  10.590   4.679  13.931 -0.0161 -0.2621 -0.0018
15076W        W31924  12.081  14.391  14.857 -0.1627  0.1051 -0.0021
15077W        W31925   1.012   8.746   3.589  0.1171 -0.0026 -0.1034
15078W        W31926  14.983  10.021   0.213 -0.0541  0.1533 -0.0548
15079W        W31927  12.076  15.106  14.224  0.0208  0.0914  0.2874
15080W        W31928  16.047  15.901   5.468  0.4107 -0.0371  0.0992
15081W        W31929  16.590   6.348  14.031  0.2886 -0.0539  0.0720
15082W        W31930  17.039  16.782   3.633 -0.3345  0.1180  0.1196
15083W        W31931   0.093   9.460  13.931  0.0517 -0.0041 -0.1167
15084W        W31932  14.347   5.606   3.496  0.2681  0.1817 -0.1889
15085W        W31933   6.742   3.089   5.716 -0.0524 -0.0880  0.0015
15086W        W31934  11.566  16.100   0.871 -0.0707  0.0414  0.2387
15087W        W31935   2.621   6.717  15.651 -0.2013  0.2883 -0.2701
15088W        W31936   5.262  10.700  15.844 -0.0789 -0.2679 -0.0903
15089W        W31937   7.806   2.835   4.213  0.0588  0.1161 -0.1039
15090W        W31938   3.593   8.419   6.409  0.0657  0.1741  0.2727
15091W        W31939   9.110   0.193  13.340 -0.0439 -0.0990  0.3929
15092W        W31940   7.927   7.079  13.305  0.0244  0.1595 -0.4391
15093W        W31941   1.474   3.231  14.288  0.0215  0.1872  0.1564
15094W        W31942   2.536   4.662  11.165 -0.2763 -0.1836  0.1471
15095W        W31943   8.695   3.936  11.130 -0.1925 -0.1076  0.1922
15096W        W31944   1.743  13.588  15.316 -0.1703 -0.0040 -0.1171
15097W        W31945   7.900   3.095   3.267  0.0861 -0.3383  0.0167
15098W        W31946  15.253  16.963   5.880 -0.2244  0.0219 -0.0197
15099W        W31947   3.069  14.854   6.102  0.1157  0.0019  0.0883
15100W        W31948   9.023  10.725  12.575 -0.0326 -0.1815  0.1803
15101W        W31949   7.500   8.107   2.904 -0.1318 -0.1493 -0.1262
15102W        W31950   6.073   3.943  15.954  0.1634  0.0824 -0.0921
15103W        W31951   3.867   7.397  15.543 -0.3463 -0.3853 -0.0753
15104W        W31952   6.876   3.766   3.389 -0.0790 -0.0988 -0.1300
15105W        W31953   2.440   4.654   4.309  0.0394  0.1703  0.1692
15106W        W31954  10.296  15.768   3.788 -0.0739 -0.0454  0.2388
15107W        W31955   1.732   4.211   2.025  0.0052  0.0812 -0.4693
15108W        W31956  12.792   3.231   5.035 -0.0920 -0.0553  0.3582
15109W        W31957   1.286  11.715  16.226  0.2574  0.0487  0.4049
15110W        W31958  15.629  15.244  11.439 -0.0060  0.3115 -0.1299
15111W        W31959   1.457   3.176  11.847 -0.2165  0.1944  0.1366
15112W        W31960  10.540   7.599   1.608 -0.1322  0.3923  0.1200
15113W        W31961   3.595  16.066  11.602 -0.2305 -0.1914 -0.1263
15114W        W31962  12.390  15.600   4.499  0.0989  0.3041 -0.3973
15115W        W31963   0.765   6.624   4.560 -0.2548  0.0716 -0.1367
15116W        W31964   0.042   2.336  13.887  0.0848  0.1901 -0.0011
15117W        W31965   3.543  15.810  13.451 -0.1980 -0.1812  0.3310
15118W        W31966  15.086   2.697  11.110 -0.3272 -0.1666 -0.1068
15119W        W31967   3.646   2.344  14.981  0.1309 -0.1211  0.0772
15120W        W31968   9.029   0.714   3.159  0.1695 -0.3841  0.0161
15121W        W31969  17.179  15.891   4.577 -0.2417 -0.0220 -0.2719
15122W        W31970   7.718   4.279  16.256 -0.1505 -0.0798 -0.0422
15123W        W31971   7.750   8.519  14.304 -0.4378  0.1799 -0.1975
15124W        W31972  16.169  13.664  12.451 -0.0318  0.3415  0.1730
15125W        W31973  13.245   5.812   4.524 -0.2676 -0.2964 -0.0794
15126W        W31974  16.579  10.177  14.976 -0.0359  0.4111  0.1123
15127W        W31975  12.771  14.031  12.469  0.2687  0.2164 -0.0742
15128W        W31976   5.197  13.819  14.632  0.0936 -0.0643  0.2653
15129W        W31977  11.567   1.056   3.868 -0.1280  0.1563  0.1302
15130W        W31978  11.705   9.113   4.752 -0.1511 -0.3496  0.4400
15131W        W31979   2.334   9.592   2.545 -0.1856 -0.1490 -0.3148
15132W        W31980   8.394  13.577   5.802  0.1827 -0.0745  0.2354
15133W        W31981  13.926  13.427   3.536 -0.0054 -0.2241  0.1385
15134W        W31982   0.984  16.327  13.073  0.0004 -0.4005 -0.1466
15135W        W31983  15.282   2.439   3.660  0.2179  0.1921  0.2538
15136W        W31984   9.016   2.586   3.965 -0.3366 -0.2218 -0.2069
15137W        W31985  16.951  12.310   4.525 -0.2046  0.3691 -0.4319
15138W        W31986   5.736  11.071   4.867 -0.1156  0.1785  0.1804
15139W        W31987  17.651  15.537  16.306 -0.0039 -0.1679 -0.2426
15140W        W31988   7.303   8.259  14.130  0.0201  0.2230  0.0323
15141W        W31989  14.443   4.546   0.932 -0.0303  0.1413  0.1599
15142W        W31990  13.696   4.154  14.359  0.0144 -0.1916  0.0792
15143W        W31991  15.494   2.951  14.394  0.1683  0.1792 -0.3973
15144W        W31992   4.874  14.113  15.494  0.0617  0.3452 -0.0572
15145W        W31993  15.336   2.642  12.502  0.1635  0.3845 -0.2070
15146W        W31994   3.552   1.057   2.640 -0.0049 -0.1379  0.0337
15147W        W31995  13.230   7.238  12.595  0.1149  0.0993  0.0266
15148W        W31996   3.475   5.115   2.607  0.0580  0.1815  0.3306
15149W        W31997   1.950   2.186   4.564 -0.2139 -0.0158  0.0114
15150W        W31998  14.153  11.508  11.226  0.2251  0.0886  0.0410
15151W        W31999   6.591  10.665  11.824  0.0248 -0.0787  0.1664
15152W        W32000   3.281   6.684   5.277 -0.0228  0.0249 -0.1748
15153W        W32001   5.292  10.877   3.624  0.2240  0.0505 -0.1229
15154W        W32002   5.475   6.127  12.575 -0.1753 -0.1170  0.1998
15155W        W32003  13.168  13.956   1.869  0.2836 -0.0603 -0.1260
15156W        W32004   2.765  10.034   2.645 -0.1928 -0.1118 -0.3099
15157W        W32005  16.948   6.082  16.408  0.4391  0.0730  0.0341
15158W        W32006   0.026   7.069  11.212  0.1547  0.0310  0.2240
15159W        W32007   3.347   9.023  11.470  0.0476  0.0820 -0.1503
15160W        W32008   8.496   8.672  13.494  0.2126 -0.2342  0.1842
15161W        W32009  17.270  17.008  11.401  0.0710  0.0076 -0.1420
15162W        W32010   7.893  17.476   3.728 -0.2365  0.0447 -0.3257
15163W        W32011   7.030   8.154   2.751 -0.1536 -0.2191 -0.0899
15164W        W32012  15.558   2.626  15.784 -0.0536  0.2679  0.4323
15165W        W32013   7.000  17.485  12.207 -0.1523 -0.1037 -0.1270
15166W        W32014   7.320   6.784  13.005  0.1684 -0.1869  0.2022
15167W        W32015   1.037   7.222   2.668 -0.3509 -0.0148 -0.3401
15168W        W32016   3.629  15.642   3.201 -0.1140 -0.0273 -0.2222
15169W        W32017  11.866   9.305  11.940  0.2589 -0.1084  0.2197
15170W        W32018   4.862  11.125   1.936 -0.0425 -0.1443  0.2917
15171W        W32019  13.856  10.717   2.446 -0.1720  0.0199 -0.3523
15172W        W32020  10.008   7.532   4.309  0.2479 -0.2919 -0.0574
15173W        W32021  12.511   2.604   4.514 -0.0542  0.3258  0.3310
15174W        W32022  10.891  10.250   2.000 -0.1691 -0.0712  0.3414
15175W        W32023   3.609  11.114   3.684  0.0874 -0.2094 -0.1657
15176W        W32024   3.061   0.266  11.751  0.2445  0.1860 -0.0590
15177W        W32025  11.396   4.016   1.591 -0.3767  0.1430 -0.0307
15178W        W32026   0.265   0.225  14.150 -0.0647 -0.1404 -0.0947
15179W        W32027  10.505   2.794   1.723 -0.1610 -0.1126 -0.1155
15180W        W32028  14.411  15.581  16.185  0.0947  0.0830 -0.3360
15181W        W32029   4.979   9.925   3.442  0.1001  0.1616  0.0164
15182W        W32030  16.956   0.315  14.645 -0.1999  0.1862  0.0513
15183W        W32031  10.753   5.416   4.773 -0.0334 -0.2840  0.1448
15184W        W32032   4.100   9.180  14.028 -0.2694 -0.0872  0.2420
15185W        W32033  16.978  11.032   3.211  0.0855  0.1769  0.2121
15186W        W32034   7.086  17.758  14.372 -0.0409  0.2603 -0.0715
15187W        W32035  14.113   4.165  16.149  0.0571  0.3241  0.0526
15188W        W32036  13.902   7.960   1.379  0.2204  0.0169  0.1660
15189W        W32037   5.671   7.330  12.188 -0.1495 -0.1618  0.0742
15190W        W32038  14.084   0.489  14.612  0.0674 -0.1553 -0.0197
15191W        W32039  10.108  13.010  12.602  0.2479 -0.2913  0.1504
15192W        W32040   9.685   2.575   4.477 -0.2545 -0.0801  0.2290
15193W        W32041  12.790  13.525  11.595  0.1978  0.1018 -0.1430
15194W        W32042   5.374   4.745  15.266 -0.1410  0.2827 -0.0666
15195W        W32043   8.223  13.048   0.159 -0.1654 -0.0290 -0.0948
15196W        W32044   8.520   3.866   1.481 -0.0062 -0.1303  0.2437
15197W        W32045   0.244   4.528   4.189 -0.0062 -0.2996  0.1448
15198W        W32046   7.784  16.173   0.119  0.2086 -0.0300 -0.1422
15199W        W32047   6.430  16.058  13.564  0.1030  0.0802  0.1305
15200W        W32048  11.355  13.696   0.218  0.0483  0.0934  0.2508
15201W        W32049  15.694   3.436   1.356  0.0456 -0.0850 -0.0187
15202W        W32050  17.571   7.187  13.675 -0.1766  0.0597  0.1300
15203W        W32051   6.608   7.052  13.705 -0.2014 -0.2248 -0.0663
15204W        W32052   8.802  11.346  14.913 -0.0074  0.0391 -0.0459
15205W        W32053   2.660   3.786  11.723  0.1121  0.0818 -0.0130
15206W        W32054   3.605   5.881   5.153  0.2030 -0.0651  0.1540
15207W        W32055   9.020  10.825  11.669 -0.0608  0.0359  0.3157
15208W        W32056  12.386  12.365   4.180  0.2412  0.1773 -0.3089
15209W        W32057   1.829  13.485   1.756 -0.0987 -0.0905 -0.0739
15210W        W32058   2.683  12.714   3.308 -0.2740  0.2900  0.1609
15211W        W32059   9.109   3.560   2.625  0.3093  0.0369 -0.2806
15212W        W32060  15.811  10.922   0.029  0.3301  0.0557 -0.2493
15213W        W32061   6.322   0.116   0.021 -0.3883 -0.0996  0.1386
15214W        W32062   7.846  11.116   0.149  0.0210  0.1595 -0.2771
15215W        W32063   3.871   4.692  13.229 -0.1927  0.1235 -0.1442
15216W        W32064   4.735   4.166   5.576 -0.0696 -0.0961  0.3865
15217W        W32065   8.321  16.680  16.208  0.0695  0.0425  0.0450
15218W        W32066  15.735  17.231   3.854  0.0083 -0.0117  0.0300
15219W        W32067   0.762  10.876   2.670  0.0215 -0.0916  0.0486
15220W        W32068  12.188   7.292  12.195 -0.2427 -0.1501 -0.0255
15221W        W32069  15.661  14.716   3.879 -0.0987 -0.0818  0.0979
15222W        W32070   9.658   1.004   0.777  0.2700  0.2741  0.0004
15223W        W32071  13.833   1.266  14.067 -0.2708  0.1644  0.2008
15224W        W32072   3.449  15.356  15.786 -0.0048  0.2360  0.0029
15225W        W32073  13.821   8.942   2.460 -0.1221  0.1194 -0.3260
15226W        W32074   4.251  14.132   1.679  0.1607 -0.1134 -0.0321
15227W        W32075  13.332   6.609  16.424  0.4883  0.2034 -0.2900
15228W        W32076   2.337   2.135   2.566  0.2642 -0.2328  0.0822
15229W        W32077   0.604   6.295   5.312  0.0099 -0.1148 -0.2422
15230W        W32078  13.859  17.264  14.432  0.1097 -0.0517 -0.0121
15231W        W32079  10.362   3.002  16.317 -0.3773  0.0244  0.1301
15232W        W32080  12.818   5.993  12.362 -0.3931  0.1416 -0.2734
15233W        W32081  16.495   5.473  14.535 -0.0597 -0.2578  0.0906
15234W        W32082   8.464  10.915   0.755  0.1175 -0.0879 -0.1554
15235W        W32083   2.224   1.523  16.411 -0.0850  0.2057 -0.0363
15236W        W32084  16.084  13.376   1.563 -0.0425 -0.1761 -0.0277
15237W        W32085   0.985   8.256  12.534 -0.2130 -0.1461 -0.0394
15238W        W32086  10.097   6.904  14.385  0.0851 -0.1593 -0.1927
15239W        W32087   8.872  16.127   3.664  0.0777 -0.3864 -0.0250
15240W        W32088  12.403   6.163  15.178 -0.0667 -0.0399  0.3766
15241W        W32089   7.140   9.048  12.049  0.1995 -0.2878  0.3019
15242W        W32090   3.038  12.714  13.644  0.2774  0.1810 -0.5555
15243W        W32091   8.741   0.700  15.466 -0.0362 -0.3238  0.1018
15244W        W32092   0.837   6.840   0.736 -0.2219 -0.1927  0.1829
15245W        W32093  10.745  12.144  12.218  0.1860 -0.1963 -0.3129
15246W        W32094  15.715  12.028  11.980 -0.0281  0.0993 -0.1178
15247W        W32095   7.591   4.516  11.232 -0.0159  0.4114  0.1259
15248W        W32096   1.121   9.475   2.517  0.4115 -0.3247  0.0543
15249W        W32097   6.393   9.195   2.617  0.2637 -0.0646 -0.0659
15250W        W32098   0.955   9.015   1.419 -0.2653 -0.0230  0.1106
15251W        W32099   2.078  10.656  13.611  0.0722 -0.2606 -0.0543
15252W        W32100   3.253  14.305  15.966  0.1551 -0.1160 -0.3521
15253W        W32101   0.129  17.583  14.022 -0.0316  0.1608  0.1482
15254W        W32102   5.372  17.436   2.018  0.0998 -0.0942  0.0481
15255W        W32103   7.143   3.044   0.284 -0.0522 -0.2805  0.0030
15256W        W32104  10.832   2.523  11.888  0.1134 -0.1456 -0.1813
15257W        W32105   9.804   1.847  14.393  0.0414  0.1080  0.1335
15258W        W32106  10.052   5.373   1.698 -0.0541  0.0481  0.1890
15259W        W32107   6.640   5.779  14.379 -0.0008 -0.1291  0.0255
15260W        W32108   7.366  14.862  14.409  0.0878  0.3545 -0.2937
15261W        W32109  11.831   8.265  14.414 -0.0571 -0.0448 -0.1754
15262W        W32110   5.408   2.108  12.945 -0.1978 -0.1206 -0.0970
15263W        W32111   9.886  14.752   0.079 -0.5675 -0.0453 -0.2016
15264W        W32112   6.949  15.373  14.188  0.2815  0.1941 -0.0561
15265W        W32113   8.850  14.815   0.233 -0.3805 -0.1215 -0.0278
15266W        W32114  16.133   0.163  11.563 -0.0784 -0.0924  0.4421
15267W        W32115  11.747  15.526  15.238 -0.0633 -0.1621 -0.1788
15268W        W32116   8.750  10.883   1.494  0.0863  0.1017 -0.3689
15269W        W32117  15.096   2.475   0.549  0.1871 -0.1768 -0.0961
15270W        W32118   1.490   8.856  12.921  0.0933 -0.0034 -0.0246
15271W        W32119   9.859   7.150  12.714  0.1111  0.2650 -0.1162
15272W        W32120   1.097  13.516   1.901  0.0714  0.0042  0.0921
15273W        W32121   8.632  15.385  15.785 -0.0717 -0.2923 -0.1358
15274W        W32122   7.260   3.649  13.347 -0.4668  0.0802  0.1435
15275W        W32123  16.335   8.760   4.494  0.0519 -0.1193  0.2209
15276W        W32124  16.871  11.945   3.492 -0.3912  0.0589 -0.3663
15277W        W32125  15.707   1.738  13.479  0.2406 -0.0193  0.0425
15278W        W32126   3.102   7.662  11.706 -0.1535  0.0871 -0.1342
15279W        W32127  12.442  17.006  11.780  0.2311  0.1492 -0.0310
15280W        W32128   2.135  13.467  12.713  0.1621 -0.0748 -0.2977
15281W        W32129  11.505   2.091  11.680  0.0529  0.1313 -0.2927
15282W        W32130  11.732   8.490   2.193  0.0019  0.0865 -0.0616
15283W        W32131   0.695  11.929   4.025 -0.3922  0.1097 -0.0260
15284W        W32132   2.996   4.938   5.978  0.1230  0.0684 -0.2172
15285W        W32133   0.097   4.454   2.075  0.0414 -0.1560  0.1058
15286W        W32134  14.534  15.605   2.890  0.1069  0.2035 -0.0383
15287W        W32135   4.863  10.865   4.908  0.0882 -0.0287  0.1860
15288W        W32136   6.372  12.143  14.864  0.1430  0.5228  0.1404
15289W        W32137   5.710   4.632   4.156 -0.1951 -0.1707  0.1094
15290W        W32138  16.625  11.047   4.181 -0.1957 -0.0769 -0.0998
15291W        W32139   9.163  11.545   3.001 -0.1316 -0.2883  0.1035
15292W        W32140   6.372  14.383   0.562 -0.1224 -0.0359 -0.3853
15293W        W32141  15.100   4.029  15.701  0.1425 -0.1775 -0.2766
15294W        W32142   0.549  11.675  13.062  0.0265  0.1027 -0.2466
15295W        W32143  17.643   2.448  12.514 -0.3152  0.1286  0.2170
15296W        W32144  17.322   3.999  14.615 -0.0782 -0.1304 -0.1683
15297W        W32145   1.575   7.345   0.097  0.2716 -0.0460 -0.1120
15298W        W32146  13.449   0.573   4.221 -0.2514  0.1067 -0.3362
15299W        W32147  10.359  15.957  13.182  0.1886  0.2244 -0.0577
15300W        W32148  13.472   8.489  10.790 -0.0508 -0.0898 -0.2066
15301W        W32149   4.958   4.832   3.502  0.0623 -0.0255  0.2544
15302W        W32150  12.213  17.189  11.170 -0.0314 -0.1004  0.3616
15303W        W32151  15.209   5.703  16.340  0.0058 -0.1527  0.3193
15304W        W32152  14.357  12.424   0.681 -0.1066  0.0990  0.0099
15305W        W32153   3.100   2.500  14.278 -0.1967  0.0519 -0.1449
15306W        W32154   9.716   2.715  14.916 -0.0892  0.0749 -0.1158
15307W        W32155   8.062   8.426   5.258 -0.1372  0.1787 -0.1402
15308W        W32156   3.429   0.118  11.537  0.0788 -0.0101  0.0471
15309W        W32157   4.870   7.685   3.941  0.0761  0.0024 -0.2845
15310W        W32158  14.615   9.294  14.373  0.0883  0.2274  0.1229
15311W        W32159  15.569  10.982  14.038  0.1683  0.1643  0.0053
15312W        W32160   7.352  10.767  14.033 -0.1837 -0.0408 -0.0624
15313W        W32161  10.254   5.422  12.529 -0.1522 -0.0067  0.0368
15314W        W32162  15.130  13.850  11.653  0.1686  0.1315  0.1402
15315W        W32163   0.299  15.857   3.360 -0.3601  0.1569 -0.1199
15316W        W32164   1.384   9.788   1.525  0.1856 -0.0104 -0.1245
15317W        W32165   2.949  10.669   0.727 -0.0026 -0.0156 -0.0713
15318W        W32166  10.228   5.980  16.305  0.0231 -0.0849 -0.1175
15319W        W32167  10.130  14.563   6.272 -0.0284  0.0215 -0.1583
15320W        W32168  14.381   1.666   0.550 -0.1528 -0.2209  0.3663
15321W        W32169  13.649  12.355   0.416 -0.0088 -0.0725  0.0885
15322W        W32170   2.692  13.331   4.692 -0.1041 -0.0882  0.0162
15323W        W32171   0.710   2.594   5.414 -0.1096 -0.1895 -0.0225
15324W        W32172   0.729   1.016  12.611  0.2079  0.2851 -0.1067
15325W        W32173  16.008  17.860   2.113 -0.1268  0.0078  0.1466
15326W        W32174  14.471   4.035   1.798  0.0161  0.3387  0.1576
15327W        W32175  13.080  16.561   5.280  0.1096  0.2230 -0.0883
15328W        W32176  15.974  10.811  12.005  0.0634 -0.1050 -0.0027
15329W        W32177  10.939  11.169  15.368  0.1907 -0.3426  0.2637
15330W        W32178   7.935  13.524   1.566 -0.0097  0.3474  0.1689
15331W        W32179   6.319  14.357  13.841 -0.1185  0.0608 -0.1405
15332W        W32180   3.510   1.952  10.445 -0.1355 -0.0487 -0.2832
15333W        W32181  16.037  12.694  11.092  0.1218  0.3853  0.0251
15334W        W32182  14.752   0.081  14.941  0.3834  0.3017  0.1290
15335W        W32183  13.072  11.174   2.089 -0.1931 -0.2540  0.0546
15336W        W32184  14.459  13.329  15.080  0.3739 -0.3343  0.0950
15337W        W32185   4.372  15.332   2.096 -0.3178  0.0570 -0.1687
15338W        W32186   2.800   1.365   2.061 -0.2521 -0.0118  0.0842
15339W        W32187   5.411  16.485   2.289  0.2767 -0.2260  0.0486
15340W        W32188  12.983   4.173  16.210 -0.2055  0.1978  0.2234
15341W        W32189  14.551   7.057  11.899  0.3617  0.3980 -0.1174
15342W        W32190   7.541   9.554   3.215 -0.3048 -0.0214 -0.0898
15343W        W32191  16.745   5.349  14.921 -0.2394 -0.2394 -0.1148
15344W        W32192   3.251   9.824  11.362  0.1036  0.1696 -0.1139
15345W        W32193  14.729  16.331   4.222 -0.0534 -0.1635  0.2722
15346W        W32194  16.223   5.229  11.710 -0.2012  0.1272  0.0611
15347W        W32195   4.095   6.059  12.982 -0.1547 -0.1781 -0.2284
15348W        W32196   1.674  14.541   4.896  0.1216 -0.2043  0.2776
15349W        W32197   3.459  17.123   4.253 -0.5740  0.3211  0.0493
15350W        W32198  11.106  12.083   2.157 -0.2217 -0.2560  0.1281
15351W        W32199  12.873   6.282  13.530 -0.1599  0.1187 -0.0614
15352W        W32200   7.473   7.500   2.744 -0.0435 -0.0305  0.2973
15353W        W32201  12.366   1.454  13.817 -0.1774  0.0583  0.1935
15354W        W32202  15.265  11.651   3.462  0.0661  0.2020 -0.2167
15355W        W32203   0.922   4.024   6.506  0.0249  0.1759  0.3428
15356W        W32204   5.785  11.939   5.152  0.1355 -0.2195  0.3153
15357W        W32205  16.693   8.118   1.816  0.2182  0.0679 -0.2787
15358W        W32206  13.104   5.588   0.132  0.0720 -0.0524 -0.2133
15359W        W32207   4.487  15.594  13.631  0.1871  0.1901 -0.1413
15360W        W32208   7.026  12.589  13.850 -0.2083 -0.0763  0.0033
15361W        W32209   1.914   5.969  13.287  0.0149  0.0529  0.2540
15362W        W32210   0.888   8.051  16.314  0.0706 -0.3045  0.2570
15363W        W32211   2.941   0.345   4.531 -0.0277 -0.1668  0.1656
15364W        W32212   4.647   9.489   0.296  0.1240  0.0316  0.1581
15365W        W32213   2.921  14.464  15.621 -0.1628  0.3129 -0.1018
15366W        W32214   0.383   8.030  12.762 -0.1602  0.0579 -0.0055
15367W        W32215  14.340   6.951   4.140 -0.0906 -0.0829  0.2411
15368W        W32216  14.671   2.042  14.171 -0.1016 -0.2325 -0.0961
15369W        W32217  14.703   7.764   0.737  0.1787  0.2044  0.1488
15370W        W32218  12.987  16.621  11.179  0.0724 -0.1720  0.0099
15371W        W32219  13.230   8.472  14.189  0.0435  0.0705 -0.2264
15372W        W32220   9.761   4.227  11.870  0.3863  0.1618 -0.0070
15373W        W32221  17.725  15.467  15.209 -0.0537  0.0890  0.0931
15374W        W32222  15.041  12.559  15.071 -0.1854 -0.1871 -0.1166
15375W        W32223  11.832   3.963   5.404  0.1696  0.3921  0.4091
15376W        W32224   1.889  12.778   0.208 -0.3242 -0.0615 -0.0143
15377W        W32225   1.504  13.071   4.046 -0.0305 -0.1579 -0.2350
15378W        W32226   7.679   7.103  12.832 -0.1179 -0.0381  0.1807
15379W        W32227  17.440  17.014  15.815  0.2808 -0.0157 -0.3490
15380W        W32228   2.708  17.839   2.688  0.2289 -0.5653  0.4761
15381W        W32229   0.722   8.519  16.132 -0.0109 -0.3174 -0.1732
15382W        W32230   5.352  15.912  14.022  0.3007 -0.1491 -0.2241
15383W        W32231   7.110   0.397  10.727 -0.3685 -0.4985  0.1984
15384W        W32232  10.208   8.713  16.419  0.0428  0.2687 -0.0230
15385W        W32233   7.604  13.327   1.284  0.2697 -0.0253 -0.3402
15386W        W32234  15.137   3.686   1.377 -0.1113 -0.0016  0.0832
15387W        W32235   9.753   9.304   5.375 -0.0329 -0.0317  0.0654
15388W        W32236  10.436   8.611   1.100 -0.0420 -0.0876 -0.0664
15389W        W32237   8.722  14.335  14.102 -0.0250 -0.0177  0.0328
15390W        W32238  16.316  14.094   1.198 -0.0440 -0.0307 -0.1856
15391W        W32239   6.722  10.571  16.398  0.0366 -0.0945 -0.1422
15392W        W32240   9.494  10.260   1.276 -0.0527 -0.0890 -0.1439
15393W        W32241   5.846  10.227   4.235  0.0139  0.3195 -0.1082
15394W        W32242   8.928   9.771   4.094  0.0349 -0.1603 -0.3146
15395W        W32243   7.569  16.943   5.146 -0.2439 -0.0462  0.3855
15396W        W32244  15.394   8.072   4.514  0.3203  0.2250 -0.3866
15397W        W32245   8.381   8.319  15.010  0.1828  0.0641  0.0836
15398W        W32246  16.463  15.783   5.252 -0.0177 -0.2966 -0.1052
15399W        W32247   2.163  17.400   3.682  0.0213 -0.0720 -0.2980
15400W        W32248  17.110   0.662   2.643  0.0538  0.1692 -0.1993
15401W        W32249  10.613   2.620   0.215 -0.1386  0.2856  0.0718
15402W        W32250   8.766  11.869   6.048  0.0723  0.1828 -0.2112
15403W        W32251  10.297  12.219  13.390  0.0823  0.2549  0.1395
15404W        W32252   7.492   6.785  15.300 -0.0324  0.2607  0.0494
15405W        W32253  15.573  11.991   3.765 -0.4071  0.1454  0.0467
15406W        W32254  11.318  15.980   1.439  0.1341  0.0994  0.2341
15407W        W32255   8.123   0.692  14.848 -0.2820  0.1608  0.1975
15408W        W32256  12.831  14.533   0.503  0.2132  0.0458 -0.0500
15409W        W32257   8.550  17.542   2.173  0.2362 -0.1723  0.1293
15410W        W32258   6.705  10.172   0.324  0.4906 -0.2658 -0.0134
15411W        W32259  10.820   1.876   4.679 -0.3244 -0.1210  0.1098
15412W        W32260   6.054   7.463   1.277  0.0641  0.0177 -0.0519
15413W        W32261  15.574  12.059  13.942  0.0783 -0.1680 -0.0275
15414W        W32262   9.039  14.145  15.106 -0.2107  0.0994 -0.1688
15415W        W32263   8.007   4.665  13.059 -0.0523 -0.2223 -0.1644
15416W        W32264   8.309   0.302   2.487 -0.0227 -0.2200  0.0670
15417W        W32265   2.496   0.264   5.350  0.3057 -0.3386  0.1373
15418W        W32266   3.162   9.103   3.358  0.1345 -0.0711  0.1648
15419W        W32267  16.001   0.837  13.893  0.0718 -0.0938  0.0925
15420W        W32268   7.362   0.462  13.710  0.0005  0.3168 -0.0288
15421W        W32269  11.228   1.554  14.797 -0.1514  0.0749 -0.5143
15422W        W32270  10.826  10.115  14.363  0.2318  0.1000  0.0595
15423W        W32271  13.803   7.213  16.417 -0.0081 -0.2639  0.0210
15424W        W32272  15.682   4.754  15.756  0.0513  0.1980 -0.0134
15425W        W32273   7.087   9.908  13.861 -0.3446 -0.0672 -0.0238
15426W        W32274  13.915  13.860   2.798  0.1149  0.0254 -0.2124
15427W        W32275   1.532   9.511   3.469 -0.2144  0.2400  0.1005
15428W        W32276  11.174  10.759   5.100  0.0286 -0.0012  0.1920
15429W        W32277   7.865   5.165  13.031  0.2060  0.4101  0.0302
15430W        W32278  13.336   0.627   4.739 -0.3067 -0.1951 -0.1094
15431W        W32279   6.870   6.686   0.314 -0.0757 -0.1526 -0.0974
15432W        W32280   3.994   0.022   2.233  0.0883 -0.0871  0.0811
15433W        W32281   9.767   7.071   4.479  0.2879 -0.0398 -0.0569
15434W        W32282   7.544  17.290  16.460  0.0242  0.2277  0.2504
15435W        W32283  14.867  11.645  16.098  0.0445  0.1438 -0.2736
15436W        W32284  14.433   5.146  14.716  0.1610  0.0809 -0.1494
15437W        W32285   9.400   6.840  15.246 -0.3665  0.0243 -0.0855
15438W        W32286  12.035   3.703   0.736  0.1630  0.1601  0.0422
15439W        W32287   7.441   3.915   3.480  0.0862 -0.3096 -0.0369
15440W        W32288   6.150   1.992   5.951  0.1512 -0.4109  0.0971
15441W        W32289  16.552  17.202  11.972 -0.1175  0.1628  0.0648
15442W        W32290   2.660  16.208  15.026 -0.0362 -0.1061  0.0389
15443W        W32291   0.715  13.067   3.594 -0.0707 -0.2507  0.1450
15444W        W32292  12.269  10.119  15.871  0.1807  0.2002  0.2400
15445W        W32293  17.709   5.108  16.458  0.0838 -0.3263  0.2260
15446W        W32294  16.470  15.555  11.174  0.1032  0.0673  0.0968
15447W        W32295  12.460   6.433  15.890  0.1305  0.5833  0.3880
15448W        W32296  17.251   6.601   4.942  0.4704 -0.1808 -0.0999
15449W        W32297  12.727  11.328   2.551  0.2372  0.1844  0.1618
15450W        W32298  11.934  13.020  12.124 -0.3219 -0.0418 -0.0084
15451W        W32299  16.868   8.083  15.927  0.0539 -0.1127  0.1744
15452W        W32300  15.841   0.192  13.053  0.0502  0.2384  0.0468
15453W        W32301   8.112  15.548   1.394  0.1794 -0.1722 -0.0694
15454W        W32302   0.978   5.257   1.750 -0.5065 -0.0011  0.1758
15455W        W32303   5.065  11.458  11.778  0.1816  0.3827 -0.1930
15456W        W32304   5.796  16.860  12.729  0.1206 -0.0755 -0.1310
15457W        W32305  13.803   4.572   5.164 -0.2114  0.0497  0.1500
15458W        W32306   2.077  15.312   1.564  0.1305  0.0894 -0.2957
15459W        W32307  17.662   5.794  14.786  0.3489 -0.3858  0.0395
15460W        W32308  13.899   3.418  12.888  0.0008  0.1057 -0.1334
15461W        W32309   9.672  10.004  16.410 -0.0570 -0.1612 -0.0862
15462W        W32310   0.586   6.975   2.009  0.0033 -0.2132  0.4075
15463W        W32311   0.757  10.767   4.113  0.2202 -0.0999  0.1468
15464W        W32312  17.076   4.568   1.345  0.1184  0.2831 -0.2693
15465W        W32313   2.185   7.293  13.130 -0.3669  0.1007 -0.2055
15466W        W32314   3.193   5.830  14.992  0.0130  0.1066  0.1318
15467W        W32315  12.687   2.755  13.730  0.1037  0.1422 -0.1993
15468W        W32316   0.897   0.573   0.741 -0.2191 -0.1487  0.1440
15469W        W32317  11.682  11.502   0.022  0.1793 -0.2980 -0.2221
15470W        W32318   1.314   5.225  15.861 -0.0784  0.0270 -0.0568
15471W        W32319   4.111  13.294  16.463 -0.1423 -0.1111  0.0926
15472W        W32320   7.143   9.167  16.411  0.0220  0.2650  0.0520
15473W        W32321   6.858   4.154  14.296 -0.1479 -0.1648 -0.2880
15474W        W32322  15.958  17.318   0.215  0.0095 -0.0372  0.2140
15475W        W32323  16.025   5.456  13.153  0.0836  0.0815 -0.3160
15476W        W32324   6.806  12.667   4.926 -0.2925  0.1937 -0.2339
15477W        W32325   9.130   3.916  11.459  0.2238  0.1054  0.2907
15478W        W32326   6.303  15.802   2.224  0.2138  0.0389 -0.2418
15479W        W32327   3.385  15.973   5.425  0.3138  0.1846 -0.2462
15480W        W32328  15.958   2.152   0.568 -0.1539  0.1456  0.2393
15481W        W32329   9.499  15.631  14.457  0.1915 -0.1074  0.2588
15482W        W32330   3.624   5.120  16.106 -0.0345  0.1423  0.0391
15483W        W32331  11.793  15.879   4.352  0.0443 -0.1805 -0.1409
15484W        W32332   1.881   7.270   0.590  0.0897  0.1339 -0.0334
15485W        W32333   2.137   6.165  12.131 -0.0539 -0.1087  0.2376
15486W        W32334  15.064  17.173   4.660 -0.1293 -0.0352 -0.0484
15487W        W32335  13.403  12.505   3.191 -0.0952 -0.0701  0.1789
15488W        W32336  10.060   1.002   1.862 -0.0362 -0.3154  0.1692
15489W        W32337   2.005   4.026   5.336  0.0539  0.0386 -0.2300
15490W        W32338   0.124  11.298  13.960  0.1561  0.0135 -0.1866
15491W        W32339  13.160   4.886   2.543  0.1912 -0.0030 -0.1268
15492W        W32340   5.419   1.727  15.956 -0.0364  0.1173  0.1013
15493W        W32341   8.829   0.556  15.986  0.0687 -0.2665  0.0095
15494W        W32342   7.019  12.509   3.508 -0.1576  0.2072 -0.0988
15495W        W32343  16.684   6.238  15.905 -0.2222 -0.0210 -0.0900
15496W        W32344  11.813  13.128  12.561 -0.0661 -0.1075  0.0778
15497W        W32345  13.658  12.350   3.585 -0.0552  0.0353 -0.0126
15498W        W32346   7.208   2.593  12.990 -0.0658 -0.0935 -0.1535
15499W        W32347  14.507   0.888   0.404 -0.2260 -0.2534  0.0181
15500W        W32348  16.605   7.697   1.475 -0.2110  0.2408  0.2146
15501W        W32349  13.602  11.441   5.544 -0.1041  0.1918 -0.0933
15502W        W32350   7.599   8.541   4.920 -0.1906  0.1967 -0.2385
15503W        W32351  12.001  12.409   1.901  0.1106 -0.3307 -0.2128
15504W        W32352  14.952  10.499   0.149  0.0140 -0.0169 -0.1026
15505W        W32353   8.934  11.983   0.108  0.1707 -0.0381  0.0344
15506W        W32354   8.882   9.576  13.604  0.2709  0.2700 -0.1906
15507W        W32355   9.639   5.811   4.958 -0.1402  0.1935  0.1235
15508W        W32356   7.792   6.675  13.083 -0.1712 -0.1565 -0.0610
15509W        W32357  16.004   5.495  14.362 -0.0507  0.0275  0.0962
15510W        W32358  16.356   1.841   2.662 -0.1231 -0.4485  0.0937
15511W        W32359   6.599   9.735  13.044 -0.0834  0.1763  0.0988
15512W        W32360   2.107   1.836  15.307 -0.2771  0.0873 -0.0763
15513W        W32361  11.141  13.415   2.800  0.2734 -0.1458  0.0996
15514W        W32362   3.569  10.069  16.326 -0.0328  0.0291  0.4691
15515W        W32363  12.905  11.289   4.786  0.0778 -0.0298  0.1641
15516W        W32364  10.341  12.573  12.251  0.0336  0.2170  0.0310
15517W        W32365   4.522  17.819  15.199  0.2755 -0.1686  0.1879
15518W        W32366  16.534   2.486   3.814 -0.0962  0.1815  0.2257
15519W        W32367  15.846   9.379  12.128 -0.0136  0.0479 -0.1466
15520W        W32368   0.832   7.724  14.731  0.1587  0.0544 -0.4071
15521W        W32369  17.685  16.788   1.716 -0.0772  0.1948  0.1430
15522W        W32370   4.038   0.580   0.754  0.1876  0.0433  0.1408
15523W        W32371  15.853  16.255   2.848  0.0362  0.0829  0.1966
15524W        W32372  10.381   9.470   3.922  0.0568 -0.2019  0.1825
15525W        W32373  16.032   9.631  11.606 -0.1448 -0.1524 -0.0868
15526W        W32374   6.614  14.399   3.684  0.0828 -0.0702  0.1133
15527W        W32375  11.107   7.332   0.256 -0.0335  0.0475  0.0005
15528W        W32376  15.485   3.803   3.144 -0.1407 -0.0191 -0.0361
15529W        W32377   5.226  13.052   0.866  0.0763  0.0456  0.1674
15530W        W32378  16.747   3.791   3.136  0.0522  0.2572  0.1440
15531W        W32379   4.670  17.491   2.641  0.1188 -0.3138 -0.1395
15532W        W32380  14.571   9.901   4.318 -0.2761 -0.1769  0.1000
15533W        W32381  17.534  13.460  13.135 -0.0182  0.0459 -0.2169
15534W        W32382  12.437   4.450   3.271 -0.0290 -0.2219  0.1448
15535W        W32383   4.397  10.813   5.195 -0.0111 -0.1192 -0.0478
15536W        W32384  16.278  17.056  14.115 -0.0431 -0.0580 -0.0032
15537W        W32385  13.760   6.014  11.883 -0.0082 -0.1257  0.0627
15538W        W32386   3.990  12.606   4.940 -0.3198  0.0106  0.0440
15539W        W32387   2.333  14.246   1.375  0.0574 -0.0213  0.2836
15540W        W32388   1.682   0.130  11.885 -0.0788  0.1621  0.2859
15541W        W32389  15.166  13.483   3.814 -0.0479 -0.4023 -0.2418
15542W        W32390  11.015   6.081   3.519 -0.1989 -0.1606 -0.0607
15543W        W32391  16.429   2.722  15.150 -0.2012  0.1902 -0.0056
15544W        W32392   9.118   2.068   5.058 -0.1960  0.1110  0.1898
15545W        W32393   6.426   0.581  13.079 -0.0997  0.1722 -0.1392
15546W        W32394  17.198  13.637   0.102  0.2431 -0.3351  0.2216
15547W        W32395  17.704   0.590  12.613 -0.1633 -0.0402  0.2941
15548W        W32396   9.855   7.384  13.656  0.0978  0.0583  0.2324
15549W        W32397  13.206   5.995  11.386  0.0470 -0.0833 -0.0364
15550W        W32398   2.875  16.313   3.582 -0.1581  0.2138  0.0004
15551W        W32399   1.307  10.031   1.119  0.0170 -0.3736 -0.1263
15552W        W32400   0.946   7.825  13.409  0.2965  0.3152  0.4409
15553W        W32401  12.644   7.238   1.473  0.1697  0.0479 -0.2735
15554W        W32402  15.535   4.046  12.481  0.0673 -0.1073  0.2798
15555W        W32403   6.369  10.038   4.165 -0.2316 -0.2078 -0.2275
15556W        W32404   8.023   6.662  14.189 -0.1746 -0.0852  0.3660
15557W        W32405  17.560   6.387  13.169  0.1956 -0.0036 -0.1408
15558W        W32406   4.931  15.792   0.789  0.1083  0.0096  0.2339
15559W        W32407  14.564  16.936  11.190  0.5439  0.1202  0.1219
15560W        W32408   5.541  13.841   2.615  0.0889 -0.1728 -0.1277
15561W        W32409  16.078   3.920  15.954 -0.2102  0.0690 -0.1183
15562W        W32410   0.717   9.425   1.574  0.4241 -0.1182 -0.4994
15563W        W32411   7.605   2.282   2.255 -0.2468  0.1263 -0.3938
15564W        W32412   7.482   9.466  13.122 -0.1109 -0.0430  0.2507
15565W        W32413   3.003   5.759   4.129 -0.0129 -0.0576  0.0354
15566W        W32414  13.057   7.387  14.256 -0.0301 -0.1802  0.0210
15567W        W32415  15.329   7.246   4.643  0.0427  0.2084 -0.2859
15568W        W32416  15.514   2.495  14.199 -0.2231 -0.2846  0.2208
15569W        W32417   0.841  16.769   4.801  0.3345  0.2332  0.1561
15570W        W32418  14.957  15.094   4.544 -0.0724  0.2902 -0.0042
15571W        W32419  13.012   8.086   3.924 -0.0512 -0.3208  0.1109
15572W        W32420   9.148   3.124  15.927 -0.1627 -0.0249 -0.1655
15573W        W32421  16.522   4.856   2.294  0.1789  0.0723 -0.2517
15574W        W32422  14.652   9.427   4.176 -0.0062  0.0298 -0.1662
15575W        W32423   2.603  17.797  11.865  0.3464 -0.1968  0.2138
15576W        W32424  12.537  13.638   2.538  0.1632  0.0113 -0.1428
15577W        W32425  13.789  16.426  15.686 -0.2890 -0.0259 -0.0180
15578W        W32426   7.354  12.682   3.140 -0.1431 -0.0817 -0.0418
15579W        W32427   6.412   1.586  14.681 -0.1900  0.1708  0.0437
15580W        W32428  12.027  11.842  12.963 -0.2069 -0.5473 -0.1818
15581W        W32429  14.043   5.480  13.445  0.2415  0.1671  0.2738
15582W        W32430  14.258  13.163  14.543 -0.0897  0.0050  0.0698
15583W        W32431   5.794   1.259  15.278 -0.0022  0.0468  0.2094
15584W        W32432   3.542   4.079   1.545 -0.1858  0.0237 -0.2132
15585W        W32433   3.013  13.010   0.094 -0.0549  0.0535  0.0767
15586W        W32434   2.542   9.103  15.727 -0.1410 -0.2901  0.3016
15587W        W32435   9.409  16.364  12.491 -0.0657 -0.0503  0.0024
15588W        W32436   6.517   9.076   0.989 -0.0685 -0.0311  0.0896
15589W        W32437   3.322   0.982  13.489 -0.0947  0.2282 -0.0793
15590W        W32438  17.558  10.560   0.744  0.0927  0.0377 -0.2594
15591W        W32439  13.527   0.338   1.391 -0.1500  0.1185 -0.1177
15592W        W32440  16.642   1.905   4.008  0.3402  0.0639 -0.2833
15593W        W32441   9.750  16.769   1.388  0.0016 -0.1256 -0.2349
15594W        W32442  17.797   3.698   2.866  0.0795  0.1675  0.0138
15595W        W32443  14.880   4.567  13.161 -0.2424 -0.3575 -0.3122
15596W        W32444   3.145   2.157  15.205 -0.1997  0.0561 -0.1885
15597W        W32445  13.930   7.206  15.867  0.2850 -0.2359  0.0421
15598W        W32446   8.998   7.528  13.869 -0.0536  0.1040 -0.2961
15599W        W32447  14.610  10.106  16.404  0.0332 -0.0284  0.0041
15600W        W32448   9.575  17.636  11.107  0.0502  0.0244 -0.2890
15601W        W32449   4.149  10.650  12.544 -0.1292 -0.0886 -0.3287
15602W        W32450   3.295   2.617   4.073 -0.1015 -0.1842  0.0675
15603W        W32451  17.747   8.669  12.526 -0.3128  0.1154  0.1088
15604W        W32452  16.037  12.183  13.836 -0.0077  0.2132 -0.1026
15605W        W32453  16.149   4.201  15.023  0.0168  0.2964 -0.1867
15606W        W32454   7.947   2.639  14.697  0.0802  0.0255 -0.0610
15607W        W32455  14.276   1.401   1.167 -0.2331 -0.3851  0.1350
15608W        W32456  13.279   6.086   3.730  0.2011  0.2184 -0.1391
15609W        W32457  15.701  15.574  12.465 -0.2141 -0.0482  0.0810
15610W        W32458   7.789  11.737  12.947  0.0408 -0.0822  0.0140
15611W        W32459   5.621   1.132   3.487  0.0279  0.1606 -0.0644
15612W        W32460  10.275   7.744   1.001 -0.2034 -0.0934  0.0657
15613W        W32461   7.610  13.767  10.635 -0.1158  0.1604 -0.0555
15614W        W32462   3.380   5.651   1.809 -0.1670  0.0127  0.2697
15615W        W32463   1.065   7.310   0.994 -0.1178  0.0081  0.2887
15616W        W32464  14.222   9.581  16.425  0.2146  0.0757  0.1323
15617W        W32465   5.564   3.682  14.215  0.1460  0.2983 -0.0109
15618W        W32466   2.990  11.879   1.547  0.0295 -0.5331 -0.0090
15619W        W32467   4.522  16.514   0.746  0.2057 -0.1472 -0.2880
15620W        W32468  17.176   6.305   3.079  0.0425 -0.2888  0.3783
15621W        W32469   2.494  11.296   4.847 -0.2518 -0.0714  0.1061
15622W        W32470   8.716   3.284   4.556  0.0037 -0.0681  0.1305
15623W        W32471  17.080  11.397   2.835  0.2961  0.4170 -0.2362
15624W        W32472   2.489  10.747   4.049  0.3033 -0.1043  0.3715
15625W        W32473  11.823   3.118   4.294 -0.0753  0.0551  0.0758
15626W        W32474  13.622   0.996   4.529  0.0987 -0.0415  0.0772
15627W        W32475   5.267  12.671  14.119 -0.0358 -0.0200  0.1906
15628W        W32476   8.202  11.291   0.444  0.3548  0.1241  0.1433
15629W        W32477   9.423   7.672   0.541 -0.1459  0.1812  0.0182
15630W        W32478   5.539  10.283  14.507  0.0064 -0.2106  0.1378
15631W        W32479   2.926   3.950  12.496  0.1001  0.0116  0.2633
15632W        W32480   0.340  13.560   1.585 -0.1869 -0.0345  0.2518
15633W        W32481   2.676  14.882  11.699  0.3036  0.1029  0.0946
15634W        W32482   1.818  14.176   1.464  0.2164 -0.1180  0.4225
15635W        W32483   9.298   5.154  16.473  0.0373  0.1119 -0.0372
15636W        W32484  17.698  15.424  14.692  0.1758  0.0795  0.0030
15637W        W32485   3.051  10.236  16.451  0.1807  0.1354  0.1137
15638W        W32486  16.614   4.657   3.603  0.1989 -0.1244 -0.2005
15639W        W32487  12.147  10.305  15.000  0.0316  0.0852  0.1204
15640W        W32488  17.718   2.567   4.755 -0.1310 -0.0806 -0.2141
15641W        W32489   2.455   7.597  16.183  0.1845  0.3341 -0.4551
15642W        W32490   0.735   3.700  16.337 -0.0521  0.0853  0.1453
15643W        W32491  10.960   9.670  12.133 -0.0747  0.1509 -0.1175
15644W        W32492   7.421   8.155  15.228 -0.2196 -0.3883  0.2629
15645W        W32493   7.826  16.231  11.922 -0.0772 -0.0350 -0.1638
15646W        W32494   6.364   7.213   4.384  0.2414  0.1913 -0.0660
15647W        W32495  14.030   9.811   0.399 -0.1030  0.1127 -0.1206
15648W        W32496  15.858   9.634   0.120  0.0129  0.0013  0.0641
15649W        W32497   8.148  10.401   5.002  0.2264  0.1021 -0.2475
15650W        W32498   1.431  13.302   0.883  0.3643 -0.1600  0.2512
15651W        W32499   4.702   1.884   4.707 -0.1095  0.2270  0.1947
15652W        W32500   6.375   5.486   1.998 -0.1065 -0.0636 -0.0258
15653W        W32501   6.953   3.353  14.807  0.2391 -0.1376  0.2162
15654W        W32502   5.314   0.699  13.479  0.0989  0.4016 -0.1408
15655W        W32503   9.067   6.416   4.290 -0.1107  0.0132 -0.0548
15656W        W32504  13.558  12.230  16.128 -0.0199  0.1669 -0.0517
15657W        W32505   7.360   7.658  12.528  0.3071  0.1568 -0.1405
15658W        W32506  15.567   3.143   4.152  0.1162 -0.1972 -0.0604
15659W        W32507  16.408   4.467  15.309 -0.0614  0.0472  0.3132
15660W        W32508   0.363  11.144   4.065 -0.1078  0.0112  0.2803
15661W        W32509  15.028  14.116   0.404  0.1872  0.0484  0.0664
15662W        W32510  17.781   0.703  14.262  0.1342  0.3223 -0.0317
15663W        W32511   7.904   5.241   5.568  0.4040 -0.0661 -0.3777
15664W        W32512   2.269   1.371  15.263 -0.0652  0.0256  0.0529
15665W        W32513  17.150  12.243  11.323  0.2618  0.1572  0.0484
15666W        W32514  17.383   7.966   0.281 -0.0175  0.2956 -0.0439
15667W        W32515   8.142   9.427   0.940 -0.2822  0.2794  0.0061
15668W        W32516  16.800   5.618   1.878 -0.1210  0.3332 -0.0947
15669W        W32517   4.504   0.321  13.209 -0.2654  0.0439 -0.1071
15670W        W32518  13.652  14.886   0.078 -0.2111  0.3125 -0.2676
15671W        W32519  16.048   5.965   2.386  0.1453  0.3814 -0.1364
15672W        W32520   4.013   4.644   3.124 -0.1308  0.0760  0.0951
15673W        W32521   8.420  17.442   3.643 -0.0459 -0.1456  0.1155
15674W        W32522   3.067   7.553   2.988  0.3948 -0.0600 -0.2641
15675W        W32523   8.496  11.927   3.048 -0.1231 -0.1613  0.0616
15676W        W32524  13.172   9.084  15.351 -0.0762  0.1418  0.1361
15677W        W32525   9.492  14.803   2.868  0.1396 -0.2208 -0.0690
15678W        W32526   0.515   6.801   5.068  0.0185  0.3400 -0.0135
15679W        W32527   4.390   1.791  13.575  0.0829 -0.0090  0.0087
15680W        W32528   6.445  16.324   3.202  0.3493  0.1709  0.2391
15681W        W32529  13.295   2.496   4.920  0.1870  0.1211 -0.0608
15682W        W32530  10.893  12.669  12.221  0.3321 -0.1980 -0.0008
15683W        W32531   8.778  17.396   4.503  0.1745 -0.2468  0.2257
15684W        W32532   6.990  15.521   6.255  0.0462 -0.0745  0.3010
15685W        W32533   1.345  12.910  15.634  0.0727 -0.0881 -0.0094
15686W        W32534   0.061   8.123   0.974  0.0953 -0.1536  0.1829
15687W        W32535   5.036   3.726  14.230  0.2244  0.4515 -0.1789
15688W        W32536  14.026  13.245   2.350 -0.3343  0.0889 -0.0521
15689W        W32537   3.326   4.830   3.021  0.3494 -0.1964  0.0966
15690W        W32538   7.884   1.127   4.368 -0.3446  0.1195 -0.1278
15691W        W32539  10.174   4.109  15.885 -0.0030 -0.1368  0.1061
15692W        W32540  15.834   1.315  16.030  0.1240  0.0955 -0.2284
15693W        W32541   0.856   1.502   2.228  0.0412  0.2937  0.1669
15694W        W32542  10.735  10.957   5.282  0.3621  0.2879 -0.1768
15695W        W32543   1.357   1.075  11.534 -0.1623  0.2204 -0.1375
15696W        W32544   4.794  17.248   3.059 -0.0325 -0.3188 -0.2511
15697W        W32545  16.318  15.872  13.629  0.1321  0.2016  0.1349
15698W        W32546   5.163  11.723   0.848  0.2833 -0.2539  0.2776
15699W        W32547  11.286   1.182   3.402  0.1812  0.0695  0.5070
15700W        W32548   5.956  11.533   4.800  0.2774 -0.1849  0.1024
15701W        W32549   7.050   9.773  14.737  0.2140  0.1747  0.1207
15702W        W32550  16.220   3.901   5.095  0.2337 -0.1620  0.0792
15703W        W32551   7.530  11.948  15.140 -0.1112  0.1695 -0.2194
15704W        W32552   4.457  15.117   0.367 -0.0920 -0.0713  0.1234
15705W        W32553   9.242  10.973  12.169 -0.0178 -0.0954 -0.2137
15706W        W32554   3.165  13.512   1.428  0.0926 -0.2174  0.2071
15707W        W32555  16.517  13.387   4.421 -0.1172 -0.3127  0.1344
15708W        W32556  10.370  14.241   4.281  0.1745  0.2406 -0.1341
15709W        W32557  11.695   4.471   4.763  0.1133 -0.1833 -0.0907
15710W        W32558   0.266   0.970  13.799 -0.0544  0.2821 -0.0775
15711W        W32559  11.798   3.721   2.251 -0.1351 -0.0880  0.1614
15712W        W32560   5.054   0.110   0.096 -0.2230 -0.0010 -0.0568
15713W        W32561  17.017   5.909   4.376 -0.3160  0.0613  0.1513
15714W        W32562   3.442   8.644   1.776 -0.2315  0.1007 -0.1378
15715W        W32563  14.339   4.665   3.083  0.0431 -0.0113  0.1381
15716W        W32564  12.170  13.920  10.501  0.2087  0.0132 -0.1690
15717W        W32565  13.956   0.559   4.514  0.1948 -0.0281 -0.0384
15718W        W32566  13.988   2.900  15.979  0.1796  0.0238 -0.2538
15719W        W32567  14.943   2.985   3.038 -0.0893 -0.3621  0.2110
15720W        W32568   0.003   4.422  15.283  0.0212  0.1060  0.2036
15721W        W32569  16.166   4.617  12.345 -0.0023 -0.1772 -0.2558
15722W        W32570   1.306   2.256  12.535 -0.1700 -0.2204  0.2067
15723W        W32571   5.979  14.986   5.638  0.0212  0.0714 -0.3405
15724W        W32572   4.506   4.473   4.611 -0.0086  0.3405 -0.0738
15725W        W32573  16.589  11.696   2.776  0.3184  0.1809 -0.0026
15726W        W32574   9.001  16.329  12.225  0.1899 -0.0540 -0.0674
15727W        W32575   8.396   0.658  12.984 -0.0532  0.0461  0.1641
15728W        W32576   1.277   4.526  12.783  0.2372 -0.0286 -0.2649
15729W        W32577   5.106   6.269  14.204 -0.1055 -0.0280  0.0826
15730W        W32578  13.433  11.638  14.550  0.0598  0.0326  0.0830
15731W        W32579  11.820   8.558  12.739 -0.4532  0.3245 -0.3904
15732W        W32580  15.234   7.249   4.072  0.2439 -0.2011 -0.3000
15733W        W32581   1.582   8.412   1.061  0.0205 -0.3558  0.0146
15734W        W32582   8.771   3.185   2.796 -0.0217  0.0293  0.0702
15735W        W32583   9.279   6.504  10.912 -0.1055 -0.1854  0.0983
15736W        W32584   8.750   1.256  15.519 -0.1223 -0.0601 -0.2154
15737W        W32585   2.005   9.744   3.312  0.0159  0.0564 -0.3341
15738W        W32586  12.049   5.703  15.817  0.0155  0.1030 -0.1418
15739W        W32587   2.632  15.012  13.811  0.0732 -0.0416 -0.0444
15740W        W32588  10.208   3.038  14.936  0.0052  0.1243  0.0648
15741W        W32589   2.941  11.867  14.192  0.0122 -0.0691 -0.0988
15742W        W32590   9.146  15.352   0.118 -0.1366  0.4102  0.0432
15743W        W32591   0.568  13.055  14.986  0.1912  0.0310 -0.0329
15744W        W32592   8.017   7.190   3.524 -0.2930 -0.1434  0.0137
15745W        W32593   9.359   9.452   4.962 -0.0991 -0.2482 -0.0072
15746W        W32594   1.671  14.697  14.177  0.2983  0.0635  0.1635
15747W        W32595  11.351  15.296  15.553 -0.0232  0.0195  0.0385
15748W        W32596   9.856  10.876   0.337  0.0473 -0.2077 -0.2028
15749W        W32597  12.524   2.678  15.799  0.0832  0.0730  0.0551
15750W        W32598  14.152  12.838  11.734 -0.0891  0.1472  0.0717
15751W        W32599   4.054   3.450   1.907 -0.1233 -0.1397 -0.3628
15752W        W32600   2.772   4.261  12.008  0.0071  0.1967 -0.2033
15753W        W32601   9.256  14.689   2.433 -0.0391  0.0754 -0.1240
15754W        W32602   1.131  12.652   4.781 -0.2480 -0.1969  0.0766
15755W        W32603   9.268   1.143  11.640  0.1411  0.1755  0.0040
15756W        W32604  17.678   4.810   3.575 -0.0165 -0.1131  0.1952
15757W        W32605  14.464  11.999   4.587  0.0239  0.1606  0.0083
15758W        W32606  15.656   8.765  11.957 -0.1059 -0.1393 -0.1939
15759W        W32607   4.412   9.097  15.049 -0.2092  0.0112 -0.0229
15760W        W32608   8.544  13.603   0.830  0.0758 -0.1267  0.0796
15761W        W32609   6.567   9.624   3.506 -0.1711  0.2929 -0.3648
15762W        W32610   6.680   6.160  11.818 -0.0005 -0.1979 -0.0848
15763W        W32611  16.842  15.022   3.394 -0.2504  0.2101 -0.0945
15764W        W32612  16.357  11.660   2.335  0.1765 -0.1977  0.0287
15765W        W32613  15.554   5.878   2.285 -0.1689 -0.0665  0.2649
15766W        W32614  11.054   7.537   3.001 -0.1517 -0.1344 -0.2309
15767W        W32615   3.459   4.985  11.045 -0.0092 -0.0862 -0.1350
15768W        W32616   3.780  13.025   0.736 -0.2229  0.1842 -0.3753
15769W        W32617   7.664   9.436  12.154 -0.0132 -0.0334 -0.0583
15770W        W32618   8.634  12.865  15.542  0.0124 -0.1239 -0.0383
15771W        W32619   0.484  11.479  12.460 -0.1424 -0.1409 -0.0960
15772W        W32620   2.681   6.859   5.268  0.1600 -0.0892 -0.1907
15773W        W32621   0.023   8.868  12.079 -0.0261  0.0810 -0.1665
15774W        W32622  16.589  14.714   3.923 -0.1197  0.1498 -0.1497
15775W        W32623   2.029   2.278   4.038  0.1444  0.0566  0.0676
15776W        W32624  14.836  13.787   0.011 -0.0629  0.0682  0.2717
15777W        W32625   1.663  14.823   4.399 -0.2177  0.2814  0.1263
15778W        W32626  13.439   6.703  15.618  0.0771 -0.1565  0.3548
15779W        W32627   1.284   6.133  14.187  0.2989 -0.2220  0.2139
15780W        W32628  12.986  14.600   4.905  0.0385  0.0328  0.0013
15781W        W32629   5.384   9.061  12.572  0.0968 -0.0370 -0.1067
15782W        W32630   0.405   1.201  15.869 -0.0403  0.0968  0.0348
15783W        W32631   4.156   4.525   5.173  0.0125  0.1452 -0.1034
15784W        W32632   8.021   2.284   3.315  0.1323  0.1279  0.0498
15785W        W32633   9.112   1.054  13.198 -0.0226  0.0081 -0.0772
15786W        W32634  11.827   6.974   0.660  0.1879 -0.2205  0.0369
15787W        W32635   4.105  17.066  11.359 -0.0388 -0.1877 -0.0642
15788W        W32636   7.085   2.920   4.864  0.5433 -0.3596 -0.1275
15789W        W32637   0.356   4.535  11.318 -0.0922  0.2868  0.2261
15790W        W32638  12.371   5.052  13.684 -0.0990  0.0494  0.3921
15791W        W32639  15.418  12.822   0.133 -0.1073 -0.2126 -0.2343
15792W        W32640   5.882  11.134   0.937 -0.2460 -0.4371 -0.1684
15793W        W32641  10.722  10.070   4.664  0.1967  0.0776  0.4477
15794W        W32642  11.841  16.525   1.641 -0.0609  0.3870  0.3814
15795W        W32643  16.800  14.164  13.207 -0.0309 -0.1498 -0.2341
15796W        W32644  11.630  14.488   3.807 -0.0283  0.0089  0.1633
15797W        W32645   9.334   2.079   0.079  0.1046 -0.0604  0.1599
15798W        W32646   2.011  17.460  13.545 -0.2393 -0.0386 -0.3047
15799W        W32647   4.937  13.300  14.314 -0.1070 -0.2793 -0.2494
15800W        W32648   7.862  12.800   5.317  0.1447  0.2127 -0.3898
15801W        W32649  15.906   8.767  11.378 -0.4413  0.0157 -0.1546
15802W        W32650   0.609   7.382   0.744  0.1350 -0.2482 -0.0991
15803W        W32651  13.712  15.952  15.558 -0.3060  0.0017 -0.0205
15804W        W32652  16.077  15.829  13.191 -0.1806 -0.0677  0.3458
15805W        W32653   8.831   8.518   0.694 -0.1988 -0.0760 -0.0316
15806W        W32654  17.398  13.304  11.818  0.1134 -0.2942 -0.1333
15807W        W32655   3.877   3.129   4.446  0.0848 -0.0792 -0.0058
15808W        W32656  12.778   7.083  14.542 -0.1871 -0.0053 -0.0062
15809W        W32657   6.444  14.085  11.893 -0.1941  0.0456  0.3192
15810W        W32658   6.772  15.930   3.235 -0.0116  0.1644 -0.1892
15811W        W32659  10.496  13.247   0.336 -0.0519  0.0199  0.1272
15812W        W32660  17.013   0.536  16.262  0.1124 -0.1887 -0.2754
15813W        W32661   7.357   4.039   0.182  0.4041  0.2308  0.0718
15814W        W32662  13.934   1.580  12.254  0.0499 -0.0154 -0.1809
15815W        W32663   6.141   1.206   1.325 -0.2299 -0.2383 -0.0846
15816W        W32664   9.376  13.966   3.444  0.0786 -0.0368  0.0589
15817W        W32665   2.905   4.268   4.921 -0.2768 -0.1987 -0.0984
15818W        W32666   4.813  13.556  12.215 -0.0122 -0.1154 -0.1964
15819W        W32667  11.120   5.793   4.877 -0.0458 -0.5094 -0.0254
15820W        W32668   2.714  12.789   0.380  0.1348  0.0879 -0.0197
15821W        W32669  16.218   1.576   3.026 -0.0313  0.2706 -0.1424
15822W        W32670   2.446  11.924   1.248 -0.1236 -0.1958 -0.1794
15823W        W32671  10.321   6.539   0.801  0.2987  0.0060 -0.0757
15824W        W32672   1.447   8.182   5.481 -0.2695 -0.1598  0.1903
15825W        W32673   9.825  12.911   2.927  0.1178  0.1278 -0.0933
15826W        W32674   2.116   8.746  15.704  0.0494 -0.1802  0.0260
15827W        W32675  11.703  16.366   3.072 -0.0553  0.0361 -0.0071
15828W        W32676   9.438   5.735   0.519  0.0023 -0.0943  0.0099
15829W        W32677   2.685   8.795   1.467  0.1936  0.1606  0.1193
15830W        W32678   6.163   1.827  15.454 -0.1210  0.0314 -0.2948
15831W        W32679  11.383   2.442   4.366 -0.2292  0.3048 -0.2714
15832W        W32680  14.552  10.016  10.551 -0.0672  0.0287  0.1705
15833W        W32681   8.704   3.938  12.199 -0.0692 -0.1214 -0.2370
15834W        W32682  13.475   3.964  15.875 -0.2012  0.0842  0.0897
15835W        W32683   9.452  13.365  12.923 -0.1098  0.3860 -0.0540
15836W        W32684  11.624  12.263   1.554 -0.2693 -0.0812  0.1837
15837W        W32685  12.335  16.967   0.396  0.1133  0.0290  0.0556
15838W        W32686   9.728   5.395  12.414  0.1462 -0.0884 -0.1898
15839W        W32687  15.737   6.824  15.487 -0.1354 -0.0658 -0.0563
15840W        W32688  14.948  10.559  15.667 -0.0736 -0.0185 -0.2831
15841W        W32689  10.021   8.475   3.515  0.3123  0.4799  0.0734
15842W        W32690  15.084  10.269   2.088 -0.1686  0.0767 -0.1464
15843W        W32691   5.164   8.905   3.473 -0.2613 -0.0034  0.2048
15844W        W32692   7.422   4.553   3.599  0.2320 -0.0172  0.2304
15845W        W32693   9.595   3.624   0.832  0.1563  0.1462 -0.1131
15846W        W32694   3.106  12.149  16.177  0.0431  0.1683 -0.0498
15847W        W32695  15.191   2.133  14.124  0.2266 -0.1751  0.1334
15848W        W32696  12.888  12.548   4.125 -0.1563 -0.1496  0.1171
15849W        W32697  13.773  12.326  15.700 -0.0302  0.0935 -0.1286
15850W        W32698  11.079   4.206  16.072  0.1105 -0.1785 -0.1064
15851W        W32699   7.605   7.656   2.236 -0.2773  0.0027 -0.0890
15852W        W32700   4.487   4.240   0.319 -0.0012 -0.1748  0.2650
15853W        W32701   8.726   1.885  15.801  0.3557  0.2786 -0.0950
15854W        W32702   0.020  14.493  11.750 -0.1503  0.2096 -0.4465
15855W        W32703  11.052   4.138   2.400 -0.3107 -0.0967  0.3193
15856W        W32704   6.607   9.035   3.068 -0.1103  0.1421  0.1776
15857W        W32705  13.807   1.258  15.621  0.1034  0.1832 -0.0059
15858W        W32706   9.795  15.786   5.431  0.1805 -0.2828  0.1973
15859W        W32707  14.608   4.569   0.335  0.0598 -0.0062  0.0494
15860W        W32708   5.287   8.829   1.380  0.0209 -0.1957 -0.1298
15861W        W32709  17.616   2.763  13.951  0.0816 -0.3700  0.2411
15862W        W32710  12.644   3.774  16.376  0.4913 -0.1974 -0.2486
15863W        W32711  10.153  17.751  15.613  0.1871 -0.0824 -0.0259
15864W        W32712   8.728   1.835   2.200 -0.2564 -0.0524 -0.0627
15865W        W32713   7.650   8.008   4.389 -0.1767 -0.2202 -0.1643
15866W        W32714  10.147  13.935   4.673 -0.3364  0.1407 -0.0527
15867W        W32715   4.274  13.877  15.342  0.0355 -0.0882 -0.2869
15868W        W32716   2.001   9.495   4.665 -0.0002 -0.2538 -0.1464
15869W        W32717  16.229   1.740  15.339 -0.0121  0.3690  0.0839
15870W        W32718  12.392   5.034  12.699 -0.2073 -0.0435 -0.1401
15871W        W32719   3.794  11.543  11.466 -0.0771  0.0309  0.1711
15872W        W32720   1.411  13.941  10.971 -0.0294 -0.0121 -0.1546
15873W        W32721   2.448   0.229  12.176  0.0071 -0.0960  0.2673
15874W        W32722   7.826   5.546  13.910  0.4245  0.0410 -0.1497
15875W        W32723   3.753   4.149   0.978 -0.0567 -0.0973 -0.1465
15876W        W32724  10.183  15.758   0.321 -0.1021  0.0891  0.0650
15877W        W32725  13.845  11.850  12.115 -0.1073  0.0214 -0.3553
15878W        W32726   0.344  13.351   5.157  0.1296  0.0531  0.2541
15879W        W32727   9.339   3.507  14.636  0.1691  0.1266 -0.1130
15880W        W32728   6.175   8.913   3.994 -0.0533 -0.0559 -0.1198
15881W        W32729  10.073   0.198   2.608 -0.0802 -0.0741 -0.1785
15882W        W32730   3.377  17.520   3.872  0.0654  0.2139 -0.0377
15883W        W32731  13.785   6.983   2.803  0.1503 -0.2181  0.0305
15884W        W32732   8.936   9.929   4.600  0.0564  0.1859 -0.0624
15885W        W32733  13.499   8.743  15.699 -0.3279 -0.3633 -0.0595
15886W        W32734  13.493   4.966  14.234 -0.0777 -0.1344 -0.2094
15887W        W32735   2.327   7.251  12.664 -0.1864  0.1631 -0.0870
15888W        W32736   7.117   0.750   2.095 -0.0788 -0.0239 -0.0737
15889W        W32737  10.345  15.235  12.633  0.1774 -0.1615 -0.2417
15890W        W32738  15.325   1.405  11.752  0.2864 -0.0506  0.1825
15891W        W32739  16.988   0.612   3.126 -0.0951 -0.2511  0.2723
15892W        W32740   4.654  12.665   0.486 -0.1407 -0.0260 -0.0859
15893W        W32741   1.449   0.766  14.486 -0.1816 -0.2879  0.1213
15894W        W32742  10.124   1.500   1.449  0.0406  0.4108 -0.0072
15895W        W32743  14.620   0.329   1.805 -0.0407 -0.0214 -0.1095
15896W        W32744  11.216  11.431   3.317  0.0761  0.1557  0.1491
15897W        W32745   0.879   5.125  14.568 -0.1953  0.0264  0.2331
15898W        W32746   9.748   5.414   0.834  0.1756  0.2987  0.0167
15899W        W32747   8.307   7.049   2.604  0.3283 -0.1867  0.2358
15900W        W32748   0.404   9.501  14.928 -0.0110  0.0777 -0.1793
15901W        W32749  13.476   4.051  11.540 -0.0420  0.2597  0.1476
15902W        W32750   3.587   5.876   4.083  0.0472 -0.1346  0.0589
15903W        W32751  12.642  15.902  15.135  0.0019 -0.0200  0.0609
15904W        W32752   2.231   4.567   5.384 -0.1677 -0.0049  0.2474
15905W        W32753  17.745  12.834  12.655  0.2187 -0.1042 -0.0577
15906W        W32754  12.914  14.799  14.665  0.2224  0.1671  0.0514
15907W        W32755   6.559  11.207  15.808  0.2097  0.0379  0.1102
15908W        W32756   9.939   1.188  12.213 -0.1032 -0.1069  0.1455
15909W        W32757  16.001   5.237   1.651 -0.1029  0.0906 -0.0413
15910W        W32758   3.716   3.907  13.291  0.1503  0.0640 -0.3632
15911W        W32759   6.119   6.888  15.093  0.0067 -0.0187  0.2829
15912W        W32760   3.286   7.488  13.516  0.0132  0.0374  0.0172
15913W        W32761   5.957   3.034  16.423  0.3005 -0.0146 -0.2573
15914W        W32762   9.498   4.584   2.370  0.2890 -0.2871  0.0857
15915W        W32763   1.594   2.893   0.842 -0.0329 -0.1798 -0.0676
15916W        W32764   4.890  11.806  14.009 -0.1426 -0.2026  0.3042
15917W        W32765   7.837   4.837   0.959 -0.0038 -0.0119 -0.1747
15918W        W32766   7.324  11.038  16.392 -0.1298  0.0306 -0.1550
15919W        W32767   5.353   4.559  14.440 -0.2106 -0.1187 -0.2826
15920W        W32768   6.031  14.615  12.309 -0.0996  0.2737  0.2121
15921W        W32769   5.238  13.338  11.303 -0.0921  0.0635  0.0757
15922W        W32770   6.205   4.898   4.682  0.1414 -0.0179 -0.0779
15923W        W32771   2.643  14.449   1.705 -0.2493  0.4414 -0.0194
15924W        W32772   7.318   0.731  12.809 -0.0402 -0.2267 -0.1758
15925W        W32773  15.431   5.686  14.485 -0.0739  0.0778  0.0195
15926W        W32774   2.528  17.656   2.215 -0.3043  0.1627  0.1359
15927W        W32775   5.305   4.594  13.243 -0.1770 -0.0449  0.1347
15928W        W32776   5.152  16.494  12.293  0.5775  0.0397 -0.0157
15929W        W32777  17.299   6.669   0.699 -0.0426 -0.0896  0.1875
15930W        W32778   4.911   2.066   2.374 -0.3996 -0.1193  0.3902
15931W        W32779  15.917   6.847  14.812 -0.3580  0.0278 -0.1437
15932W        W32780   9.212   1.897   2.307  0.3570 -0.3337 -0.0302
15933W        W32781   4.422  15.967  16.372  0.2091  0.0120  0.1159
15934W        W32782   3.378  10.842  14.248 -0.0219  0.0555 -0.1857
15935W        W32783   8.710   9.651   1.546 -0.0777 -0.2879  0.1995
15936W        W32784  14.736   9.904  12.695  0.4774 -0.0770 -0.0452
15937W        W32785   8.102  10.065  15.441  0.0315 -0.1989  0.4368
15938W        W32786   7.243   4.644  12.674  0.4422 -0.0045  0.2792
15939W        W32787  13.823   1.183   1.036  0.1138  0.2082 -0.0130
15940W        W32788   5.892   9.815  14.442  0.0876 -0.0296  0.1208
15941W        W32789  17.727   8.894   2.404 -0.2625 -0.0382  0.0054
15942W        W32790  11.510   9.520  15.285 -0.0714  0.1282  0.0784
15943W        W32791  13.531   7.529  12.905  0.0936 -0.0172 -0.4528
15944W        W32792  17.501   3.757  15.397 -0.0319 -0.2222 -0.2814
15945W        W32793   3.295   7.563  14.227 -0.2936  0.0767  0.0585
15946W        W32794  13.622   7.176   1.980  0.1009  0.2494 -0.0013
15947W        W32795   5.869  13.589   6.615  0.0340  0.0095  0.0486
15948W        W32796   0.038  17.438   2.776 -0.0791  0.0678 -0.0927
15949W        W32797  14.297  15.803   1.970 -0.1673  0.0614 -0.3569
15950W        W32798   0.584  16.537  13.297  0.2945  0.1358 -0.1744
15951W        W32799  14.728   3.654  13.681 -0.3113 -0.1259  0.1876
15952W        W32800  14.606   9.934  13.585 -0.0574 -0.4452  0.2445
15953W        W32801   1.517  17.628  13.763 -0.0510  0.0947 -0.2755
15954W        W32802  12.809   4.382   1.872  0.3316 -0.1048 -0.0763
15955W        W32803  16.950   2.044   1.993 -0.0453  0.3602 -0.2728
15956W        W32804  12.382   9.510   0.232 -0.3647  0.0941  0.0254
15957W        W32805   5.484  10.204  15.881 -0.2116 -0.1853  0.0064
15958W        W32806   9.547  11.866  12.765 -0.0641 -0.1314  0.4304
15959W        W32807  13.126   1.305  12.807 -0.0382  0.1522  0.1010
15960W        W32808  15.686  17.224   1.219  0.0395 -0.3402 -0.0132
15961W        W32809  17.219  15.057  11.909  0.1304 -0.2935 -0.2988
15962W        W32810  10.849  16.172   1.803  0.4526 -0.1263 -0.1035
15963W        W32811  15.877   4.769   4.298  0.0189 -0.0274 -0.1439
15964W        W32812  12.117   5.471  15.069  0.0116  0.0579 -0.1341
15965W        W32813   0.623   7.985   3.452  0.0510 -0.0675 -0.3341
15966W        W32814  15.347  14.298   3.657  0.0198  0.1087  0.0707
15967W        W32815   2.160  13.497   4.724 -0.2000  0.1933 -0.1144
15968W        W32816  13.283   0.531   2.311  0.1548  0.1482  0.0906
15969W        W32817  10.734   7.285  12.221  0.0897 -0.2509 -0.0392
15970W        W32818   3.644   1.286   3.642  0.1211 -0.2422  0.0880
15971W        W32819   6.900  14.601   3.345 -0.0817  0.2746 -0.2616
15972W        W32820   3.788   6.472   5.018  0.0220 -0.0343  0.1647
15973W        W32821  14.290   3.832  13.782  0.0525  0.1703 -0.1041
15974W        W32822   9.928   5.096  11.569 -0.5358  0.0559 -0.3481
15975W        W32823  13.490  10.585   3.277  0.2374  0.1762  0.3093
15976W        W32824  15.997   7.801  14.430  0.0852 -0.0364 -0.2115
15977W        W32825  15.192   6.754   4.082  0.0043  0.2151  0.4277
15978W        W32826  11.853  14.226  11.908 -0.0801  0.0840  0.0365
15979W        W32827  13.818   1.710  14.375  0.1205  0.1206 -0.1558
15980W        W32828   5.112  14.921   3.288  0.2016 -0.1119  0.0381
15981W        W32829   3.777   3.421  13.155 -0.1627 -0.2205  0.0024
15982W        W32830   6.327  10.651   2.779  0.2398  0.1354  0.1276
15983W        W32831   6.521  15.228  14.382 -0.0361  0.2096 -0.1925
15984W        W32832  17.336   7.596   1.536 -0.0110 -0.1216 -0.0439
15985W        W32833   1.904  12.972  10.924 -0.1572  0.3177  0.0987
15986W        W32834   3.175   5.829  12.685 -0.1019 -0.2228 -0.0543
15987W        W32835  12.352  11.810  14.623 -0.2096  0.1228 -0.0491
15988W        W32836   5.904  13.626   1.149  0.1254  0.0644  0.0824
15989W        W32837   2.921   0.748   5.340 -0.0799  0.0800  0.1372
15990W        W32838   4.321  11.999  12.324  0.0505 -0.0313  0.3307
15991W        W32839   5.287   9.481   0.940  0.1837  0.0465  0.1027
15992W        W32840  12.855  15.479  16.376  0.4732 -0.0439  0.1197
15993W        W32841   9.048   6.722   1.372  0.5102 -0.2168  0.1394
15994W        W32842   2.747   4.408  14.254  0.1725  0.0941 -0.1164
15995W        W32843   5.113   2.467   3.624 -0.0316  0.0078  0.0981
15996W        W32844   5.421   1.524  14.146 -0.1537  0.1228  0.0902
15997W        W32845   6.877  10.669  15.783 -0.1464 -0.0983 -0.0731
15998W        W32846  13.222   0.611  12.758  0.0746  0.1182  0.2542
15999W        W32847   0.425   1.139  16.388  0.0503 -0.0603  0.0121
16000W        W32848  16.110   6.327   2.757 -0.0112 -0.0898  0.1045
16001W        W32849  14.254  12.196  16.134  0.1975  0.1935  0.3818
16002W        W32850  11.538   8.023   4.203 -0.1678 -0.3393 -0.2096
16003W        W32851  15.172   7.770  13.057 -0.1648  0.1005 -0.2610
16004W        W32852   0.713   8.091  11.107  0.3064  0.1218  0.2378
16005W        W32853  13.406  12.526   4.002  0.0137  0.0225  0.1629
16006W        W32854  14.703  17.063   1.016  0.3302 -0.0639 -0.1181
16007W        W32855  15.216  12.817  15.482 -0.0885  0.0240  0.0813
16008W        W32856   8.363   7.944   4.590  0.0054 -0.1117 -0.1070
16009W        W32857   3.803   1.637  11.251  0.2194  0.0106  0.2533
16010W        W32858  17.037   7.642   1.167 -0.1044 -0.0332 -0.1199
16011W        W32859  17.179   8.387  14.506  0.0662  0.1772 -0.1488
16012W        W32860   1.769  10.144  10.345 -0.0053 -0.1939  0.1884
16013W        W32861  12.169   7.693   4.873  0.1778 -0.0230  0.1866
16014W        W32862   9.387   8.896   1.266  0.1533 -0.3174 -0.2313
16015W        W32863  14.988   4.721   2.242  0.2048  0.0441 -0.0935
16016W        W32864  11.481  12.832   1.233 -0.0684 -0.0879 -0.2385
16017W        W32865   2.695  10.874  14.904  0.1108  0.1619 -0.0734
16018W        W32866  14.000  11.379  12.822 -0.1035 -0.0711  0.2509
16019W        W32867  14.911  16.075   1.959  0.0014  0.0084 -0.0399
16020W        W32868   1.214  12.655   3.192 -0.0448  0.1478  0.0161
16021W        W32869  14.196  15.437   2.330  0.1919  0.1329 -0.1510
16022W        W32870  11.415  12.984  13.688 -0.0105  0.1220 -0.0237
16023W        W32871  14.512   9.695   4.768  0.1805  0.1213 -0.1851
16024W        W32872  12.919   4.039  14.314  0.0119  0.2132 -0.1292
16025W        W32873   4.848  12.130  14.891  0.2326  0.2188 -0.0071
16026W        W32874   5.332   7.138  16.274  0.2738 -0.0881  0.2529
16027W        W32875  11.990  15.567  16.260  0.0763  0.0201  0.3365
16028W        W32876   6.313  11.553  13.981  0.4543  0.1575 -0.0951
16029W        W32877  13.459   2.349  14.932 -0.2256 -0.0164  0.2194
16030W        W32878  17.448   7.576   2.556 -0.0685 -0.3572  0.0744
16031W        W32879  14.083   8.050   2.382 -0.2166 -0.3690 -0.2349
16032W        W32880  13.550   4.066   5.172 -0.1180  0.1284 -0.0708
16033W        W32881  10.386  16.086   3.384  0.0172 -0.1133  0.1427
16034W        W32882   0.212   9.654  12.515 -0.1601 -0.0293 -0.1372
16035W        W32883   1.183  11.366   4.407  0.1086  0.2464 -0.2638
16036W        W32884   7.016  10.738  14.681 -0.0157  0.0063 -0.2666
16037W        W32885   3.492   3.633  11.924  0.0249  0.0821 -0.0086
16038W        W32886   2.967   6.310   4.441  0.1125 -0.1877 -0.3869
16039W        W32887   3.817  11.339  16.164  0.1658  0.1236  0.0572
16040W        W32888   7.400  10.168  15.999 -0.3419  0.0485 -0.0764
16041W        W32889  13.145   6.254  14.371  0.0018 -0.0480  0.1139
16042W        W32890   4.877   9.653   6.195 -0.0595 -0.2463  0.0062
16043W        W32891   4.674  12.977   4.851  0.1730  0.0193 -0.3218
16044W        W32892   4.716   2.467   0.554  0.2518 -0.2268  0.0378
16045W        W32893  14.523  17.368   1.359 -0.0725  0.1133 -0.0368
16046W        W32894   8.977   9.210   2.695  0.0839 -0.2243 -0.1685
16047W        W32895   0.903  14.666  15.341  0.1841 -0.1166  0.0737
16048W        W32896   8.883  15.377   4.239 -0.1550 -0.1114 -0.2925
16049W        W32897   2.622   6.368  12.920  0.1003 -0.0799  0.0204
16050W        W32898   6.608   3.821   0.760 -0.0586  0.2528 -0.1817
16051W        W32899   3.852   7.966   2.710  0.1008  0.1697 -0.1055
16052W        W32900  12.748   4.165  12.099  0.1133 -0.0850 -0.3494
16053W        W32901   9.617  14.290  16.325 -0.0616 -0.2352  0.1830
16054W        W32902  11.014   3.696   4.311 -0.1023  0.2896 -0.0056
16055W        W32903   7.243  17.229  12.569 -0.4325  0.3207 -0.0821
16056W        W32904  12.269   0.853   1.261  0.0020  0.3300 -0.0737
16057W        W32905   8.526   8.615  11.539 -0.1169 -0.2937  0.1268
16058W        W32906   2.146  11.168  13.871  0.1068 -0.1605  0.0398
16059W        W32907   4.046   9.264  11.302 -0.3167 -0.1220 -0.0111
16060W        W32908   0.044  10.112   3.436 -0.0108 -0.1019 -0.1032
16061W        W32909   9.826  14.191  14.574  0.1434  0.4710 -0.2821
16062W        W32910   8.700   9.849   3.673 -0.0725  0.0022  0.0863
16063W        W32911  13.561   2.043   3.368  0.3552 -0.1224  0.1536
16064W        W32912  16.588  10.037  14.404  0.2110 -0.0235 -0.0899
16065W        W32913   8.165  16.654  13.285  0.1217 -0.0806  0.1089
16066W        W32914  15.387  15.618   4.437 -0.3586  0.2067  0.2359
16067W        W32915   8.730   0.923   1.863 -0.2270 -0.2245 -0.1030
16068W        W32916   5.393  11.239  12.146  0.0323  0.1046 -0.1443
16069W        W32917  10.579  16.095   0.275  0.3682 -0.0569  0.0447
16070W        W32918   9.440  10.793   1.317 -0.1449 -0.0458 -0.0750
16071W        W32919   8.030   3.088   1.344 -0.0568 -0.0299 -0.1346
16072W        W32920   2.851   6.799  13.128 -0.3032  0.1738 -0.0285
16073W        W32921   4.518   4.562  15.848 -0.0610 -0.0300  0.2151
16074W        W32922  11.627  10.975  14.564 -0.4252  0.1210  0.0111
16075W        W32923   4.727   4.746   0.792 -0.0804 -0.0557  0.4363
16076W        W32924   9.707   6.142  12.932  0.1035  0.1192 -0.0075
16077W        W32925   3.648  15.658  13.966 -0.3142 -0.0120  0.0954
16078W        W32926   5.826  13.133   3.578  0.0393 -0.1417  0.0108
16079W        W32927   0.817  11.001  15.529 -0.1477  0.3105  0.2026
16080W        W32928  14.266  12.977   1.211  0.3083  0.0636  0.3603
16081W        W32929   4.366  13.069  13.845  0.1365 -0.0567 -0.2788
16082W        W32930   0.072  12.879  16.352  0.0640 -0.4218  0.2394
16083W        W32931   0.575  13.525  14.787 -0.1534  0.0999 -0.1875
16084W        W32932   8.793   7.839  12.926  0.2268 -0.1491  0.0847
16085W        W32933   0.327  12.813  11.699 -0.0112 -0.0000  0.1026
16086W        W32934   7.648   9.777   2.494 -0.1944 -0.1125 -0.1203
16087W        W32935  13.955   2.039  13.562  0.0828  0.0656  0.0053
16088W        W32936   2.566  14.047  13.571  0.3078  0.4193  0.0098
16089W        W32937   4.920   3.681  13.742  0.1096 -0.1711 -0.0948
16090W        W32938  10.692  15.012  14.071 -0.2507  0.0231 -0.0192
16091W        W32939   5.375   3.248   4.474 -0.1750  0.0407  0.2146
16092W        W32940   8.353  13.000   0.686 -0.1132 -0.0366  0.0068
16093W        W32941  13.308   8.182   3.512  0.1214  0.0599 -0.0660
16094W        W32942   0.573   1.316   5.163  0.1665 -0.1634  0.0154
16095W        W32943  17.836   7.199   3.892  0.0370 -0.0319  0.1179
16096W        W32944   9.675  12.181  14.958  0.1104  0.1426  0.1470
16097W        W32945  15.142   2.828   4.031  0.4037  0.1488  0.2122
16098W        W32946   0.556   7.572  15.154  0.1043 -0.2666 -0.0336
16099W        W32947  10.160   3.404  16.452  0.5678 -0.0079 -0.1596
16100W        W32948   1.531   5.662   1.131 -0.1716 -0.1198  0.1530
16101W        W32949  15.652   9.975  13.786  0.0418  0.0398 -0.0325
16102W        W32950   4.911  13.783  13.490  0.1704 -0.1869  0.1192
16103W        W32951   8.605   5.206   2.007  0.2047 -0.1547  0.1122
16104W        W32952   1.013  11.845  13.291  0.1019 -0.0385  0.0775
16105W        W32953  16.191   7.942  11.571  0.3739 -0.2769  0.1442
16106W        W32954  13.798   9.851   4.133  0.0157  0.0850 -0.1055
16107W        W32955  10.496   6.620  14.344  0.0106  0.3458  0.1098
16108W        W32956  17.365   6.563   3.598 -0.0023 -0.0996 -0.2655
16109W        W32957   2.123   2.343  14.156 -0.0915 -0.3133  0.2238
16110W        W32958   1.186   1.965  13.812 -0.1937  0.1217  0.2646
16111W        W32959  17.160   0.598   4.090 -0.0263 -0.3084 -0.3150
16112W        W32960   9.494   5.708  14.537 -0.0843 -0.1052  0.1639
16113W        W32961   6.102   7.629   3.527 -0.2053  0.0282  0.0484
16114W        W32962  14.336  16.737   2.040  0.0096  0.1555  0.1690
16115W        W32963  16.292  11.955  11.955  0.0352  0.2101  0.2493
16116W        W32964  14.593   1.805   4.816  0.1160  0.1396  0.2534
16117W        W32965  16.840   5.471   1.409  0.0075  0.4236 -0.1044
16118W        W32966  12.879  16.809  12.132 -0.1714  0.0456  0.0275
16119W        W32967  17.214   8.212  14.962 -0.2287 -0.0704  0.0088
16120W        W32968  10.870   8.366  14.428  0.3958  0.0738  0.1590
16121W        W32969   7.810   2.367   5.715  0.0398 -0.0033 -0.0610
16122W        W32970   7.923  17.826   4.150 -0.0590 -0.0105  0.1926
16123W        W32971   5.783  17.259  13.743  0.0436  0.0620  0.1092
16124W        W32972   7.224   5.482   5.033  0.1815 -0.2184  0.0374
16125W        W32973   8.080  10.736   2.924 -0.0320 -0.4730  0.0510
16126W        W32974   9.463   4.775  13.042 -0.0300 -0.0617  0.0353
16127W        W32975  12.350   5.264   1.593  0.4985 -0.2947 -0.0013
16128W        W32976  10.457  14.084   1.830  0.2841 -0.2399 -0.0138
16129W        W32977   2.683  10.335  16.164  0.0660 -0.3408 -0.3929
16130W        W32978   5.753  11.889   6.079  0.0043 -0.1682 -0.0872
16131W        W32979   9.541   2.197  10.663  0.0522  0.2529  0.1851
16132W        W32980  10.510   6.381   4.392 -0.1355  0.0168 -0.0924
16133W        W32981   2.515   2.165   1.468  0.2650 -0.0137  0.2140
16134W        W32982  12.704   3.726  14.674  0.1253 -0.1161 -0.1410
16135W        W32983  12.672   5.979   5.298 -0.0756 -0.1749  0.1652
16136W        W32984   1.098   2.069   2.894 -0.2011 -0.2211  0.0610
16137W        W32985   9.294  10.055  15.953  0.0644 -0.2224  0.1221
16138W        W32986  10.392  13.081  15.741 -0.1211  0.0146 -0.2572
16139W        W32987  15.263   6.101   0.584  0.0730  0.2881  0.0180
16140W        W32988  11.357   5.976  14.318 -0.4959 -0.1724 -0.2209
16141W        W32989  16.052   7.701   5.609 -0.0884 -0.3245 -0.1192
16142W        W32990  12.867  15.319  13.950 -0.2441 -0.1041 -0.0951
16143W        W32991   9.960  15.451  11.793 -0.1151  0.1493  0.3221
16144W        W32992  11.665  10.816  15.698  0.3062  0.0059  0.0821
16145W        W32993   9.395  15.936   3.710 -0.0626 -0.0375  0.1197
16146W        W32994   1.116   8.899   4.392  0.1128  0.1052  0.0887
16147W        W32995  10.877   1.108  15.670 -0.0212 -0.2374 -0.1596
16148W        W32996  16.208   7.515   4.240 -0.0064 -0.0062 -0.0919
16149W        W32997   6.915  10.903   1.819 -0.1818 -0.3371  0.1077
16150W        W32998  14.410   5.576  13.118  0.1126  0.0757  0.3136
16151W        W32999   9.827   7.726  15.712  0.1311  0.1445  0.2396
16152W        W33000   6.296  12.215  15.899 -0.3522  0.0603  0.1399
16153W        W33001   3.104   9.145  14.627 -0.0040  0.0513 -0.0746
16154W        W33002  14.376  17.074   5.019 -0.2273 -0.0018 -0.0472
16155W        W33003   4.564  17.268  15.706  0.2417 -0.2244  0.2903
16156W        W33004  15.297  10.239  12.699 -0.1030  0.2350 -0.0376
16157W        W33005  13.526   8.982  10.717 -0.0118  0.1261  0.0183
16158W        W33006   2.026   7.171   4.130 -0.0304 -0.0480 -0.2014
16159W        W33007  12.843  13.480   4.328  0.0543  0.1881  0.1550
16160W        W33008  16.774  13.673  12.446 -0.1699 -0.1683 -0.2584
16161W        W33009  12.419   5.128  11.011 -0.2229 -0.0095  0.2516
16162W        W33010   8.017   6.082   1.108 -0.1503  0.1337 -0.1642
16163W        W33011   0.358  14.639   2.099  0.0203 -0.3178  0.0115
16164W        W33012   9.611   2.433   3.941 -0.1402  0.1278 -0.3386
16165W        W33013  12.728   4.547  11.660  0.1526  0.0278 -0.0804
16166W        W33014  15.886  17.051  11.445  0.0599 -0.1499  0.1847
16167W        W33015   9.832  13.053  13.494  0.0794  0.0848 -0.1680
16168W        W33016  11.182   6.590  15.165 -0.2181 -0.2233  0.1533
16169W        W33017   4.879   2.956   1.742  0.1358 -0.1459  0.2295
16170W        W33018   8.353  15.465   1.884 -0.0728 -0.2085 -0.1944
16171W        W33019   2.826   8.838  12.998  0.0515 -0.0643  0.4069
16172W        W33020  12.643  10.983   3.080 -0.0232  0.4293  0.0894
16173W        W33021  13.011   4.891   3.761  0.2825 -0.0217  0.2885
16174W        W33022  17.491  17.169   4.406 -0.1163  0.1956 -0.0024
16175W        W33023  14.597   7.791  12.876 -0.1019  0.0045  0.0542
16176W        W33024  15.015  14.809  14.809 -0.1918  0.1445  0.0471
16177W        W33025  12.762  14.861   3.531 -0.3456 -0.0054  0.0781
16178W        W33026  12.385   5.618   3.021 -0.0701 -0.0350 -0.0626
16179W        W33027   4.488  16.585   2.639 -0.1031  0.1478  0.1890
16180W        W33028  10.481   7.049   5.130 -0.0328 -0.0808  0.1486
16181W        W33029   9.938  12.780  15.773  0.0293  0.2729  0.0474
16182W        W33030  15.134   4.236  15.086 -0.2034  0.0910  0.1217
16183W        W33031  10.894   4.915   2.689  0.3113  0.1441  0.1450
16184W        W33032  14.662  13.211  14.250  0.0599 -0.0502  0.4441
16185W        W33033  11.543   1.967  12.899  0.0320 -0.2066 -0.2379
16186W        W33034   3.744  11.848  12.363 -0.0500  0.2673 -0.1559
16187W        W33035  16.569  12.044   0.722  0.0607  0.0790 -0.0408
16188W        W33036   8.869   3.609  11.845  0.2052  0.2461  0.1088
16189W        W33037   3.733   5.138   3.040 -0.1941  0.0074 -0.0929
16190W        W33038   5.584   5.168   0.180 -0.0893 -0.2537  0.0192
16191W        W33039   8.979   1.396   0.409  0.2154 -0.0157 -0.0768
16192W        W33040   4.071  17.460  11.756 -0.2431 -0.0599  0.0749
16193W        W33041  12.175   1.189   3.249  0.1314  0.0659  0.0617
16194W        W33042   7.431   6.583   4.962 -0.0411  0.4498  0.1726
16195W        W33043   2.803   6.429   5.075  0.2648 -0.0584 -0.3904
16196W        W33044   2.761   7.430  13.511 -0.0480  0.0692 -0.0582
16197W        W33045   1.004   5.393  13.215  0.1741 -0.1074  0.0567
16198W        W33046   4.136   2.353   1.522 -0.0746 -0.0950  0.1644
16199W        W33047  10.542   8.725  14.554 -0.2132 -0.2833  0.4672
16200W        W33048   8.491   9.159  11.559 -0.1310  0.0099 -0.0399
16201W        W33049   3.677   8.302   1.335 -0.2399  0.1934  0.0373
16202W        W33050   6.967   3.226  13.464 -0.0367 -0.1858  0.4176
16203W        W33051   6.702   8.308   2.394  0.0273 -0.0930 -0.1644
16204W        W33052  13.800  12.805   2.233  0.2169  0.5129 -0.0854
16205W        W33053   2.862  15.968   5.462 -0.0898  0.2283 -0.0625
16206W        W33054  17.207  14.608   0.826  0.0002  0.0669 -0.1256
16207W        W33055   9.375  11.519  14.265 -0.0736 -0.2347  0.0064
16208W        W33056   8.319  10.075   2.319 -0.1161 -0.2817  0.2751
16209W        W33057  17.143  13.458  15.175 -0.1434 -0.0420 -0.2023
16210W        W33058   4.099  16.013   2.016  0.2068  0.0645  0.0365
16211W        W33059  15.060   0.554  11.761  0.2490  0.1148 -0.2261
16212W        W33060   2.962   2.622   0.679  0.0958  0.1743  0.1624
16213W        W33061   9.024  17.204  15.162 -0.0781 -0.0187 -0.1272
16214W        W33062   7.019  13.279  16.154  0.2562  0.3215  0.0635
16215W        W33063   9.736   9.205  13.494  0.2583 -0.0317 -0.3907
16216W        W33064  15.095   4.796   4.969  0.2472  0.4688  0.2908
16217W        W33065  14.176   4.698   6.059  0.3469 -0.0089  0.1303
16218W        W33066   7.413   6.549   2.838  0.0375  0.2187 -0.0002
16219W        W33067  15.997   8.341   0.322  0.1811  0.1050 -0.4797
16220W        W33068   2.693   1.664  16.313  0.1139 -0.3117  0.0328
16221W        W33069  16.661   9.510  15.941 -0.3537  0.0648 -0.0073
16222W        W33070   3.025   3.371   4.242 -0.2043  0.0153 -0.3909
16223W        W33071   3.533   5.598  16.128 -0.1782  0.1485 -0.0390
16224W        W33072  14.000   6.109   0.391  0.0772  0.1405 -0.2704
16225W        W33073  16.895   9.554   1.224  0.0498  0.1962 -0.0095
16226W        W33074  17.112   6.458  15.620 -0.0912 -0.3752  0.1077
16227W        W33075  14.414   5.908   3.124  0.2926 -0.0651 -0.1550
16228W        W33076   3.687  10.531  11.684  0.3516  0.1010 -0.4164
16229W        W33077   2.225   1.227  10.688  0.0803 -0.0126  0.0225
16230W        W33078   6.642   4.352   0.147 -0.2767  0.2774 -0.0186
16231W        W33079  17.199   5.615  13.105 -0.1568  0.0546  0.1158
16232W        W33080  17.486   9.191  13.256 -0.0804  0.0196 -0.0030
16233W        W33081   4.549  11.348  11.556 -0.2110  0.0902 -0.0452
16234W        W33082   2.714   8.010  12.697 -0.1475  0.0746 -0.1811
16235W        W33083   3.855  12.613   5.455  0.1675  0.1236  0.2882
16236W        W33084   5.799   3.037  12.849  0.3724 -0.3638 -0.0320
16237W        W33085   8.001  16.462  14.634  0.0477  0.3067  0.2918
16238W        W33086   4.896   1.733  11.112 -0.0442 -0.1883  0.1468
16239W        W33087   1.770   7.795  15.981 -0.0593  0.0753  0.2192
16240W        W33088  11.887  11.274  15.730  0.2614  0.1401  0.0171
16241W        W33089  13.141  15.887  15.221  0.3460 -0.0120 -0.0668
16242W        W33090   9.612   7.604   1.996  0.0859 -0.3399  0.0243
16243W        W33091  11.179  15.756   0.953  0.0420  0.0033 -0.0690
16244W        W33092   2.007  12.288  15.150  0.1943  0.0499  0.4059
16245W        W33093   5.761  10.567   0.896  0.2780  0.0200  0.0689
16246W        W33094  12.034   1.123  13.328  0.0054 -0.2438 -0.0217
16247W        W33095   3.261  16.086   0.895 -0.2010 -0.1756  0.0524
16248W        W33096  12.479   7.709   1.471  0.0184 -0.2510 -0.2893
16249W        W33097   4.600   6.235  12.360  0.0038 -0.1251 -0.1900
16250W        W33098  12.248   6.016   2.330 -0.1534 -0.2138  0.1178
16251W        W33099   5.533   5.518   4.159  0.1308  0.0150  0.2158
16252W        W33100   6.736  12.407  11.712 -0.1625 -0.2233  0.0441
16253W        W33101   3.811   9.467  14.397 -0.0948  0.2287  0.1947
16254W        W33102   6.627   1.876  11.311 -0.2342  0.0409 -0.2410
16255W        W33103   9.607   8.111  13.063 -0.1648 -0.0184 -0.2035
16256W        W33104  10.894   3.210   1.043  0.0546  0.0943 -0.4611
16257W        W33105  17.109  17.161   3.319  0.1390  0.3221 -0.0384
16258W        W33106  10.224  17.478   0.436  0.0407  0.2269  0.0149
16259W        W33107   8.712  12.260  12.837 -0.1851 -0.0041  0.0972
16260W        W33108  16.805  11.486  13.692  0.0560  0.2536 -0.1684
16261W        W33109  17.265   7.553  10.785 -0.0816  0.1223  0.1613
16262W        W33110   9.826  11.143   0.716 -0.2108  0.1588 -0.2687
16263W        W33111  17.762  12.152   1.532 -0.1505 -0.0436  0.2743
16264W        W33112   4.616  13.838  11.873 -0.2368  0.3595  0.0777
16265W        W33113  17.354  15.142   1.686  0.0507  0.0100  0.1468
16266W        W33114   3.482  10.453  14.549  0.2716  0.1616  0.0986
16267W        W33115  11.715   2.479  16.083  0.0204 -0.1311 -0.0769
16268W        W33116   6.850   1.646   0.187  0.1679 -0.1198  0.3832
16269W        W33117  17.113  16.637   2.389  0.0548  0.0397  0.1854
16270W        W33118   5.281   5.861   4.435 -0.0159 -0.0590 -0.1774
16271W        W33119  17.751   0.955   5.695  0.3567 -0.0644 -0.0328
16272W        W33120   0.101  15.480   1.256  0.1021  0.1679  0.1712
16273W        W33121  15.966   2.903  15.914 -0.0566  0.0352 -0.0060
16274W        W33122  15.376  16.698  13.888  0.0841  0.0858 -0.1771
16275W        W33123   8.792   3.170   0.766  0.2392 -0.0649 -0.2193
16276W        W33124  14.330   2.583   4.328 -0.0585 -0.0074 -0.1819
16277W        W33125   8.219   9.896   3.419  0.0798 -0.1152  0.0237
16278W        W33126  13.512  12.426   2.012  0.5224  0.2134 -0.2206
16279W        W33127   7.147   8.551   2.447  0.0850  0.2107  0.0613
16280W        W33128   5.008   9.517  15.882  0.0706  0.0278  0.1042
16281W        W33129   5.901   3.947  13.448 -0.0700  0.3784  0.2870
16282W        W33130   6.170  11.184   5.142  0.0461  0.1321 -0.0635
16283W        W33131   6.048  11.852   2.209  0.2581 -0.1385 -0.0055
16284W        W33132   4.197   8.753   2.089 -0.0477  0.2851 -0.2200
16285W        W33133   9.333   0.450   5.307  0.0579 -0.2824  0.2472
16286W        W33134   6.233   0.854   2.257 -0.0538  0.1520  0.3192
16287W        W33135   3.785   8.166   5.010  0.1530 -0.0738 -0.1215
16288W        W33136  13.793   5.473  12.917  0.0864  0.0748 -0.2329
16289W        W33137  16.063  14.040   2.145 -0.1640 -0.3245  0.1067
16290W        W33138  14.353   4.541   3.683  0.2950 -0.0048  0.6727
16291W        W33139   8.830   2.637  13.222  0.0860 -0.3516 -0.0225
16292W        W33140   3.192   0.654   3.194  0.0326 -0.1492 -0.3296
16293W        W33141  16.425  16.438   1.950  0.0037 -0.1839 -0.0739
16294W        W33142   2.025  17.724  14.110 -0.1051  0.4012  0.2799
16295W        W33143   9.523   3.688   4.182 -0.0989  0.3308 -0.0156
16296W        W33144   0.537  10.924  15.075  0.0526 -0.2136 -0.0339
16297W        W33145  12.993  16.943  15.318  0.1986 -0.0315  0.1250
16298W        W33146  11.313  14.314   1.317 -0.2483  0.1966  0.0943
16299W        W33147  16.623   4.513  12.601 -0.4806 -0.3008  0.1435
16300W        W33148  12.269   9.385  14.613  0.0634 -0.0817 -0.3313
16301W        W33149   0.040   8.430  12.911 -0.0125  0.1576  0.0214
16302W        W33150  13.530   8.857   3.827  0.0757  0.2233 -0.1770
16303W        W33151   4.314   5.333   1.985 -0.2691 -0.3318  0.1132
16304W        W33152   3.466   9.322   3.716  0.2262 -0.4154  0.0388
16305W        W33153   1.768   1.085  15.909  0.1899  0.0149  0.0494
16306W        W33154  12.337   2.608   0.950  0.1965  0.1097 -0.2425
16307W        W33155  11.900   4.542  14.906 -0.0447  0.1261 -0.1978
16308W        W33156  17.104  11.984  12.827 -0.5551 -0.4470  0.0776
16309W        W33157   3.675  10.342  13.581  0.3319  0.1589  0.0875
16310W        W33158   8.512   0.198   0.884  0.1955  0.3390 -0.0718
16311W        W33159   5.426   0.475   1.422 -0.2850 -0.0830  0.1075
16312W        W33160  12.074   0.507   2.175  0.2774  0.0079  0.2771
16313W        W33161  15.542   3.161   4.945 -0.1395 -0.0603  0.2207
16314W        W33162  16.271   4.217   1.612  0.0318  0.2769  0.0825
16315W        W33163   7.706   8.235  13.787 -0.1313 -0.0758 -0.1161
16316W        W33164  15.802  16.711  14.721  0.1164 -0.1715 -0.2721
16317W        W33165   0.054  14.631  15.962  0.1845 -0.0710  0.3461
16318W        W33166  14.746   6.904   1.194 -0.1941  0.0339  0.0041
16319W        W33167  16.768  14.251  12.586 -0.0068 -0.1219 -0.0792
16320W        W33168  11.549   7.654   3.116  0.2766  0.0009  0.0425
16321W        W33169   6.498   0.920   0.604  0.1076  0.1979  0.4332
16322W        W33170   0.866   0.844   4.963 -0.2345  0.2702  0.2349
16323W        W33171  12.938  16.321  13.043  0.0464 -0.2519  0.2806
16324W        W33172   3.739  14.646   3.611  0.1195 -0.1105  0.0620
16325W        W33173   9.553  15.504   6.267 -0.1266 -0.2200 -0.0247
16326W        W33174   4.984   6.468   3.802  0.0994  0.1758  0.0783
16327W        W33175  15.974  12.519   2.699  0.0147  0.2219  0.2782
16328W        W33176   4.906   8.162  14.803  0.0522 -0.2987 -0.5836
16329W        W33177   6.339   5.860  14.808  0.1899 -0.0391  0.3302
16330W        W33178   7.820   2.585  13.696 -0.0112  0.0765  0.1267
16331W        W33179  15.686  11.581   0.700 -0.0943  0.2077 -0.0478
16332W        W33180  12.497   5.905  15.871  0.0169  0.2738 -0.0410
16333W        W33181  13.148   2.767  15.631 -0.0923 -0.2756 -0.2534
16334W        W33182  13.691  12.879  12.717 -0.1648 -0.3027  0.2635
16335W        W33183   6.147   7.051  13.045  0.1280 -0.3784 -0.1039
16336W        W33184   9.747  10.722   4.014 -0.2637  0.0401  0.1563
16337W        W33185   7.010   5.752  11.963  0.0444 -0.0434 -0.0912
16338W        W33186   2.006  14.198   3.933 -0.1110  0.2999  0.1343
16339W        W33187  14.605   4.794  13.527  0.1980  0.1100 -0.3397
16340W        W33188  13.719   4.953   1.352 -0.1385  0.0445  0.0204
16341W        W33189   0.342   0.259   3.636  0.1341 -0.1103 -0.2420
16342W        W33190  13.637   7.479   2.382  0.1464 -0.1069  0.0539
16343W        W33191  15.884  13.036  13.302  0.0583  0.1490 -0.0956
16344W        W33192   2.777   1.151  15.249 -0.0593  0.0173 -0.2052
16345W        W33193   0.689   2.813  11.776 -0.1459 -0.1937  0.1636
16346W        W33194  17.591  15.084   1.271  0.0138 -0.0491  0.2777
16347W        W33195  16.675   4.848  14.117 -0.4591 -0.0936  0.1917
16348W        W33196   0.499   2.210  13.093 -0.2141 -0.1350  0.0713
16349W        W33197  11.521  14.493  15.810 -0.2066 -0.1182 -0.1633
16350W        W33198   0.345   3.934   5.274  0.0571 -0.3232 -0.3448
16351W        W33199  12.706   2.289  14.499 -0.0928 -0.0858 -0.1148
16352W        W33200   9.953   8.535   0.781 -0.0561  0.1313  0.2611
16353W        W33201  11.769  16.623  13.778  0.0831 -0.0159  0.1294
16354W        W33202   2.239   1.624   5.279 -0.0084 -0.0520 -0.0748
16355W        W33203  15.600   1.007  11.485  0.0735  0.0256 -0.0072
16356W        W33204  16.148   4.805   1.795 -0.1727  0.0549 -0.0217
16357W        W33205   8.890  13.848   3.536 -0.1647  0.0356  0.0420
16358W        W33206   4.416   9.586  11.150 -0.3675 -0.5086 -0.0917
16359W        W33207  17.409   0.294   2.377  0.1990 -0.0114  0.0157
16360W        W33208   2.858  11.399   2.519  0.1884 -0.2389 -0.0605
16361W        W33209  16.280  10.493   1.708 -0.0635 -0.0797 -0.3108
16362W        W33210   6.025   2.499  12.935 -0.1683  0.0746 -0.0742
16363W        W33211   9.803  16.626   0.269 -0.0983  0.2182 -0.1550
16364W        W33212   3.677   7.202   0.527 -0.1045 -0.0955  0.0405
16365W        W33213  13.144  13.563  12.175  0.0216 -0.0454 -0.2295
16366W        W33214   8.271   1.194  14.606 -0.1062 -0.2243 -0.1831
16367W        W33215  16.998   2.579  14.186  0.1141 -0.2479  0.0761
16368W        W33216  12.946  17.071  12.556  0.2803 -0.1664  0.1780
16369W        W33217  16.033   2.329  14.177 -0.0842 -0.0198 -0.1483
16370W        W33218  16.745  11.512  11.257 -0.0717 -0.1038 -0.0726
16371W        W33219   8.144  12.240   2.865  0.1632 -0.1735  0.1044
16372W        W33220  10.949   0.687   5.095  0.3169 -0.2306  0.2480
16373W        W33221   8.532   3.872   4.177 -0.1211  0.1473 -0.2065
16374W        W33222  15.675   0.051   3.184 -0.0803  0.3678 -0.0370
16375W        W33223   5.887   0.744   2.704  0.2667 -0.2566  0.0028
16376W        W33224   2.926   3.281   0.013 -0.0131  0.0618 -0.1817
16377W        W33225   3.097  16.949   1.301  0.3753  0.1439  0.1767
16378W        W33226  10.275  16.718  14.452  0.0741 -0.1910 -0.1039
16379W        W33227   6.467   9.271  12.645  0.0897 -0.2838 -0.1253
16380W        W33228   7.724  15.468   2.395 -0.0520  0.0119  0.2530
16381W        W33229  12.040  10.791   4.696 -0.0057 -0.1312  0.3031
16382W        W33230   9.806  14.489  13.198  0.1974  0.0323 -0.0273
16383W        W33231   7.879   6.986   2.211  0.4290 -0.1321  0.0797
16384W        W33232   4.613   8.254  12.830  0.1001 -0.0851 -0.1393
16385W        W33233  11.680   4.228   1.168  0.1418 -0.2425 -0.1753
16386W        W33234  13.819   8.328  13.984  0.0762 -0.3298  0.0196
16387W        W33235   3.367   1.837   5.327 -0.2923 -0.3931 -0.0912
16388W        W33236   9.147  13.715   3.104  0.1495  0.0077 -0.0367
16389W        W33237   1.592   1.018  15.482  0.3584 -0.0617  0.2751
16390W        W33238   3.447   2.864   2.024  0.2663  0.3544 -0.0407
16391W        W33239  16.126  10.064   2.149  0.1127  0.0106  0.0170
16392W        W33240  13.682  14.695  13.906  0.2254  0.0439  0.2383
16393W        W33241  16.099  15.014   2.880  0.0347  0.0998  0.1887
16394W        W33242   4.652  13.261   5.318  0.1691  0.0333 -0.1490
16395W        W33243   6.298  12.994   2.327  0.1308 -0.2366  0.2733
16396W        W33244   1.270   3.983  14.104 -0.0808  0.0075  0.0268
16397W        W33245   5.296  14.951  12.088  0.1566 -0.0083  0.0668
16398W        W33246  12.046   0.634  14.406 -0.0077 -0.1774  0.1293
16399W        W33247   0.550   3.187  15.146 -0.3040 -0.1959  0.1572
16400W        W33248  11.892   8.604   4.861 -0.0049  0.1936 -0.0043
16401W        W33249  14.301   5.066   3.415 -0.0545 -0.1135 -0.1533
16402W        W33250   9.619  11.983   6.040  0.0463 -0.0519  0.2401
16403W        W33251  17.030  13.646   1.844  0.4284 -0.2830  0.0089
16404W        W33252   0.886   6.898   1.258 -0.2623  0.0937 -0.0821
16405W        W33253   2.953   0.904   4.208  0.1429  0.0997  0.0804
16406W        W33254  17.513   0.016   4.836 -0.0404  0.0176 -0.0941
16407W        W33255   0.276   1.423  14.575 -0.1527  0.2228 -0.2323
16408W        W33256   6.745   1.536   2.945  0.2184  0.1395 -0.0333
16409W        W33257   7.964  15.752   4.456 -0.0997 -0.0344 -0.3172
16410W        W33258  15.735   3.776  14.196  0.2758 -0.0343  0.0587
16411W        W33259  16.952   0.420  15.166  0.0975 -0.0776 -0.2145
16412W        W33260   7.607  11.983  13.523  0.1946  0.1679 -0.1080
16413W        W33261   7.030  16.297  11.430  0.1628 -0.2179  0.0468
16414W        W33262   5.764   6.292  15.805 -0.1232  0.3540  0.3801
16415W        W33263   0.706   1.926   4.661  0.0292  0.1575 -0.1549
16416W        W33264  12.397  12.473  14.497  0.1411 -0.1801  0.2455
16417W        W33265  11.663  12.857  16.449 -0.0766 -0.1746 -0.1308
16418W        W33266   1.478   5.681  15.691 -0.0724  0.0605  0.3215
16419W        W33267  12.998  13.762  14.755 -0.0694 -0.0339  0.0807
16420W        W33268  13.231   7.282   4.856 -0.1310 -0.2709  0.0930
16421W        W33269  12.416  11.033  11.928 -0.0951 -0.1789  0.2638
16422W        W33270  11.221  17.490  16.339 -0.1245  0.0594  0.0026
16423W        W33271  13.186   4.060   3.991  0.1841 -0.0187  0.0328
16424W        W33272   4.340  14.144   2.170 -0.1038 -0.1206 -0.0760
16425W        W33273  13.777  15.849   2.017  0.4827  0.1490  0.0903
16426W        W33274   7.144   7.153  12.030  0.1465 -0.1286  0.0568
16427W        W33275   0.983  16.799  12.153 -0.1735 -0.0797  0.1435
16428W        W33276   9.608  10.926   5.035  0.2157  0.0811  0.0742
16429W        W33277  12.627   6.990  15.710  0.0079  0.2058 -0.2727
16430W        W33278   7.966   1.178   4.927 -0.1052  0.0903  0.1669
16431W        W33279  11.801   5.149  13.328 -0.0469 -0.2605 -0.3109
16432W        W33280  11.806   4.417  16.065 -0.0665 -0.1318  0.0631
16433W        W33281   2.458  12.763   5.916  0.0604  0.3926 -0.0983
16434W        W33282  16.481  10.935   5.018 -0.2174  0.2123 -0.1597
16435W        W33283  14.947   3.239   2.045  0.5607 -0.1540  0.3103
16436W        W33284   4.952  11.349  14.225 -0.0356  0.3695 -0.0323
16437W        W33285  14.102   2.480   1.529 -0.1279 -0.0133  0.1064
16438W        W33286   1.711  15.203  11.613  0.3293  0.2732  0.1135
16439W        W33287  17.090  14.291  16.198  0.1084  0.0463 -0.0276
16440W        W33288  14.067  11.991   1.724 -0.2377  0.0400  0.3569
16441W        W33289   3.276  14.428   2.543  0.3396  0.0749 -0.1306
16442W        W33290   8.774  14.138   0.093 -0.0725 -0.0124 -0.0759
16443W        W33291  14.395  11.463   3.695  0.0391 -0.1062 -0.1436
16444W        W33292   1.792   2.060  14.417  0.2395 -0.0474 -0.1388
16445W        W33293   1.012   3.538  13.187  0.1071  0.2122 -0.2616
16446W        W33294  16.452   5.060   3.216  0.2115 -0.3664 -0.0023
16447W        W33295   0.680  16.015  13.387 -0.0283 -0.0450 -0.2163
16448W        W33296  14.790   9.672  15.339 -0.0732  0.3035 -0.0069
16449W        W33297  13.446   6.983  16.061 -0.0188  0.1149  0.1211
16450W        W33298  17.552  17.551   5.683  0.0950  0.1760  0.1104
16451W        W33299   8.888   3.749   4.514  0.0251 -0.3096  0.1923
16452W        W33300   0.700   9.641   2.085 -0.1245  0.1708 -0.0799
16453W        W33301   5.153   8.203  12.507 -0.1093  0.1537 -0.3297
16454W        W33302   1.705   3.667   3.936 -0.0241  0.0013 -0.2769
16455W        W33303   6.400   2.591   4.969 -0.2629 -0.1385 -0.0830
16456W        W33304   1.596  14.912   3.358  0.1790 -0.1323 -0.0275
16457W        W33305   8.803   3.366  13.589 -0.0576 -0.0911 -0.1025
16458W        W33306   3.533   1.287  12.095 -0.2350 -0.3103  0.3246
16459W        W33307   3.987  16.300  14.710 -0.0992 -0.1262  0.0086
16460W        W33308  10.500   2.751   0.697  0.2571 -0.1624  0.0550
16461W        W33309   4.582   2.979   2.898 -0.1120 -0.0424 -0.3668
16462W        W33310   9.036   7.589  13.353 -0.0683 -0.2308 -0.0714
16463W        W33311  17.610   8.316   0.607  0.0582 -0.1455 -0.3595
16464W        W33312  11.769   1.352  11.200  0.0362  0.1813 -0.0925
16465W        W33313  10.342   6.564  15.520 -0.2266  0.0824  0.1796
16466W        W33314  10.797   5.199  14.790 -0.2990  0.2160  0.2755
16467W        W33315  13.441   3.961  13.985 -0.1406 -0.3967 -0.0286
16468W        W33316   6.058  11.235  15.935 -0.2469  0.3248  0.0803
16469W        W33317   2.995   3.715   1.658  0.0333  0.0470  0.0735
16470W        W33318  12.674  11.157   3.556 -0.0125  0.0371  0.2925
16471W        W33319   1.096   8.742  13.171 -0.1643 -0.0005 -0.0312
16472W        W33320   1.906  11.001   4.172 -0.1639 -0.1885  0.3026
16473W        W33321  16.033  17.756   4.652  0.0622 -0.2837  0.0766
16474W        W33322   5.355   0.841  15.602  0.2258 -0.1543 -0.1964
16475W        W33323  12.162  13.919   3.639  0.1592 -0.0614 -0.0838
16476W        W33324   8.756   9.076  11.056 -0.2774 -0.1721 -0.0701
16477W        W33325  17.653   2.922  13.429  0.1036 -0.0769 -0.3509
16478W        W33326   7.909  14.816  12.364  0.1304 -0.1938  0.0347
16479W        W33327  15.503  14.954   0.623  0.1479 -0.0733 -0.2059
16480W        W33328  15.448  14.838  11.686 -0.1402  0.1915 -0.0284
16481W        W33329   5.030   6.772  15.416  0.0678 -0.1780  0.2723
16482W        W33330  13.417   9.126  12.341 -0.0014 -0.0758  0.2040
16483W        W33331  17.523  15.237  14.183  0.1065  0.1685 -0.0459
16484W        W33332   8.967   8.384  11.668 -0.1413  0.0474 -0.0801
16485W        W33333   0.375  13.841  12.495 -0.1580 -0.1464 -0.1570
16486W        W33334  16.885   6.286  14.544 -0.0312 -0.1324  0.4039
16487W        W33335   1.292  10.468   2.002 -0.0594 -0.0074 -0.1030
16488W        W33336   0.616  10.406   0.599  0.2864 -0.0454  0.0823
16489W        W33337   3.972  13.689   1.432  0.1997  0.2588 -0.0313
16490W        W33338   9.942  15.014   5.325 -0.2398  0.1383 -0.1111
16491W        W33339  10.161  14.390   3.859 -0.3156 -0.3724  0.3283
16492W        W33340  17.127   0.942   1.717  0.0563  0.0598 -0.0017
16493W        W33341   4.975   5.703  16.281 -0.3092 -0.0866  0.0402
16494W        W33342   5.597   2.504  13.747 -0.1118 -0.1820 -0.0851
16495W        W33343   5.356  15.904  12.372  0.1878  0.1495 -0.0841
16496W        W33344   4.846  17.828   4.357 -0.1074  0.1162 -0.4832
16497W        W33345  16.956   9.313  12.749  0.3395  0.1923  0.1007
16498W        W33346   8.029   2.087   0.988  0.0645 -0.1779 -0.1005
16499W        W33347   4.885   9.558   1.772 -0.0593  0.1173  0.0707
16500W        W33348  12.783  15.045  15.103  0.1264  0.1411 -0.0735
16501W        W33349   0.705  14.741   3.028  0.0553 -0.1093  0.2373
16502W        W33350   0.415  17.021  14.369 -0.0301  0.0784 -0.0972
16503W        W33351  13.476   6.465   0.833  0.0037  0.3215 -0.2044
16504W        W33352   6.677  14.815  12.705  0.3342  0.0112  0.1676
16505W        W33353  14.561  17.249  12.552  0.0230  0.2290 -0.0623
16506W        W33354   6.078  11.150  14.909  0.0215 -0.1190 -0.0129
16507W        W33355   2.007   5.028   1.777 -0.0474 -0.1669  0.1729
16508W        W33356  15.998   3.312   0.079  0.1194 -0.2214 -0.2039
16509W        W33357  16.937   8.239   0.054  0.0544  0.0155 -0.0195
16510W        W33358   4.978  15.950   3.231 -0.0838  0.1576  0.1806
16511W        W33359   4.738   5.513  12.462 -0.1277  0.0158  0.3739
16512W        W33360  13.441   5.888   2.719 -0.0295 -0.0707 -0.0692
16513W        W33361   8.450  12.555   0.424  0.2872 -0.1293 -0.1460
16514W        W33362   4.117   2.738  16.414 -0.0047 -0.0393  0.0500
16515W        W33363  10.988  15.354  12.059 -0.0663 -0.1972 -0.1620
16516W        W33364  12.289  11.815  16.451  0.0613  0.2052  0.1705
16517W        W33365   4.441  12.757   2.364  0.0099 -0.1515  0.1207
16518W        W33366   5.162   0.535  11.950  0.0453 -0.2454  0.0435
16519W        W33367   2.473  13.203   4.269  0.0734  0.0301 -0.2100
16520W        W33368   4.955   2.276  12.871 -0.2442  0.0089 -0.4227
16521W        W33369  14.501   7.143  13.564  0.0401 -0.1085  0.1115
16522W        W33370   2.627   8.667  15.497  0.1602 -0.0017  0.0531
16523W        W33371  10.103   8.583  12.308  0.2172  0.0475 -0.2193
16524W        W33372  16.410   8.091   0.379 -0.3704 -0.2099  0.0566
16525W        W33373  12.261   4.253  11.831 -0.0086 -0.0717 -0.1456
16526W        W33374  17.788  11.999   4.342  0.3821 -0.1688  0.1676
16527W        W33375  13.480   3.104   5.290  0.0945  0.3207 -0.0830
16528W        W33376  13.955  11.090   4.641  0.3751 -0.0985 -0.0409
16529W        W33377   2.963  14.646  13.903 -0.1042  0.2683  0.1974
16530W        W33378   3.705   3.442   4.137 -0.0715 -0.1075 -0.1303
16531W        W33379   8.058   3.828   3.418 -0.0999 -0.0973 -0.0087
16532W        W33380  10.914   7.204   4.804 -0.0086 -0.3298 -0.1230
16533W        W33381  10.790  13.091   0.701 -0.0464  0.2091 -0.1478
16534W        W33382   4.408  10.028  11.478  0.2556  0.0144 -0.1825
16535W        W33383  17.617  14.565  16.316  0.1053 -0.0008 -0.3504
16536W        W33384  17.228  17.792  16.119  0.2895 -0.0112 -0.2671
16537W        W33385   3.511  10.783  13.737 -0.2522 -0.6321 -0.1331
16538W        W33386  12.123  15.421  14.656  0.1860 -0.1304 -0.1699
16539W        W33387  12.048   5.071   3.534 -0.0210  0.1236  0.0231
16540W        W33388  13.355   1.707  13.069 -0.0349 -0.2640 -0.0919
16541W        W33389  16.947   7.326   0.273 -0.3721  0.6092  0.2100
16542W        W33390  11.413  17.834  13.531  0.0858 -0.0694  0.1390
16543W        W33391   1.143  11.941  11.318 -0.1656  0.2108 -0.1736
16544W        W33392  14.019   3.236  15.657  0.1192 -0.2524  0.1703
16545W        W33393  11.753   3.943   3.691  0.2558  0.1287  0.0051
16546W        W33394   2.658  17.547   3.563 -0.0721  0.3981  0.1446
16547W        W33395   1.116   2.035   0.742 -0.2433 -0.1631 -0.1979
16548W        W33396  16.390   1.526  12.938 -0.0382 -0.0254 -0.1735
16549W        W33397  14.712  17.852  14.150 -0.0163 -0.2468  0.0308
16550W        W33398  15.036   4.875   2.722 -0.1601 -0.0331 -0.0595
16551W        W33399  15.555   1.443  15.637  0.1388  0.0258  0.2066
16552W        W33400  15.584   3.480   2.596  0.1180  0.1567 -0.1038
16553W        W33401   8.734   0.267   4.789  0.0833 -0.3854  0.0573
16554W        W33402   8.532  15.965  14.381 -0.1139  0.0823 -0.0183
16555W        W33403   2.467  14.896  14.918  0.0699 -0.1594  0.0711
16556W        W33404   5.655  12.447   0.669  0.6210 -0.0855 -0.1786
16557W        W33405  17.558   8.330   1.184 -0.3076  0.1891  0.3229
16558W        W33406  13.316   9.774  13.701  0.0320 -0.2178  0.1829
16559W        W33407   8.317  12.864  12.402 -0.3448 -0.2392 -0.6009
16560W        W33408   3.232   0.297   5.287 -0.1161  0.1434 -0.2251
16561W        W33409  10.651  17.472  15.045 -0.3299  0.0974  0.4298
16562W        W33410   4.480  15.122   4.688  0.2334  0.1814  0.2469
16563W        W33411   5.314  17.413   3.389  0.0883  0.0675 -0.0387
16564W        W33412   0.432   4.131  16.375  0.0512  0.1407 -0.0897
16565W        W33413  10.180   2.691   2.642 -0.0284  0.1556 -0.1606
16566W        W33414   6.660  12.369  12.676 -0.1365 -0.1323 -0.2521
16567W        W33415  12.711   8.238   3.568 -0.2616 -0.1711 -0.0029
16568W        W33416  12.714   3.753  11.152 -0.1047  0.0154 -0.1662
16569W        W33417   0.444  12.147  15.288  0.1380  0.1095  0.0465
16570W        W33418   6.839   1.119   5.152 -0.1136 -0.0598 -0.0311
16571W        W33419  16.047   6.335  14.739 -0.3895  0.0263  0.0241
16572W        W33420  17.069   6.504  13.046  0.0523 -0.0864  0.0606
16573W        W33421  14.095   1.739   2.642  0.1080  0.0044 -0.1386
16574W        W33422   9.665   7.854   4.159 -0.0816  0.1651  0.2948
16575W        W33423   0.703   9.374   4.200  0.3674  0.1448 -0.1391
16576W        W33424   5.310  13.661   4.905 -0.0164  0.0523  0.2570
16577W        W33425   4.414  17.136   4.699  0.2023  0.0494  0.0457
16578W        W33426  10.089   7.634  12.497  0.3037 -0.1531  0.3136
16579W        W33427  10.223  17.217  16.465  0.0431 -0.1030 -0.0001
16580W        W33428  17.421  10.347  14.843 -0.2347  0.2015 -0.0141
16581W        W33429   0.100  16.474   1.567 -0.2092 -0.0369 -0.2823
16582W        W33430  10.453  17.755  14.552 -0.1371 -0.1390  0.1516
16583W        W33431  11.876  12.429  11.501 -0.1192 -0.0167 -0.1926
16584W        W33432   4.352   7.181  12.803 -0.4000  0.2180 -0.0500
16585W        W33433   9.808   0.246  14.833 -0.0227  0.0737  0.0442
16586W        W33434  15.729   5.802   4.177  0.1309 -0.0492  0.0983
16587W        W33435   4.885  17.411   6.357 -0.0447  0.2941  0.0781
16588W        W33436  12.341   7.102   4.186 -0.2634 -0.1309 -0.2100
16589W        W33437  10.602  15.611  12.337  0.0042  0.0818  0.1032
16590W        W33438  12.803  10.609  14.313  0.0057  0.1068 -0.0487
16591W        W33439  13.969   1.496  14.870 -0.0086  0.1899  0.2044
16592W        W33440   2.160  10.395  16.373  0.1561 -0.2385  0.0006
16593W        W33441   1.825  13.307  11.384 -0.1972 -0.2947  0.2834
16594W        W33442  15.133   7.358  14.937 -0.1980 -0.1325  0.1522
16595W        W33443  16.587  17.145   2.660 -0.1180 -0.3019 -0.1282
16596W        W33444   1.423   8.601   3.329  0.0325  0.1254 -0.0654
16597W        W33445  10.512   6.951   1.079 -0.2246 -0.0047 -0.1053
16598W        W33446   3.830  13.347  12.166  0.1595 -0.1855  0.1194
16599W        W33447   9.977   6.705  12.432 -0.0409  0.0429  0.0833
16600W        W33448   3.585  13.157   4.233  0.0392  0.3186  0.3949
16601W        W33449   3.190   4.417   6.093 -0.1809 -0.0651 -0.3125
16602W        W33450  14.079   7.321  14.950 -0.2099 -0.0568  0.0989
16603W        W33451  15.792   0.635  14.334  0.1192  0.1477  0.1453
16604W        W33452  15.396   2.957   2.294  0.2581 -0.1136 -0.3325
16605W        W33453  17.204  17.872  15.205 -0.1444  0.0518 -0.1346
16606W        W33454  17.300   8.937   3.789 -0.1538 -0.0576  0.1939
16607W        W33455   2.390  15.326   0.607  0.1942  0.2246  0.0912
16608W        W33456   3.861   8.991   3.892 -0.1610 -0.0226 -0.1408
16609W        W33457   2.539  16.580  13.612  0.1628 -0.0700  0.2952
16610W        W33458   1.855   7.685  14.002  0.1533 -0.0965  0.2347
16611W        W33459  12.855  17.753   3.197  0.2848 -0.3710 -0.1108
16612W        W33460   5.607  15.866   4.275 -0.0682  0.0020  0.2761
16613W        W33461   0.093  13.347  10.213  0.0317 -0.0259  0.0280
16614W        W33462   5.240   6.622   2.844  0.2182  0.1339  0.0679
16615W        W33463   6.156  14.897  16.353 -0.2073  0.0310  0.4333
16616W        W33464   1.390  12.854  11.690 -0.2562 -0.2377  0.0535
16617W        W33465  16.042   7.069   0.662  0.0862 -0.0903  0.0601
16618W        W33466  11.014  13.912   2.572 -0.1942 -0.1480 -0.1086
16619W        W33467  15.230  17.333   4.099 -0.1485 -0.0139  0.0954
16620W        W33468  16.220   8.979  13.272 -0.2026  0.2976 -0.0313
16621W        W33469  11.729   1.436  14.527  0.0999  0.0171  0.1015
16622W        W33470  17.552   7.771   4.449  0.0730 -0.0635  0.2323
16623W        W33471   3.362   8.141  14.602  0.0349  0.0137  0.4649
16624W        W33472   9.305  14.543   3.237 -0.0065  0.2565  0.2110
16625W        W33473   3.536   7.038  13.304 -0.2201 -0.4160  0.0905
16626W        W33474   8.053  11.035  10.671 -0.1645  0.1457  0.0159
16627W        W33475   8.911   3.292  14.797 -0.1705  0.0489 -0.1187
16628W        W33476  11.613   3.474   1.895  0.1981  0.0389  0.3358
16629W        W33477   3.638   5.347   3.845 -0.0954  0.1283 -0.0294
16630W        W33478  11.516  17.276  15.066  0.0866 -0.2186 -0.3860
16631W        W33479   9.389   6.738   4.695 -0.0077 -0.0887  0.2137
16632W        W33480  10.243  11.798   3.538  0.1382 -0.0181 -0.1606
16633W        W33481   9.645   1.686   2.059  0.1273 -0.3431 -0.0967
16634W        W33482  13.598   3.285   4.573  0.0092 -0.0425  0.1608
16635W        W33483   5.475  15.831  12.998  0.1211 -0.1466  0.0235
16636W        W33484  15.848  17.187   2.499  0.0547  0.1185  0.1116
16637W        W33485  13.168   0.750  15.040 -0.0794  0.0118  0.4113
16638W        W33486   5.530   7.633  14.092 -0.1935  0.1902 -0.1573
16639W        W33487  12.629   2.971   0.733  0.0155  0.0392  0.1149
16640W        W33488  16.420   2.330  13.273 -0.1884  0.0460 -0.2269
16641W        W33489   9.496  13.460   1.183  0.0655  0.1983  0.1762
16642W        W33490   3.604   9.606   2.039  0.0295 -0.3066 -0.0532
16643W        W33491  16.221   1.517   3.526 -0.1499 -0.1011 -0.1164
16644W        W33492   0.682  11.330   0.949  0.2260  0.0872 -0.1067
16645W        W33493   3.378  10.549  10.636 -0.2278 -0.1937 -0.2041
16646W        W33494  14.696   5.598  14.841 -0.3242  0.1766  0.1016
16647W        W33495   4.014   3.849  14.098  0.0678 -0.1419 -0.2195
16648W        W33496   4.726  11.149   2.818  0.1665 -0.0449  0.4065
16649W        W33497   9.153  12.411  13.836 -0.0147  0.2424 -0.0570
16650W        W33498   4.129  11.199  15.302  0.1861 -0.0218 -0.1917
16651W        W33499   1.550   2.995   5.661 -0.2050  0.3234  0.1925
16652W        W33500   0.463  17.834  14.497  0.1089  0.1820  0.0930
16653W        W33501   4.856   4.076   4.592  0.1207 -0.2292  0.1605
16654W        W33502  14.964  16.589   0.718 -0.0715 -0.2711  0.2339
16655W        W33503  17.866  16.963   3.111  0.0973 -0.0869 -0.1268
16656W        W33504   3.070  13.342  12.630 -0.2046 -0.0775 -0.3185
16657W        W33505  12.987   0.912  13.097  0.1477  0.0801 -0.1174
16658W        W33506   0.217  13.473  10.785  0.1099 -0.0713  0.0825
16659W        W33507   9.480   3.813  13.257  0.0856 -0.3873  0.2272
16660W        W33508   8.045   0.910   1.922 -0.0793  0.1321 -0.0074
16661W        W33509   9.180  15.772   1.478  0.1867  0.0498  0.0839
16662W        W33510  12.744  15.809  14.169  0.1301 -0.3770  0.1418
16663W        W33511  11.508  16.972  14.209  0.0241 -0.1035  0.0470
16664W        W33512  13.001   8.718  11.702 -0.1350  0.1092  0.2430
16665W        W33513   0.614  17.744  13.938  0.0392  0.5111 -0.3915
16666W        W33514   0.064  15.739   0.171 -0.1759 -0.2125  0.1372
16667W        W33515  16.628  15.873   3.671 -0.0335 -0.4705  0.0597
16668W        W33516  15.544  11.414   3.859  0.2094 -0.0684  0.0351
16669W        W33517   5.036  17.071   1.706 -0.1717  0.3071 -0.0897
16670W        W33518  15.011   5.905   4.925 -0.1724  0.0802  0.0441
16671W        W33519   0.644  17.871  11.517 -0.2247  0.0512 -0.0907
16672W        W33520  11.363   5.555   3.856 -0.0928 -0.0088 -0.1157
16673W        W33521  12.934  11.752  12.935  0.0215  0.1227 -0.0095
16674W        W33522   0.279   0.488   4.091  0.1536  0.1107  0.0162
16675W        W33523  12.892   0.091  13.510  0.1398 -0.2304  0.2690
16676W        W33524  11.509  10.319   1.483  0.0749 -0.0788  0.1846
16677W        W33525   0.820  15.902   2.403 -0.4369 -0.1933  0.0631
16678W        W33526  16.864   4.369  11.668  0.2276 -0.1818 -0.0352
16679W        W33527  16.626  16.682   2.448 -0.0833  0.0139  0.0728
16680W        W33528  17.085   4.215  12.169 -0.0480 -0.0557  0.0104
16681W        W33529  13.178   9.152   0.104  0.0061  0.2699  0.1301
16682W        W33530  15.695  17.615  13.223  0.2184  0.2772 -0.2663
16683W        W33531  15.494  11.391  11.176 -0.0315  0.1891  0.1899
16684W        W33532  15.237  17.605  13.954  0.1791 -0.0650  0.0657
16685W        W33533  12.752   9.678   2.397 -0.0858  0.0510 -0.0402
16686W        W33534   4.636   7.957  12.248  0.1393  0.0911 -0.1920
16687W        W33535   5.416  17.052  11.309  0.3291  0.2014  0.3391
16688W        W33536  15.800  12.515  14.245 -0.0252  0.1489 -0.2861
16689W        W33537   6.519   8.221   1.104  0.0149  0.0072  0.2093
16690W        W33538   4.056  12.822  16.202 -0.2731 -0.2160  0.1809
16691W        W33539  11.398   7.494   4.508  0.0630 -0.1511  0.1100
16692W        W33540  15.165   1.495  12.573  0.0197  0.0279  0.5218
16693W        W33541  15.519   6.835   3.302 -0.0634  0.2420  0.1598
16694W        W33542  14.183  13.220  13.980 -0.2502  0.0044  0.0134
16695W        W33543  12.476   9.817  15.461 -0.1059 -0.1663  0.1178
16696W        W33544   4.921   7.760  15.563  0.1001  0.1594  0.0769
16697W        W33545   3.807   0.635  14.889 -0.0142 -0.0793 -0.2549
16698W        W33546   5.453   4.372  14.919  0.2746 -0.1782  0.2504
16699W        W33547  11.505  15.229  12.935 -0.2015 -0.6688 -0.1671
16700W        W33548  13.993   8.737  13.586  0.1554  0.1412 -0.3973
16701W        W33549  11.928   5.555   1.310  0.1598 -0.0192  0.0504
16702W        W33550  11.420   9.904  12.148  0.1285 -0.1995 -0.0778
16703W        W33551  16.488   8.075  16.357 -0.1806  0.1357 -0.3072
16704W        W33552  12.947   7.579  13.801 -0.2006  0.1773  0.1572
16705W        W33553   4.116   0.671  13.175 -0.1243  0.0796  0.1405
16706W        W33554   7.669   6.945   2.740 -0.0115  0.0902  0.1875
16707W        W33555  15.227  15.089   4.095 -0.0586 -0.3414  0.2391
16708W        W33556   8.195   8.175   1.558 -0.0194 -0.1589 -0.3222
16709W        W33557   0.012  17.221   5.688  0.3019  0.1602  0.0704
16710W        W33558   0.273   1.962  11.290 -0.0305  0.0059  0.0224
16711W        W33559   9.680  16.057  11.259  0.1026  0.0288  0.4789
16712W        W33560   7.588  15.284  13.109 -0.1672 -0.0005  0.0354
16713W        W33561  14.542   3.237   5.034  0.0138 -0.3785 -0.2483
16714W        W33562  17.766  10.438  12.618 -0.1056  0.1710 -0.0439
16715W        W33563  12.190   0.635   4.392 -0.0060  0.0317  0.1841
16716W        W33564   0.050   4.489  14.294 -0.0736 -0.0333  0.1196
16717W        W33565   3.592  13.688   6.518  0.3348 -0.1194 -0.0919
16718W        W33566   4.727   6.646   5.454 -0.0445 -0.0810 -0.3406
16719W        W33567   7.819   5.093   2.915 -0.0050 -0.0519  0.2307
16720W        W33568  10.496   7.184  11.730 -0.1672 -0.0400  0.0652
16721W        W33569  11.190   3.541  14.722  0.1401 -0.2241 -0.1280
16722W        W33570   8.554   1.876  14.068 -0.2719 -0.3591  0.0485
16723W        W33571  15.905   0.753  13.094  0.4187 -0.2128 -0.2034
16724W        W33572   8.642  11.575   4.094  0.1161 -0.0047  0.1171
16725W        W33573   3.547  11.047  12.614  0.0150 -0.1769  0.1370
16726W        W33574   6.533  14.875   3.504  0.2593  0.2860 -0.0487
16727W        W33575  13.356  17.044  14.590  0.1108  0.0883  0.0773
16728W        W33576   4.723   7.113  14.481  0.1674 -0.1015 -0.1232
16729W        W33577   4.835   7.576  11.433 -0.2095  0.0468  0.0738
16730W        W33578   0.903  15.407   0.151 -0.1434  0.0958 -0.0487
16731W        W33579  10.087   0.292  11.770  0.1122  0.1733 -0.2793
16732W        W33580  11.938   6.361   2.582 -0.3610  0.4123  0.3958
16733W        W33581  16.316   4.158  11.848 -0.1696  0.0269  0.5034
16734W        W33582  11.723   8.433   0.974  0.0218 -0.1015 -0.2632
16735W        W33583  16.636   8.397   3.674  0.1407  0.2186 -0.0998
16736W        W33584  14.357   9.995  11.510 -0.3080 -0.0069  0.0004
16737W        W33585   8.416   2.607  15.149  0.0589  0.4764  0.1548
16738W        W33586   8.033  12.977   4.069 -0.0210 -0.1188 -0.1314
16739W        W33587  16.764   3.056  15.286  0.1054  0.0405  0.0747
16740W        W33588   3.214   8.379  13.709 -0.2341 -0.1051  0.2207
16741W        W33589   2.321   8.405  10.863 -0.0531 -0.0948 -0.0313
16742W        W33590   6.764  13.282  15.625 -0.1397 -0.1125  0.2071
16743W        W33591  10.030   0.383   4.725 -0.0762  0.1395 -0.2539
16744W        W33592   6.538   2.001   2.751 -0.1695 -0.1416  0.1789
16745W        W33593  11.481  14.605  14.114  0.1115  0.3194  0.0199
16746W        W33594  12.193   8.541   3.853  0.1323  0.0011 -0.0629
16747W        W33595  11.182   9.937   1.591 -0.0584  0.2748  0.3204
16748W        W33596  16.997   1.955   3.633 -0.3328 -0.0049 -0.1858
16749W        W33597   2.465   1.925   0.226 -0.2217  0.2470 -0.1465
16750W        W33598   6.054   4.672   0.938  0.1706 -0.3621  0.0101
16751W        W33599   1.467  11.916  12.650 -0.0189  0.0350 -0.1049
16752W        W33600   3.105  12.000   0.168  0.1137 -0.1441  0.0902
16753W        W33601   2.906   5.943  11.553  0.2460 -0.0764  0.2110
16754W        W33602   1.734   7.655   3.758 -0.1826 -0.1184 -0.3815
16755W        W33603   4.196   2.727   4.373 -0.2751  0.0056  0.0299
16756W        W33604  13.188   3.511  12.140 -0.2874  0.3228  0.2591
16757W        W33605   1.822   5.355  16.088 -0.0432  0.3010 -0.0409
16758W        W33606   2.888   4.204  15.998 -0.0195  0.2084 -0.0427
16759W        W33607   4.189  17.478  15.429 -0.0183 -0.2619 -0.0724
16760W        W33608  12.198   2.983   6.108 -0.1845  0.2217  0.0537
16761W        W33609   5.696  10.684   2.222 -0.0817  0.1164  0.1301
16762W        W33610  15.925   0.647  12.230  0.0170 -0.0041 -0.0394
16763W        W33611   5.664   1.971   1.391 -0.2361  0.1322  0.1915
16764W        W33612  15.928  11.048   0.872 -0.2119 -0.1927 -0.2197
16765W        W33613  10.256  16.946  11.652  0.1227 -0.2388 -0.1245
16766W        W33614  16.309  12.141   2.509 -0.1334  0.1188  0.0441
16767W        W33615  15.695  13.408   3.834  0.0509 -0.1246 -0.0197
16768W        W33616  17.056   4.154   2.175  0.0608  0.2621 -0.1960
16769W        W33617  13.755   0.042  14.886  0.0076 -0.1968  0.1031
16770W        W33618   1.290  14.837  13.826 -0.0014  0.0550 -0.1513
16771W        W33619  14.963   5.778  11.196 -0.0814 -0.0972 -0.1271
16772W        W33620   5.746   2.108  14.994 -0.0512  0.0734 -0.0446
16773W        W33621   8.367  16.276  13.046  0.1679 -0.1448  0.1146
16774W        W33622   4.731   5.011  15.588  0.1704 -0.1598  0.0736
16775W        W33623  11.861  12.559  15.164 -0.0559  0.2397  0.2386
16776W        W33624  17.214  15.095   2.202  0.2086 -0.1039  0.0073
16777W        W33625   6.573  12.055   0.423  0.0120 -0.2472  0.1536
16778W        W33626   2.579   6.818   0.814  0.3576 -0.1166  0.0300
16779W        W33627   2.423   0.044  15.765  0.1802 -0.1053 -0.2442
16780W        W33628   1.085  13.240   3.325 -0.1400 -0.4245 -0.0743
16781W        W33629   1.694   3.199   4.273 -0.1168 -0.0471  0.0910
16782W        W33630  14.826  11.981   4.184  0.0243  0.0770  0.3775
16783W        W33631  15.458   1.905  15.218 -0.0969  0.1695 -0.2387
16784W        W33632   2.456   2.159   5.972 -0.1177 -0.1093  0.2274
16785W        W33633  10.842  11.238  13.099 -0.2400 -0.0396  0.4202
16786W        W33634   6.233   9.753  10.915  0.2855 -0.2318  0.5158
16787W        W33635  15.314  12.443  13.789  0.0094 -0.0845 -0.3459
16788W        W33636  17.555   4.163  15.089 -0.0064 -0.0536  0.0493
16789W        W33637  12.157   3.863  10.442  0.0666  0.0056 -0.3691
16790W        W33638   7.540   6.297  16.077  0.0131 -0.0415 -0.0400
16791W        W33639   5.526   3.954  13.754 -0.0110 -0.0528 -0.1868
16792W        W33640  10.785  12.470   4.659  0.0219  0.0985  0.1984
16793W        W33641   4.085  11.826  11.892 -0.1592 -0.1553 -0.0258
16794W        W33642   3.746   0.722   2.958  0.3538 -0.1769  0.0904
16795W        W33643   7.984  17.777   5.142 -0.0265  0.2197 -0.0561
16796W        W33644   4.884   9.000  12.488 -0.1688 -0.0193  0.1590
16797W        W33645  16.357   0.823  14.824 -0.2214  0.1436 -0.0675
16798W        W33646   1.820  14.712  13.197  0.1923  0.0423 -0.1470
16799W        W33647   5.820   2.407   0.382 -0.1079 -0.0152  0.1149
16800W        W33648   6.182  16.772   3.135  0.2092 -0.2655 -0.2781
16801W        W33649  12.203   9.708   2.469 -0.0406 -0.0029  0.2016
16802W        W33650   0.996   9.831   0.208  0.1023  0.1159 -0.1518
16803W        W33651   2.051  15.164  13.064 -0.1164 -0.0617 -0.1512
16804W        W33652  14.676  14.434   1.788 -0.2042  0.2665 -0.0959
16805W        W33653  15.402  12.143  15.019  0.2738  0.1574 -0.1733
16806W        W33654   5.353   5.879   4.950 -0.1235  0.3471  0.0863
16807W        W33655   7.099  12.513  12.934  0.0421  0.3055  0.0644
16808W        W33656  16.207   9.829  15.181  0.1506 -0.2111 -0.1833
16809W        W33657   6.799  12.300   2.962  0.1960 -0.0793  0.1638
16810W        W33658  17.587   0.331   0.843 -0.0447  0.0912 -0.0738
16811W        W33659   5.245   6.751  10.548  0.0364  0.3559  0.1103
16812W        W33660   2.838   5.449   4.575  0.0085  0.1551 -0.4486
16813W        W33661   1.459   5.563   4.827  0.1101  0.0365 -0.2661
16814W        W33662   6.190   2.621  15.695 -0.0946 -0.0286  0.0351
16815W        W33663  10.492  17.763   3.054 -0.0892  0.1584  0.1184
16816W        W33664  13.279   6.945   1.182  0.0793  0.1296  0.3377
16817W        W33665  11.663  12.062  12.732  0.1337  0.0762 -0.0622
16818W        W33666   3.523   0.052  15.005  0.0535  0.2031  0.0613
16819W        W33667  10.889   6.371   5.673  0.1463  0.1237 -0.2704
16820W        W33668  12.517   6.816  14.877 -0.2137 -0.1890  0.0493
16821W        W33669   0.564   7.269  14.779  0.0318  0.0004 -0.1361
16822W        W33670  12.434   8.186  13.333 -0.4038 -0.0204  0.1962
16823W        W33671   0.550   0.760   2.912 -0.0537 -0.2524  0.6632
16824W        W33672   7.123   7.099  16.107  0.0626  0.1697 -0.1372
16825W        W33673   5.791   8.809   1.457 -0.1316  0.0791 -0.0183
16826W        W33674  12.216   4.208   0.432 -0.0575 -0.1153  0.0688
16827W        W33675  16.302  12.132  12.786  0.3366 -0.1190 -0.1470
16828W        W33676  14.342  16.755  15.325  0.1826 -0.2396  0.1984
16829W        W33677  11.288   3.056   3.587 -0.0536 -0.0105 -0.0912
16830W        W33678  12.283   2.753  15.344  0.0699  0.0657  0.0996
16831W        W33679   1.421  16.201  13.653 -0.1505  0.0225 -0.2110
16832W        W33680   1.684  16.380   2.221 -0.1482  0.0186  0.1326
16833W        W33681   2.763   9.804  15.439  0.1941  0.2042  0.1187
16834W        W33682  17.567   3.396  13.133 -0.0390 -0.3983  0.0660
16835W        W33683   1.012  14.835   1.492 -0.0413 -0.3004 -0.2373
16836W        W33684   7.591   4.568  13.966  0.0616  0.0041 -0.1208
16837W        W33685  12.336   3.534   2.273 -0.3121 -0.2866 -0.1329
16838W        W33686   0.217   0.388  14.639 -0.1492 -0.0891 -0.2408
16839W        W33687   7.251   0.832   2.577  0.2024  0.1723  0.2265
16840W        W33688   3.606   3.051  13.615 -0.1279 -0.4615  0.1619
16841W        W33689  12.569   7.543   3.238  0.0342 -0.0069 -0.1437
16842W        W33690   5.246  15.139  14.815  0.2053 -0.0149 -0.2169
16843W        W33691  12.130  14.591   4.791 -0.3725  0.0630  0.1632
16844W        W33692  16.262   1.003  13.481  0.0046 -0.1998  0.0980
16845W        W33693   6.314  14.733   3.992  0.1165  0.3176  0.1675
16846W        W33694  14.508  17.619   2.185  0.0512 -0.2869 -0.1554
16847W        W33695  12.745  12.974  12.771  0.1636  0.0975  0.1704
16848W        W33696  11.515   9.996  12.642  0.2442 -0.1211  0.0618
16849W        W33697   5.942  12.708   5.510 -0.0538  0.0013 -0.0353
16850W        W33698  17.878   9.645   0.828  0.3358  0.3465  0.1820
16851W        W33699   3.471   6.731  12.275  0.4415  0.1699  0.0185
16852W        W33700   3.924  12.059  11.536 -0.2803  0.1114  0.0233
16853W        W33701  12.410   0.583   2.563  0.2402  0.0196 -0.2910
16854W        W33702   4.946  10.608   6.193 -0.2126 -0.2578  0.1114
16855W        W33703   6.995   2.928  16.254 -0.2128 -0.0307 -0.1497
16856W        W33704   7.156   1.449  15.818 -0.2942  0.2552 -0.0002
16857W        W33705  15.348  15.814   2.038 -0.1067  0.0031 -0.2414
16858W        W33706  16.119  13.602   4.664  0.1458 -0.0029 -0.0060
16859W        W33707   4.973   1.999   0.747 -0.0203  0.2086 -0.0151
16860W        W33708  14.693  15.924  14.542  0.0430  0.1124  0.1551
16861W        W33709  17.535  13.251  15.414 -0.2127 -0.1600 -0.0644
16862W        W33710   5.984   6.879   1.924  0.1481 -0.0194 -0.1549
16863W        W33711  14.896   7.327  13.208  0.0014  0.3106  0.1532
16864W        W33712   9.849  13.970   2.562  0.0657  0.0772  0.0515
16865W        W33713   7.953   0.503  13.210  0.1878 -0.1429  0.1533
16866W        W33714  15.460  10.509   0.145 -0.1268 -0.1118  0.1375
16867W        W33715  11.458   6.994   1.478 -0.1727  0.1839 -0.0555
16868W        W33716  13.757   7.258   4.832 -0.1100 -0.4150  0.0163
16869W        W33717   4.710  11.974  11.057  0.0640  0.2676  0.1870
16870W        W33718   0.389  10.754   1.809  0.1175  0.0795  0.1909
16871W        W33719  10.994   3.216   2.074 -0.0116 -0.2908  0.2499
16872W        W33720   9.049   3.122   1.686 -0.1570 -0.1705 -0.0044
16873W        W33721   8.968   7.716   5.320  0.0520 -0.2054  0.3044
16874W        W33722  14.049   1.134   4.189  0.1168 -0.1235 -0.3351
16875W        W33723   6.346  17.625   4.169 -0.0198 -0.0049  0.3706
16876W        W33724   7.350  16.061  12.196  0.0272 -0.0833  0.1836
16877W        W33725   6.536   2.653   5.987 -0.0687 -0.0939  0.4553
16878W        W33726   6.635   4.377   0.630  0.4489  0.1124  0.0086
16879W        W33727   9.762  13.261   3.756  0.0619 -0.0629 -0.1387
16880W        W33728  12.691   3.847   1.648  0.3004  0.1601 -0.2232
16881W        W33729   8.475   2.288  11.466 -0.2943 -0.2028  0.0806
16882W        W33730  14.132   0.830   0.070  0.2121  0.0604 -0.1095
16883W        W33731   7.202   1.892   5.886 -0.0467 -0.0630  0.3705
16884W        W33732   0.675   4.962  12.223  0.2912  0.1273 -0.0884
16885W        W33733  13.129  15.657  11.604  0.2592 -0.1894 -0.3944
16886W        W33734   5.105  11.004  13.815  0.1114  0.0492 -0.1491
16887W        W33735  14.030  16.956   2.692 -0.0399 -0.0839  0.1595
16888W        W33736  10.476   6.048  15.432  0.0531  0.5404 -0.1762
16889W        W33737   5.839   4.143   5.454 -0.0752 -0.1723 -0.0919
16890W        W33738   7.212  13.324   2.220  0.1721  0.0558  0.0428
16891W        W33739   1.871   0.477  14.284  0.1193  0.0076 -0.2149
16892W        W33740   6.320  14.521  15.039  0.0518  0.3733  0.0280
16893W        W33741  14.612   1.811   0.090  0.4567 -0.1054 -0.1853
16894W        W33742   7.611   7.858   0.121  0.1731 -0.1179  0.2311
16895W        W33743  15.564   5.237   2.841 -0.0198  0.5197 -0.5458
16896W        W33744   4.752   0.053   0.780  0.1134 -0.2713 -0.2474
16897W        W33745   4.284   7.055   1.413  0.0798  0.1496 -0.2077
16898W        W33746   9.587  12.149   5.203 -0.0998  0.2736 -0.0205
16899W        W33747  13.822  14.347   1.356 -0.2089  0.0977 -0.5061
16900W        W33748   3.208   0.323  14.417  0.0846  0.0287 -0.0335
16901W        W33749  13.531  13.792  15.838 -0.1154 -0.0252  0.2293
16902W        W33750   9.911   3.140   2.503 -0.1246 -0.1697 -0.0512
16903W        W33751   2.160   0.555  13.467  0.0365  0.0885 -0.2750
16904W        W33752   6.745  10.134  14.446  0.1857 -0.0104  0.1619
16905W        W33753   3.616  15.850  15.801  0.1391 -0.1680 -0.1703
16906W        W33754  10.289  10.855  13.200 -0.2631  0.0606 -0.1141
16907W        W33755  10.757   5.859   1.911 -0.2896  0.1442  0.1003
16908W        W33756  17.452   3.281  16.218  0.0190 -0.0996  0.4074
16909W        W33757  11.677   3.467  16.229 -0.2674  0.1448  0.3411
16910W        W33758  11.313   0.377  13.750 -0.2459 -0.1273  0.1125
16911W        W33759   2.020   1.287  14.799  0.2023  0.0990  0.0378
16912W        W33760   2.576   9.647  11.267  0.1552  0.0286  0.0324
16913W        W33761   3.601  13.497   1.658  0.0403 -0.2294 -0.0798
16914W        W33762   7.353  15.263  14.747 -0.2814  0.0470 -0.0547
16915W        W33763  14.431   8.258   1.486  0.0213 -0.0061 -0.3514
16916W        W33764   2.805  17.074   0.922 -0.1710  0.2065  0.0582
16917W        W33765  10.245   4.072   3.875 -0.2432  0.3748 -0.2196
16918W        W33766  10.732  11.083  14.067 -0.3214 -0.0940 -0.0852
16919W        W33767  17.887   0.558  16.254  0.0540 -0.3552  0.0464
16920W        W33768   4.585   7.747  13.995 -0.0575 -0.1383 -0.2391
16921W        W33769  15.444   9.792   0.362 -0.2628 -0.2393 -0.0290
16922W        W33770  14.519   9.939  14.998  0.3290 -0.2122  0.1229
16923W        W33771   7.689  10.692   2.539  0.0558  0.2556  0.0143
16924W        W33772  16.728   2.894  16.159 -0.0028  0.3323  0.2652
16925W        W33773   8.801  11.492  14.142 -0.2402 -0.3000  0.3597
16926W        W33774  11.378   7.455  10.785  0.0354 -0.0271  0.4699
16927W        W33775   1.730   2.352  12.735 -0.1260  0.2504 -0.1732
16928W        W33776   0.627   6.702  13.695 -0.1614 -0.2398  0.1683
16929W        W33777   0.847   1.005  16.042 -0.1414  0.1402 -0.0773
16930W        W33778   1.572  10.562   3.934 -0.0669  0.0729 -0.1901
16931W        W33779   2.167   6.152   3.772  0.1111  0.0438  0.2003
16932W        W33780  15.873   4.394   2.902 -0.0805  0.3015 -0.1446
16933W        W33781  13.367  11.944   2.399  0.1591 -0.2984  0.2129
16934W        W33782   1.315  16.939   4.928  0.0803  0.0262 -0.1998
16935W        W33783   7.354   2.054  16.429  0.1051  0.0836 -0.1240
16936W        W33784   9.457   7.955   2.270  0.1776  0.3078  0.0238
16937W        W33785  17.483  13.791  15.627 -0.0241 -0.1339 -0.0663
16938W        W33786  13.660  16.790  12.978 -0.2893 -0.4586  0.1176
16939W        W33787   8.464   3.510   1.086  0.2745  0.2813  0.1190
16940W        W33788   4.247   0.413  11.837  0.3939  0.1214  0.1247
16941W        W33789   2.651   4.041   1.103  0.0865  0.1583 -0.2245
16942W        W33790   8.680   2.331  12.338 -0.2426 -0.3704 -0.3436
16943W        W33791   4.488  10.675   3.285  0.1801 -0.0158  0.1606
16944W        W33792  17.324  12.977  13.111  0.0143 -0.1548 -0.2413
16945W        W33793  15.608   4.026   5.087 -0.0461 -0.1219  0.1278
16946W        W33794   0.651  16.988  11.816 -0.2752 -0.3261  0.1924
16947W        W33795   5.948  14.960   4.772  0.0885 -0.0698  0.0143
16948W        W33796  15.758   3.281   2.214 -0.1871  0.0952  0.0919
16949W        W33797   8.042  11.103  12.053  0.1382  0.2860  0.0390
16950W        W33798   0.754   1.023   2.349 -0.1379  0.1862 -0.0040
16951W        W33799  13.163   2.885   3.839 -0.0607  0.0103  0.0157
16952W        W33800   7.996   4.823   4.830  0.2415  0.0646 -0.0185
16953W        W33801   0.834   2.942   2.779 -0.0259  0.0795 -0.0305
16954W        W33802  16.309  11.563   1.578 -0.0983 -0.4181  0.1381
16955W        W33803  16.122  12.909  11.509  0.0065  0.0835 -0.1064
16956W        W33804  16.758   8.580   6.198  0.0948  0.0926  0.1080
16957W        W33805  17.049  17.441   5.710 -0.2500 -0.0001  0.1055
16958W        W33806   1.851  15.919  13.660 -0.0799  0.0679  0.3044
16959W        W33807   5.586   2.867  14.542 -0.0534 -0.1826 -0.0366
16960W        W33808   1.990  16.799  14.611 -0.3160 -0.0666  0.1412
16961W        W33809  17.550   6.356   4.502 -0.3268  0.0617  0.0323
16962W        W33810  16.619  12.905   1.785 -0.2113  0.1624  0.0686
16963W        W33811  15.465  10.813   2.479 -0.0710  0.1424 -0.0458
16964W        W33812   5.026   7.084  14.064 -0.1353  0.1863  0.2584
16965W        W33813   5.511  16.839  14.179 -0.1189  0.1200  0.2214
16966W        W33814   6.305   1.503   3.129 -0.1263  0.2750 -0.2692
16967W        W33815  14.892  12.217  12.903 -0.0170 -0.3155  0.2466
16968W        W33816   3.124  16.471   5.370 -0.0685 -0.2098  0.2652
16969W        W33817  14.235  16.542   2.481  0.2412 -0.1557  0.0176
16970W        W33818  14.628  17.302  14.813 -0.0187 -0.1145  0.0080
16971W        W33819  15.548   4.056  16.441  0.1970  0.0941  0.1717
16972W        W33820  16.329   2.053   0.865 -0.1169  0.1481 -0.2964
16973W        W33821  15.165   0.712   2.825  0.2661  0.3996 -0.1182
16974W        W33822   1.315  10.649   0.400  0.1373  0.1504  0.2476
16975W        W33823  17.781   1.699  12.888 -0.0540 -0.1233 -0.0261
16976W        W33824   2.537   1.000  15.677 -0.2330  0.1075 -0.2264
16977W        W33825   6.902   7.641  15.831 -0.2553 -0.0213  0.0936
16978W        W33826   2.328   4.966   0.377 -0.2601  0.0796  0.1296
16979W        W33827   6.510  15.867  12.062  0.1113  0.2441 -0.0365
16980W        W33828  14.706   3.446   2.917 -0.1635  0.0020  0.0987
16981W        W33829   6.895   0.569   3.634  0.0308  0.0617  0.0626
16982W        W33830   2.270   4.724   2.524 -0.1194  0.2952 -0.0349
16983W        W33831   0.581   5.877   0.060  0.1600 -0.0922 -0.0375
16984W        W33832  14.702  11.066  14.173  0.1550 -0.1606 -0.2227
16985W        W33833   5.802   3.538   3.463  0.2898 -0.0531  0.0007
16986W        W33834   7.804   4.402  13.436  0.0529  0.0667 -0.1405
16987W        W33835  10.120   8.908  13.508  0.1512 -0.0808 -0.1241
16988W        W33836   6.132   4.893   3.579  0.1263 -0.0712 -0.0610
16989W        W33837   3.536   3.161   3.701 -0.1013  0.0608  0.3666
16990W        W33838   2.416   7.312   0.769  0.1184 -0.1302 -0.1626
16991W        W33839   5.432   6.201   2.160  0.0724 -0.1273  0.1409
16992W        W33840   5.710   2.795  13.316  0.3441 -0.0276  0.3660
16993W        W33841   0.309   8.488  15.563  0.2101  0.2061  0.0516
16994W        W33842   7.984   6.825  10.613  0.0660  0.1013 -0.0414
16995W        W33843  10.899  12.334  15.620 -0.1015  0.1939 -0.0904
16996W        W33844  13.594  11.991  11.205  0.1461 -0.1590 -0.2295
16997W        W33845  15.596   2.097   3.914  0.0996 -0.0278 -0.1055
16998W        W33846   3.833   8.030  13.381 -0.2770 -0.0807 -0.1493
16999W        W33847   9.747  10.880   2.768  0.1747  0.1200  0.1677
17000W        W33848   8.972  15.846   4.055 -0.1304 -0.0814 -0.4014
17001W        W33849  10.728  13.864   3.011  0.0082 -0.3866 -0.0243
17002W        W33850   9.945   6.815   3.979  0.1189  0.2744 -0.0293
17003W        W33851  14.147  16.587   1.490  0.0608  0.0107  0.0800
17004W        W33852  10.563   0.847  15.996 -0.0592 -0.0181 -0.1139
17005W        W33853   7.363   3.643   2.586 -0.0132 -0.1972 -0.1746
17006W        W33854  17.151   9.571   4.947 -0.0210 -0.0589  0.1151
17007W        W33855   9.655   9.558  14.985 -0.0885 -0.3314 -0.0250
17008W        W33856   9.995   0.028  14.389  0.0788 -0.3992  0.1165
17009W        W33857   3.222   2.213  13.620  0.1541  0.1698  0.2060
17010W        W33858   7.644   2.797   0.437 -0.0868  0.1702  0.0224
17011W        W33859  13.617   4.248  11.986  0.2525  0.1314 -0.4486
17012W        W33860   7.991  14.614  10.279  0.1036  0.0743  0.0908
17013W        W33861  14.648   8.193   6.030  0.1985 -0.1775  0.0072
17014W        W33862  16.335   8.493   0.714  0.0490  0.1590 -0.0986
17015W        W33863   7.071   9.989   2.363 -0.0260  0.0809 -0.0558
17016W        W33864   6.277   1.257  13.618 -0.3212  0.1479  0.0516
17017W        W33865   1.638  11.522   1.753  0.2376  0.1945 -0.2637
17018W        W33866   0.648   4.631   5.574 -0.1761  0.0189 -0.1434
17019W        W33867  13.503   9.376   2.411  0.2699 -0.3065  0.1590
17020W        W33868   6.706  16.538   3.937 -0.1298  0.1914 -0.1982
17021W        W33869  16.936   5.457   0.850  0.0307  0.0623 -0.1104
17022W        W33870  10.420   3.679   3.658 -0.0454  0.1592 -0.0165
17023W        W33871  17.394  17.031  16.350 -0.1077 -0.0933  0.2271
17024W        W33872  14.078  11.333   0.645 -0.2260  0.1477 -0.3750
17025W        W33873  11.839  14.635  12.495  0.1559 -0.0937 -0.2379
17026W        W33874  14.365   3.483  13.046 -0.0445  0.0201 -0.0601
17027W        W33875  17.663  10.833  13.407  0.1812 -0.0091  0.0301
17028W        W33876   5.794   4.034   1.048  0.3032 -0.1295  0.2412
17029W        W33877  17.183  10.571  13.612 -0.3998 -0.1473  0.0516
17030W        W33878   8.095  17.239   5.245 -0.0500  0.0504  0.0661
17031W        W33879  10.553   0.349  12.021  0.2770 -0.1574 -0.1542
17032W        W33880  14.616  15.300  15.374 -0.1891 -0.2886  0.0302
17033W        W33881  11.846  15.531   3.095 -0.1976 -0.2305 -0.1275
17034W        W33882   1.497   4.739   2.976 -0.0995  0.3808 -0.2225
17035W        W33883  12.341   3.583   1.424  0.1035 -0.2856 -0.0621
17036W        W33884   0.468   9.702  15.658 -0.0943 -0.1368 -0.3872
17037W        W33885   1.758  15.853  12.791 -0.0670  0.1275  0.1963
17038W        W33886   7.741   0.291   3.822  0.0616 -0.2224 -0.2405
17039W        W33887   7.596  17.434   5.255 -0.1213 -0.0421  0.1118
17040W        W33888   8.993  14.992   1.113 -0.0862  0.3185 -0.0558
17041W        W33889   9.180   7.202   2.003  0.1630  0.0162  0.1229
17042W        W33890   7.898   1.276  14.958 -0.1431  0.1112  0.2384
17043W        W33891  14.862   0.639   2.250  0.1932  0.0780  0.0429
17044W        W33892  15.669  14.942  14.462  0.1160  0.1347 -0.0448
17045W        W33893   3.042   5.061  13.086  0.0273  0.1691 -0.0516
17046W        W33894  14.396   0.759   1.547 -0.3431 -0.0273 -0.0948
17047W        W33895   3.655  17.487  15.202  0.0660 -0.2382  0.0783
17048W        W33896   2.579   3.276  11.667  0.1975 -0.1722  0.0231
17049W        W33897   8.396   1.447  15.857 -0.0473  0.0148 -0.2517
17050W        W33898  11.984   9.917   4.215 -0.0357  0.1523  0.0514
17051W        W33899   9.549   7.217  11.539  0.1594 -0.1866  0.1128
17052W        W33900   7.600  16.284   2.967 -0.0361  0.0698 -0.3699
17053W        W33901  10.158   3.141   1.598 -0.2831 -0.0163  0.2863
17054W        W33902  16.259   0.528   2.151 -0.1528 -0.0019  0.1340
17055W        W33903   2.883   9.706   4.955  0.2435 -0.2848  0.5216
17056W        W33904   5.272   2.315  12.484 -0.1219  0.2184  0.4108
17057W        W33905   8.580   6.910   4.345 -0.1736  0.1390  0.1766
17058W        W33906  13.123  12.198  14.883 -0.0097  0.0767 -0.3882
17059W        W33907  17.558   4.674  11.055  0.0541  0.1764  0.3037
17060W        W33908   4.989   7.152   2.083 -0.1405 -0.2557 -0.3834
17061W        W33909  14.037   8.275   3.029  0.0588 -0.0474  0.2545
17062W        W33910  17.435  16.719  13.350 -0.1317  0.0750 -0.0212
17063W        W33911  10.547   5.155   3.523  0.1269 -0.1849  0.2487
17064W        W33912  17.439  13.696   5.759 -0.1992 -0.3732  0.1797
17065W        W33913   0.613   0.886  12.035 -0.1727  0.1133  0.1319
17066W        W33914   8.527   7.573  13.852  0.0665  0.2077 -0.0099
17067W        W33915   2.292   3.854   3.066  0.0907  0.2798  0.3344
17068W        W33916   3.012  17.846   4.149  0.1655 -0.0958  0.0422
17069W        W33917   7.913  14.331   1.146  0.0954 -0.2893  0.0079
17070W        W33918  16.138   6.734  11.155 -0.0272 -0.2267 -0.2871
17071W        W33919  14.013   3.777   2.394 -0.2244 -0.1621 -0.1768
17072W        W33920   1.673   6.891  14.228 -0.0347 -0.0285 -0.1310
17073W        W33921  10.108  12.232   2.196  0.1221  0.1262  0.0031
17074W        W33922  10.641   5.666   2.991 -0.1331 -0.0336  0.2065
17075W        W33923   5.930   1.712  16.207  0.1074 -0.0736 -0.1451
17076W        W33924   5.445   5.574  15.004  0.5720  0.0940  0.0545
17077W        W33925  16.894  11.485   4.152  0.3699  0.1969 -0.1519
17078W        W33926  12.463  14.399  12.495 -0.3169  0.0071  0.3092
17079W        W33927   2.919  10.805  15.349  0.0435  0.0805 -0.0142
17080W        W33928   8.311  12.554   4.186  0.1103 -0.3331 -0.5001
17081W        W33929  14.021  12.751  12.260  0.0996  0.0275  0.1781
17082W        W33930  16.155  14.532   2.932 -0.2315 -0.1279 -0.2073
17083W        W33931   4.891   0.793  15.360  0.0410  0.1553 -0.2817
17084W        W33932  12.956   9.760   3.440 -0.0110  0.0820  0.2746
17085W        W33933  15.920  10.762  13.664 -0.1131  0.2308  0.1187
17086W        W33934   9.749  15.362   2.997 -0.3068  0.0784  0.1155
17087W        W33935   1.530   6.312   5.012  0.1496 -0.1717 -0.1187
17088W        W33936   4.815   2.022   0.281  0.3886 -0.1373 -0.0492
17089W        W33937   2.287   5.756   4.007  0.0054 -0.1239 -0.1964
17090W        W33938   9.403   3.042   5.218 -0.1810  0.0934 -0.1474
17091W        W33939  17.302   2.888   3.521 -0.3344  0.2830 -0.1661
17092W        W33940  16.054  11.200   5.080  0.0861 -0.0480  0.2579
17093W        W33941  12.310  12.724   1.588 -0.0083 -0.5292  0.0194
17094W        W33942   3.039   1.249   3.913  0.3367 -0.0089 -0.0227
17095W        W33943  12.275   3.125   4.862  0.2987 -0.0020 -0.1121
17096W        W33944  10.980   0.054   2.689 -0.2474  0.1004 -0.1294
17097W        W33945  17.822  17.786  11.993 -0.1511  0.4333  0.2772
17098W        W33946   9.549   5.229  12.887  0.0247 -0.0664 -0.1041
17099W        W33947  11.559   4.754   1.002 -0.0049  0.2852  0.0845
17100W        W33948   3.996  16.581   2.820  0.0000 -0.1379 -0.0770
17101W        W33949  12.395   0.915   2.233 -0.1744 -0.2019 -0.2102
17102W        W33950  16.759  14.833  11.776  0.0714  0.2423 -0.2796
17103W        W33951  12.977   5.550  16.089 -0.1523 -0.0575  0.1212
17104W        W33952   1.514   5.405   3.853 -0.0133 -0.0226 -0.1418
17105W        W33953   3.609   4.514   3.323 -0.0571 -0.1231 -0.0415
17106W        W33954   0.671  17.190   2.586 -0.1040  0.1555  0.0749
17107W        W33955  10.126   2.064  16.222  0.4160  0.2374 -0.5072
17108W        W33956  17.243   3.612  15.818  0.0874  0.1048  0.0102
17109W        W33957  17.091   0.167   0.984  0.0448  0.2451  0.1084
17110W        W33958   8.204   8.917   4.264  0.1385  0.0985 -0.2207
17111W        W33959   6.599   1.198   1.533  0.0019 -0.2255 -0.2607
17112W        W33960  11.621   4.845  14.660  0.2072  0.2130  0.0251
17113W        W33961  12.823   6.993  13.938  0.5615  0.1563  0.0509
17114W        W33962  13.612   5.682   0.782 -0.0510  0.1275  0.0990
17115W        W33963  13.670  12.874  15.034 -0.1865 -0.0714 -0.0188
17116W        W33964  16.459  11.308   1.947  0.1837  0.2664 -0.1070
17117W        W33965   2.296   5.932  15.377  0.1090  0.0894 -0.0317
17118W        W33966   5.220   1.436   0.839  0.1996 -0.1266  0.0151
17119W        W33967   9.064  10.519   1.578  0.0894  0.0647  0.1955
17120W        W33968   2.360   4.072  14.415  0.0351  0.0725  0.0261
17121W        W33969  13.303   3.794  16.342  0.0142 -0.0827 -0.0695
17122W        W33970   6.176   1.314  16.087  0.0441  0.1363 -0.0064
17123W        W33971  13.971  15.663   0.850 -0.0171  0.0551  0.3790
17124W        W33972   2.971   7.428  12.150  0.2821 -0.2239 -0.0531
17125W        W33973   8.078  14.788  11.777 -0.0509 -0.1331 -0.2193
17126W        W33974   3.560  11.605  15.446  0.3022 -0.3401  0.0192
17127W        W33975   6.795   4.903   1.211 -0.0308  0.2822  0.0579
17128W        W33976  12.269   1.160   1.748 -0.0627  0.0747  0.0812
17129W        W33977  13.960   5.123  12.020  0.0807  0.0479  0.0431
17130W        W33978   2.457  10.805  16.328  0.0381 -0.2612  0.0153
17131W        W33979   4.658   6.314   1.169  0.2805  0.3008 -0.0590
17132W        W33980  14.181   7.312  14.007  0.0998 -0.1935  0.3865
17133W        W33981   2.710   4.662   1.264 -0.0688  0.0326  0.0202
17134W        W33982   1.947  11.946   4.390 -0.1801  0.0297  0.1000
17135W        W33983   9.029   7.644  12.252 -0.0860 -0.0565  0.0712
17136W        W33984  10.851  14.828   2.144 -0.0478  0.0747  0.2225
17137W        W33985   5.001  14.215  15.990  0.2343  0.2216 -0.0127
17138W        W33986   3.938  12.499   1.058 -0.1258  0.1969  0.0964
17139W        W33987   3.839   7.976   3.976 -0.3551 -0.0336  0.0859
17140W        W33988   7.094  14.689   4.823 -0.0320 -0.2364  0.0141
17141W        W33989  14.684  15.422  12.247  0.1699  0.3078 -0.1873
17142W        W33990  17.045  11.329  14.283 -0.5141 -0.1660 -0.0844
17143W        W33991   0.410   6.662  14.941 -0.2052 -0.0595 -0.1604
17144W        W33992  11.188   9.215  12.936 -0.2283  0.0152 -0.3251
17145W        W33993   2.896  10.377   5.509 -0.1571 -0.0242 -0.0249
17146W        W33994  17.020   2.346   1.634 -0.1461 -0.0675  0.1936
17147W        W33995  15.573   9.348  12.733  0.2441  0.0507  0.5956
17148W        W33996   6.993  11.294   2.978  0.1336  0.0791 -0.1650
17149W        W33997  11.660  15.432   2.204 -0.1629  0.0705  0.3924
17150W        W33998  13.206   2.318   0.401  0.3878 -0.0589 -0.1293
17151W        W33999  14.619  12.453  13.396  0.0214 -0.0562 -0.1729
17152W        W34000   8.907   6.146  14.695  0.1140  0.0511 -0.1822
17153W        W34001   4.626  10.412  11.743  0.1618 -0.1855 -0.4267
17154W        W34002   9.497   1.616  11.698  0.1494  0.1226  0.2547
17155W        W34003  11.692   8.600  13.512 -0.0139  0.4571  0.1120
17156W        W34004  10.508  13.802   3.519  0.0499  0.0947 -0.0193
17157W        W34005  10.220   1.451   2.021  0.0983 -0.0343 -0.0292
17158W        W34006  17.282   3.361  14.194 -0.3405 -0.1272 -0.1406
17159W        W34007  16.802  10.692  11.353  0.0197 -0.5905  0.0831
17160W        W34008  16.018  14.077  12.136 -0.2291  0.2031 -0.1648
17161W        W34009   6.931  12.258   1.345 -0.0377 -0.0511  0.3031
17162W        W34010   6.985   6.185  14.371  0.0580 -0.0207 -0.1452
17163W        W34011   3.394   7.188   0.960  0.1041  0.2310 -0.0569
17164W        W34012   3.130   3.380  14.361 -0.2126  0.1609  0.1139
17165W        W34013  12.228   7.599  15.203 -0.4011  0.1749  0.1352
17166W        W34014  16.241   8.418   2.956  0.1215  0.0043 -0.2160
17167W        W34015   4.718  12.183  12.511  0.2255 -0.1125  0.1887
17168W        W34016   8.307   9.236   1.414 -0.3705  0.0394  0.2810
17169W        W34017   3.571  14.564   2.166  0.2428  0.1104  0.0560
17170W        W34018   5.872  14.274  15.118 -0.1512 -0.1962 -0.0188
17171W        W34019   2.656   8.037   0.275  0.1848 -0.0526  0.0254
17172W        W34020   3.797  17.648   4.069 -0.1687  0.2125  0.0708
17173W        W34021   7.727  11.465   0.538  0.2282 -0.1626  0.1658
17174W        W34022   9.199  12.913  12.001 -0.0185  0.0981  0.1008
17175W        W34023   6.788   0.157  16.106  0.1595 -0.1305 -0.0130
17176W        W34024  10.349  11.431   5.625 -0.0036 -0.1421  0.0561
17177W        W34025  16.048   2.983  13.706 -0.2236  0.0225  0.0541
17178W        W34026   5.680   5.882  15.563  0.1421  0.2300 -0.1328
17179W        W34027  12.910  13.561   3.724 -0.0847  0.1006 -0.0477
17180W        W34028   4.745   5.711   5.909 -0.1108 -0.1099  0.1617
17181W        W34029  14.118   1.927  16.369 -0.2250 -0.0138  0.0444
17182W        W34030   7.919   7.350   1.283 -0.1294  0.0001 -0.0147
17183W        W34031  10.373  10.451   5.298 -0.2807 -0.0627  0.1509
17184W        W34032   5.619   2.563   3.748  0.2130  0.0835  0.1658
17185W        W34033  14.335   9.122  11.793 -0.2996  0.0302 -0.3813
17186W        W34034   9.168   5.776   5.070  0.0109  0.1823  0.0134
17187W        W34035   1.217  14.240   3.409 -0.0550 -0.0374  0.0098
17188W        W34036   0.500   9.073  11.954 -0.1185 -0.2544  0.1939
17189W        W34037   4.118   7.787  14.183  0.2091 -0.0331  0.0246
17190W        W34038   0.557  10.357   3.278  0.0178 -0.0929  0.0858
17191W        W34039   4.964   7.050   5.496 -0.3260  0.0349  0.1062
17192W        W34040   3.414  12.703   5.718  0.0050 -0.1961  0.2856
17193W        W34041   4.273   6.821   0.637  0.0840 -0.1348  0.0145
17194W        W34042   2.882   1.920   5.143 -0.1384  0.0424 -0.0705
17195W        W34043   5.709  17.802   2.106  0.0777 -0.0249  0.1957
17196W        W34044   6.967   1.219   1.967  0.0562  0.3016 -0.1193
17197W        W34045   1.484  13.257   5.545  0.0168 -0.3220 -0.0373
17198W        W34046  14.813  16.148  13.579 -0.1247 -0.1948 -0.1965
17199W        W34047   6.867  12.855   0.707 -0.1670 -0.0268  0.1962
17200W        W34048  16.774   0.227  12.690 -0.2086 -0.2932 -0.0173
17201W        W34049   6.272   1.306  15.565 -0.0477 -0.0284 -0.0860
17202W        W34050  12.738   7.814  15.083 -0.2818  0.0587 -0.3382
17203W        W34051   0.390  12.330   0.555 -0.0964 -0.0513  0.4333
17204W        W34052   2.227   7.000   2.022  0.1696  0.0176 -0.0280
17205W        W34053  13.816   9.973  11.694  0.0560  0.0937 -0.0453
17206W        W34054   1.062   3.256   3.799 -0.2290  0.0257  0.1008
17207W        W34055   3.899  17.877   3.005  0.0776 -0.2187 -0.4702
17208W        W34056   8.904  12.373   0.378 -0.1268  0.1984 -0.0364
17209W        W34057  10.109  14.424  12.781 -0.1739 -0.3417 -0.0589
17210W        W34058  17.659   3.492  12.241 -0.1454 -0.1059  0.1426
17211W        W34059   6.007   6.369   0.444 -0.0582  0.1086 -0.4161
17212W        W34060  15.918  11.608  14.632  0.0765 -0.0690 -0.2486
17213W        W34061  11.297   2.684  16.384 -0.1248  0.1753 -0.0452
17214W        W34062  13.548   6.038   4.998  0.3776 -0.1562 -0.1197
17215W        W34063  12.264  12.928   0.015  0.1654  0.1668 -0.1093
17216W        W34064  11.531  14.672  11.893  0.0923  0.3450  0.2200
17217W        W34065   2.327   7.941  15.198  0.1199 -0.0346 -0.1416
17218W        W34066   8.575  10.394  14.360  0.0757  0.2211 -0.0868
17219W        W34067  14.708   8.709   4.718  0.2949  0.3382  0.0113
17220W        W34068  12.789  13.629   5.034  0.3671  0.1098 -0.1650
17221W        W34069   0.025   6.282  13.607 -0.0075  0.2038  0.0466
17222W        W34070   7.521  17.110  14.687 -0.2466  0.0698 -0.0059
17223W        W34071   9.221  11.900   0.577  0.0605  0.1761 -0.2326
17224W        W34072   4.938  12.511   3.204  0.1196  0.0906  0.1304
17225W        W34073   1.801  14.793   0.844  0.3084  0.1713 -0.0696
17226W        W34074   1.205  14.947  10.613  0.1818 -0.2240  0.0956
17227W        W34075  12.840  13.115  12.257  0.2258  0.1996  0.0266
17228W        W34076  16.655   0.590   4.175  0.0672  0.0327  0.1101
17229W        W34077   8.805   6.118   5.136 -0.0729 -0.1413  0.1445
17230W        W34078  10.205  12.143   0.385  0.0155  0.2109  0.0497
17231W        W34079  16.073   1.712  15.837  0.0421 -0.2434  0.2687
17232W        W34080   0.898  17.137   5.280 -0.2298  0.1081 -0.2213
17233W        W34081  13.003   9.237   4.460  0.1287 -0.1920  0.1077
17234W        W34082   0.259  16.011   2.455 -0.0140  0.0458  0.1379
17235W        W34083   7.886   8.554  13.415  0.1072  0.1973  0.3531
17236W        W34084   0.411   7.568  14.100  0.0582  0.2181  0.0532
17237W        W34085   4.182   6.541  11.640  0.1111  0.1500  0.0172
17238W        W34086   4.038   8.976   1.564  0.0357  0.0839  0.0459
17239W        W34087  14.996  12.411   1.535  0.0419  0.0811  0.2644
17240W        W34088  11.736  17.548  12.798 -0.2204  0.5327  0.1228
17241W        W34089   1.872  16.462   6.119 -0.0771 -0.0420  0.1197
17242W        W34090   6.703   4.939   4.838 -0.0973 -0.0861 -0.0248
17243W        W34091   1.615  16.618   3.756  0.2453  0.2820 -0.3014
17244W        W34092  17.149  16.599  16.230  0.2675 -0.1769 -0.1653
17245W        W34093  16.784  16.224  11.577  0.2938  0.2174  0.1930
17246W        W34094   4.114  10.831   3.569 -0.1733 -0.2565 -0.1748
17247W        W34095  14.294   2.977   1.571  0.0017  0.0102 -0.2182
17248W        W34096  11.694   9.494   0.991 -0.1310  0.4469 -0.0029
17249W        W34097   7.960  11.207   3.039  0.0580  0.1975  0.3316
17250W        W34098   6.220   9.359   3.124 -0.0077  0.1591 -0.1513
17251W        W34099   8.343  12.580   5.229  0.0271  0.2028 -0.2986
17252W        W34100   1.485  15.786  12.370  0.1089  0.2270  0.1053
17253W        W34101  16.996   6.587   3.972 -0.3167  0.0775  0.0960
17254W        W34102   6.609  15.730   0.197 -0.2986  0.1175  0.0495
17255W        W34103  11.652  10.782   5.168  0.0406  0.1321 -0.0810
17256W        W34104  14.192  16.147   1.122 -0.1689  0.0741  0.0102
17257W        W34105  12.149   4.940  14.775 -0.0336  0.0252  0.1768
17258W        W34106   1.109   4.721   3.688 -0.0496  0.2093  0.3163
17259W        W34107   0.480  11.363  15.505 -0.0032  0.0447 -0.1571
17260W        W34108  12.013   4.815  10.815  0.0440  0.5096 -0.0726
17261W        W34109   3.481   3.144  12.065 -0.0500  0.2334 -0.0098
17262W        W34110   2.460   7.241  15.767  0.1323  0.0913 -0.0300
17263W        W34111   9.830   7.594  11.275  0.0117 -0.2499  0.0986
17264W        W34112   9.151   1.903  13.403 -0.2837  0.2293 -0.5089
17265W        W34113  11.824  17.002   4.482 -0.0646  0.1003  0.3986
17266W        W34114  14.443   4.013  14.880  0.2497 -0.1931 -0.0090
17267W        W34115   3.474   3.412  14.777 -0.2169 -0.2000 -0.0176
17268W        W34116   0.887   9.471   3.053  0.0557 -0.3664 -0.2322
17269W        W34117  12.714   2.843   4.090 -0.0404  0.2539  0.1372
17270W        W34118  12.967  13.270  14.607 -0.0092  0.2603 -0.2978
17271W        W34119  13.838   7.972  12.274 -0.0477 -0.4000  0.1003
17272W        W34120   1.881  11.705  13.377 -0.0972  0.0314  0.0489
17273W        W34121  14.985  16.367  12.540 -0.0470 -0.1009 -0.0734
17274W        W34122   0.621  12.724  11.245 -0.0105  0.0262  0.0162
17275W        W34123   2.088  11.751  10.309 -0.0141  0.1689 -0.3325
17276W        W34124   5.830  17.539   1.677  0.0937 -0.1990  0.2931
17277W        W34125   4.711   0.635   1.335 -0.3689  0.0563 -0.0006
17278W        W34126   2.698   7.946  11.903 -0.2243  0.2611 -0.2627
17279W        W34127   2.973  17.002   5.586 -0.0788  0.0328  0.1507
17280W        W34128   2.449   8.025  14.740 -0.2204  0.0897  0.1005
17281W        W34129   8.931   4.639   4.019 -0.0870  0.3231  0.0964
17282W        W34130  14.420   7.415  12.577 -0.1038 -0.1619  0.0560
17283W        W34131   9.405  15.591  13.597  0.0130  0.1023 -0.0228
17284W        W34132   6.805   4.047   2.936 -0.1737  0.0459  0.2161
17285W        W34133  12.867   6.975   4.920  0.0353 -0.0188 -0.0365
17286W        W34134   1.838   2.862  12.764  0.3030  0.2806  0.3771
17287W        W34135  16.140  16.445   2.402  0.1971 -0.4592 -0.1949
17288W        W34136  11.085   7.852  15.857  0.2645 -0.3004 -0.0812
17289W        W34137  11.550   6.621   2.445  0.4703  0.0765 -0.3169
17290W        W34138   1.160  13.864  11.829  0.0046  0.1168  0.0474
17291W        W34139  12.063  13.164  13.612  0.0734  0.2292  0.0683
17292W        W34140   3.762   6.116  10.366  0.0938  0.0494  0.1414
17293W        W34141   5.243   0.126   3.374  0.0952  0.1898  0.3726
17294W        W34142  16.115   9.843  13.728 -0.0019 -0.1688 -0.2825
17295W        W34143  16.086  17.867   0.246  0.0229 -0.2285  0.1550
17296W        W34144  13.115  11.329   3.023 -0.0031 -0.3105 -0.3927
17297W        W34145  15.913  17.191   1.939 -0.2149 -0.1347 -0.0569
17298W        W34146  13.200   3.433   3.997 -0.1921  0.0028 -0.3294
17299W        W34147  14.011   8.866  14.648  0.0707  0.2118  0.1943
17300W        W34148  12.145  13.453  12.851 -0.1749 -0.1941 -0.2819
17301W        W34149   3.832  16.548  14.286  0.3363 -0.3195 -0.3890
17302W        W34150   8.038  16.995   3.856 -0.3415 -0.0391 -0.0048
17303W        W34151   0.747   7.942  14.295 -0.3569 -0.1406 -0.0142
17304W        W34152   8.646  10.913  12.100 -0.1588  0.0346 -0.0005
17305W        W34153  12.456  12.976   4.369  0.1485  0.0785  0.1087
17306W        W34154   3.137   0.970  12.113  0.2575  0.0766 -0.1429
17307W        W34155  12.046   4.734   2.158  0.0285 -0.0208 -0.1424
17308W        W34156   4.100   2.309  12.647 -0.4167  0.0072 -0.2089
17309W        W34157   0.236   9.966  16.112  0.0691 -0.1145  0.0907
17310W        W34158   5.877  11.398  11.859  0.2121  0.0626 -0.0367
17311W        W34159   5.907   3.228   1.653  0.1052 -0.1495 -0.0472
17312W        W34160  16.037  15.466  12.876 -0.3994 -0.2666  0.1557
17313W        W34161  14.497  11.302  12.624  0.1962 -0.2156  0.2718
17314W        W34162   4.577   6.389  12.917  0.0954  0.0215  0.1150
17315W        W34163   2.931   1.963   1.917  0.0797  0.1709 -0.3846
17316W        W34164   5.338   7.372  15.211  0.0131  0.0173 -0.0909
17317W        W34165   9.381   8.729  15.854 -0.0301 -0.0884  0.1740
17318W        W34166   2.914   2.089   1.053  0.0349  0.1666  0.3383
17319W        W34167  13.542  16.341  13.721 -0.1502  0.0845 -0.3741
17320W        W34168   1.735   2.755   2.942  0.2111 -0.1824  0.1273
17321W        W34169   4.261   9.308   4.180  0.2758  0.0228  0.5533
17322W        W34170  13.637   1.499  12.685  0.0573  0.4012  0.1363
17323W        W34171  15.553   2.997  12.792  0.1252 -0.0194 -0.4583
17324W        W34172   3.047   2.952   1.132  0.1411  0.1522  0.0070
17325W        W34173  14.124   6.601   4.403 -0.1836  0.2208  0.1777
17326W        W34174  17.741  17.226  11.293 -0.0562  0.1060  0.0932
17327W        W34175  15.055   7.705   4.725 -0.1759 -0.0281  0.0768
17328W        W34176   6.687   1.294  15.857 -0.1455 -0.0815 -0.2838
17329W        W34177   3.126   2.515   3.301 -0.2033 -0.2331  0.0604
17330W        W34178   3.034  12.423   3.713  0.2640  0.0943  0.0554
17331W        W34179  14.301   2.830  12.281  0.1526  0.3673  0.0831
17332W        W34180   1.517   1.136   2.793  0.0421  0.0479  0.0114
17333W        W34181  16.629  16.107   2.396 -0.0605 -0.1491 -0.0678
17334W        W34182   5.925  11.306  15.426  0.1103  0.2308  0.0054
17335W        W34183   8.422  16.573   5.543 -0.2485  0.1365 -0.0191
17336W        W34184   7.599  14.265   2.878  0.0998 -0.0443  0.0535
17337W        W34185  17.827  11.536  14.850 -0.1418  0.0656 -0.1367
17338W        W34186   0.337   3.446   2.229 -0.0679  0.0286 -0.1317
17339W        W34187   5.262   0.791   4.964 -0.0858  0.3062  0.2785
17340W        W34188  10.109  13.469  16.241  0.0557 -0.0593 -0.2228
17341W        W34189   9.992  11.500   3.923 -0.0838 -0.0823 -0.0638
17342W        W34190   0.086   6.732  13.952 -0.1789 -0.1384  0.0648
17343W        W34191  13.206  16.171   4.395 -0.1174 -0.1529 -0.0519
17344W        W34192   4.868  10.586  13.106  0.2602  0.0672 -0.0161
17345W        W34193   2.031  11.359   5.152  0.0260 -0.1276 -0.1363
17346W        W34194  13.535  10.729   1.227 -0.0699  0.1171 -0.0231
17347W        W34195   0.250  12.977   5.610  0.0279 -0.1638  0.0945
17348W        W34196   5.509   8.711   2.650 -0.0971 -0.0504 -0.1871
17349W        W34197   0.663   9.774   4.872 -0.3208  0.1050  0.1338
17350W        W34198  10.034   5.227   3.413 -0.0181  0.1709 -0.0734
17351W        W34199   3.753   2.605   1.201  0.0270 -0.1199 -0.0403
17352W        W34200   0.029   7.717  15.399 -0.1408  0.0608 -0.0376
17353W        W34201   8.595  13.758   6.238  0.0008 -0.0145 -0.0908
17354W        W34202  14.521   1.710   2.923 -0.1701 -0.2670 -0.1921
17355W        W34203  13.266   7.209   1.616  0.0447 -0.0669 -0.1660
17356W        W34204   6.782   8.168  14.473 -0.1657 -0.1519 -0.0279
17357W        W34205  15.212   0.592   0.081  0.1729  0.1660 -0.2150
17358W        W34206   9.957  10.109   1.054  0.4023  0.0133 -0.0989
17359W        W34207   9.111   8.152  13.173 -0.0486  0.2396 -0.1776
17360W        W34208   4.493  10.799  12.146 -0.0499 -0.0098  0.2439
17361W        W34209   7.347  15.974   3.320 -0.1073  0.3058 -0.0560
17362W        W34210  12.151  17.209   2.744  0.2208  0.0834 -0.0156
17363W        W34211   4.172   7.301   4.920 -0.2181 -0.2244  0.3312
17364W        W34212   0.389   7.573   3.167  0.0468 -0.0305  0.1375
17365W        W34213  16.337   5.746  12.991 -0.1637  0.0191 -0.1078
17366W        W34214  12.106  14.820   2.789  0.0515 -0.0525 -0.4786
17367W        W34215  15.801   1.217   1.627  0.2437  0.1048  0.1123
17368W        W34216  13.511   9.121   4.283 -0.0201  0.1023 -0.1773
17369W        W34217  11.092   0.857   3.707  0.0356  0.0546 -0.1366
17370W        W34218   7.974   8.047  16.092 -0.3023  0.2114 -0.3254
17371W        W34219  16.495   8.937  14.169 -0.3017 -0.3479 -0.0717
17372W        W34220   5.143  13.206  13.472  0.0958 -0.2060 -0.0163
17373W        W34221  12.859  12.294  12.912 -0.0826 -0.2232  0.0126
17374W        W34222   9.827   1.546  14.852  0.0184  0.1252 -0.0401
17375W        W34223   8.560  10.581   1.107 -0.4025  0.2389 -0.2432
17376W        W34224  13.731   4.239   3.107  0.1884  0.3347  0.2384
17377W        W34225   3.978  10.332   4.512  0.0049 -0.0220  0.1832
17378W        W34226  10.679   5.469  16.075 -0.0280 -0.1278  0.1666
17379W        W34227  13.139   1.843   2.412  0.2756 -0.1319 -0.0915
17380W        W34228  13.479   2.039  13.440  0.2285 -0.3515 -0.2788
17381W        W34229   4.635  14.991   1.817  0.1982  0.0828 -0.0157
17382W        W34230  16.136  17.763  15.324 -0.0400 -0.0949  0.0948
17383W        W34231  16.241  13.870  15.112  0.0075  0.0240 -0.4256
17384W        W34232   4.236   0.848   2.545 -0.1001 -0.1022  0.0348
17385W        W34233   4.514  15.267  13.065  0.2351 -0.0359 -0.0730
17386W        W34234  13.893   1.659   1.919  0.1680 -0.1053 -0.1974
17387W        W34235  12.921  15.662   1.809 -0.1693  0.0207  0.0937
17388W        W34236  12.818  11.005   5.301  0.0201  0.0365 -0.1422
17389W        W34237   0.162   4.541   3.226  0.0794 -0.2399 -0.0261
17390W        W34238   6.983   4.454  12.255 -0.3990  0.1393 -0.1134
17391W        W34239  15.005   9.693  12.278  0.1110  0.0344  0.0875
17392W        W34240  15.963   9.187   0.085  0.1081 -0.2737 -0.0570
17393W        W34241  13.951   4.664  15.517 -0.0082 -0.2866 -0.2281
17394W        W34242   1.635  13.321  12.184  0.1448  0.0080 -0.0877
17395W        W34243  17.120  12.486  13.106 -0.2129 -0.2562  0.0241
17396W        W34244  13.080   8.027  15.415  0.2836 -0.1238 -0.0940
17397W        W34245   4.379   5.331  15.573  0.0994  0.0310 -0.0351
17398W        W34246   7.884  15.649   0.930  0.1982  0.0212  0.5095
17399W        W34247   8.617   1.744   1.724  0.3062 -0.0039  0.1329
17400W        W34248   3.742   1.616  14.149 -0.0000 -0.1745 -0.0783
17401W        W34249   5.896   5.562   0.157  0.2745 -0.0460  0.1854
17402W        W34250  10.396  16.205  14.543 -0.0323 -0.1058 -0.1648
17403W        W34251   3.072  15.684   3.505 -0.0862 -0.2404 -0.2438
17404W        W34252  12.563  12.435  13.616 -0.1023 -0.1107 -0.1509
17405W        W34253  16.373  13.715   4.008  0.0357 -0.0937  0.2636
17406W        W34254   4.543  13.163   3.920  0.1046 -0.0939  0.0674
17407W        W34255   5.859  14.729  12.816 -0.0942  0.1262  0.1085
17408W        W34256   5.518   8.076   1.819  0.1405  0.0605 -0.1872
17409W        W34257   6.058  10.077  12.524  0.3982 -0.0169  0.3750
17410W        W34258  15.862  10.324  13.392  0.1963 -0.1465 -0.2412
17411W        W34259  12.725   6.865   0.237 -0.0602 -0.1484 -0.0741
17412W        W34260  12.444   0.123   3.506  0.2853  0.2205  0.2008
17413W        W34261  12.945  10.765   0.523  0.1344  0.0106  0.1898
17414W        W34262  11.587   2.786   2.745 -0.0070 -0.0371 -0.0023
17415W        W34263   4.301   3.388   2.456  0.0638 -0.0558 -0.0496
17416W        W34264  14.097   9.380   4.886 -0.1377 -0.0182 -0.3861
17417W        W34265   1.126  12.300  12.953 -0.1440 -0.1610  0.1039
17418W        W34266   7.684   3.195   6.130  0.0675 -0.2205  0.4394
17419W        W34267   9.020   6.697  12.245 -0.1307 -0.1178  0.1890
17420W        W34268  13.157   0.217   2.976  0.2035  0.1462  0.0042
17421W        W34269  17.006  10.603   5.161  0.0218 -0.0304  0.3240
17422W        W34270   9.330   6.092   2.833 -0.1022 -0.1596 -0.0648
17423W        W34271   8.211  14.645  12.983 -0.4175 -0.0273 -0.1584
17424W        W34272  17.540  16.601  14.361  0.0235  0.0734  0.1598
17425W        W34273  10.863  14.763  12.679  0.0276 -0.0480 -0.0967
17426W        W34274   7.227  15.626   2.446 -0.0345 -0.0343  0.2870
17427W        W34275   6.132  14.984   2.072  0.0663 -0.3923 -0.0697
17428W        W34276   5.939  16.939  11.219 -0.1296  0.0635 -0.1435
17429W        W34277   5.771   3.496  15.895 -0.0816  0.0583  0.1079
17430W        W34278  15.600  14.302   2.454 -0.2561  0.0167  0.0104
17431W        W34279   4.614  15.809   1.973  0.1828 -0.1841  0.2308
17432W        W34280   4.303   7.213   2.310 -0.1605 -0.0903 -0.0572
17433W        W34281   1.037   7.076  12.066  0.0457  0.1614  0.1732
17434W        W34282   5.935   2.540   5.737  0.1632  0.0999 -0.0960
17435W        W34283   5.454   4.716   0.298  0.1965  0.0326 -0.1364
17436W        W34284  12.742   5.803  13.418 -0.1476 -0.0172  0.0200
17437W        W34285   4.439  14.263   4.694  0.1102  0.0158 -0.2092
17438W        W34286   6.176   9.872  13.909  0.1524 -0.0461  0.0657
17439W        W34287   4.364  14.599  14.952  0.0618  0.0594  0.1194
17440W        W34288  14.873   7.433   1.862  0.0733 -0.2565  0.0030
17441W        W34289  15.250   1.375  15.194  0.0618  0.0108 -0.0215
17442W        W34290   3.584  17.331   3.443  0.1812  0.0785 -0.0842
17443W        W34291   4.249  17.633  12.997  0.2192  0.1857  0.1424
17444W        W34292  10.682  13.781   2.172 -0.1123 -0.0927  0.0451
17445W        W34293   1.226   8.633  15.849 -0.1226  0.1320  0.0519
17446W        W34294  17.451   5.169   5.517  0.3898  0.0408 -0.2438
17447W        W34295   2.819  12.815  14.233 -0.2163  0.2396  0.0931
17448W        W34296   4.786   2.545   1.055  0.0490 -0.0018 -0.1509
17449W        W34297   5.959  16.531   3.544 -0.1084 -0.0513 -0.0744
17450W        W34298   3.247  17.335   2.037  0.0331  0.2132 -0.1476
17451W        W34299   0.063  15.281  12.569  0.1858  0.1285 -0.0127
17452W        W34300   1.822  12.699   1.480  0.0141  0.0515  0.1188
17453W        W34301  13.303  13.963  12.331  0.0386 -0.0952 -0.1828
17454W        W34302  14.530   1.305  14.871  0.0238  0.3595 -0.2083
17455W        W34303   5.396  16.152   1.865  0.2409 -0.0581 -0.3421
17456W        W34304   4.657   1.630   1.981  0.2330 -0.1480 -0.0763
17457W        W34305   2.079   2.428   1.746  0.1475 -0.0574  0.2491
17458W        W34306  16.092  14.265   1.638  0.1701 -0.1713 -0.0573
17459W        W34307  13.726  13.376  13.613 -0.0245 -0.1903 -0.2116
17460W        W34308  17.118  14.670   4.202 -0.4916  0.3140  0.2171
17461W        W34309   5.594  12.706   1.095  0.1389  0.0302  0.3350
17462W        W34310   6.324   1.691   5.339  0.3283 -0.1804 -0.0425
17463W        W34311   2.311   3.054   4.108  0.1969  0.0599  0.2029
17464W        W34312   2.574  11.907  14.534  0.0294 -0.1042 -0.2825
17465W        W34313   8.294  10.502  12.163 -0.0221 -0.1133 -0.0311
17466W        W34314  12.945   1.433   0.682 -0.2107  0.1342 -0.0833
17467W        W34315   7.953   8.809  14.934  0.2855  0.2346  0.2170
17468W        W34316   8.287  14.619   5.188 -0.2350 -0.0724 -0.0203
17469W        W34317   4.736  14.305  13.724  0.1421 -0.0412  0.0914
17470W        W34318   2.250  11.325   0.248  0.0711  0.0389 -0.4396
17471W        W34319   4.023   7.739  12.940 -0.0185 -0.3997 -0.0757
17472W        W34320   5.903   2.757   2.346  0.0143 -0.0409  0.0113
17473W        W34321   1.382   0.722   0.716  0.3239  0.0125  0.0273
17474W        W34322   1.181  14.880   0.928 -0.0059 -0.1418 -0.3110
17475W        W34323  10.731   0.085  16.435  0.1533  0.1682 -0.1557
17476W        W34324   9.929  11.198  16.442 -0.2073 -0.1254 -0.0437
17477W        W34325   6.401  11.673   2.692  0.0783 -0.0851 -0.1311
17478W        W34326   5.781   4.876  15.626 -0.1170 -0.0789 -0.2577
17479W        W34327   7.984   0.142  15.566 -0.3892  0.2073 -0.1620
17480W        W34328  16.479  11.096   3.566 -0.0293  0.0470  0.3477
17481W        W34329  16.319   3.804  14.059  0.2466  0.0686 -0.1175
17482W        W34330   1.847  11.430  14.882  0.0826 -0.3729 -0.1030
17483W        W34331  10.620  12.662   1.507  0.2488  0.4970 -0.0038
17484W        W34332  12.374  15.376  12.693 -0.0040 -0.0831  0.3867
17485W        W34333   0.888   3.597  13.742  0.0666 -0.1423  0.0769
17486W        W34334  10.912   7.348  16.220  0.0413  0.1082 -0.1109
17487W        W34335   4.010  10.082  12.624 -0.0311  0.1187  0.4327
17488W        W34336  12.056   1.819  14.147 -0.0330  0.1954 -0.2293
17489W        W34337  16.253   9.197   2.530  0.0769 -0.1813 -0.0058
17490W        W34338   3.299  14.385  11.787  0.2217 -0.2295  0.0960
17491W        W34339  14.852  13.053   3.082  0.1501 -0.1716 -0.1509
17492W        W34340  10.138   4.749  11.240  0.1455 -0.3303 -0.1019
17493W        W34341  17.872   5.353  12.481  0.0881 -0.1069 -0.0561
17494W        W34342   6.243   3.904  15.462  0.0836  0.0380  0.2327
17495W        W34343   4.954   1.342   4.592 -0.0348  0.1372 -0.0565
17496W        W34344  14.243  12.241   5.454  0.0865  0.0480 -0.2466
17497W        W34345   6.009   8.549  15.363 -0.1147  0.1722 -0.1418
17498W        W34346  10.099   7.610  16.217 -0.2077  0.0619 -0.3672
17499W        W34347   1.528  13.342   0.279 -0.0309 -0.0047 -0.2662
17500W        W34348  16.649   0.327  12.173  0.1032  0.3779  0.1011
17501W        W34349   8.777   7.113  13.711  0.1765 -0.0968 -0.0076
17502W        W34350   8.823  15.820  10.531 -0.1287 -0.1198  0.1410
17503W        W34351  11.292   2.046   2.695 -0.3546  0.1899  0.1478
17504W        W34352   7.427   6.440  13.598  0.1701  0.1406  0.1137
17505W        W34353  11.499  14.632   1.648  0.0374  0.2355 -0.2732
17506W        W34354   1.439   5.681   3.286 -0.0437  0.1589  0.0069
17507W        W34355   2.203  15.742  16.071 -0.0866 -0.2558 -0.1793
17508W        W34356  16.552  12.330  15.442 -0.1840 -0.2327 -0.1469
17509W        W34357  11.946   2.840   1.373 -0.3060  0.0632  0.3024
17510W        W34358   9.707  13.332   0.609 -0.4235  0.4081 -0.0776
17511W        W34359  12.712  14.601  10.393  0.0382  0.1978  0.2262
17512W        W34360   5.822  15.796  13.700  0.1324 -0.2774  0.0621
17513W        W34361  17.624   6.674   0.302  0.1136 -0.2208  0.0373
17514W        W34362   4.889   6.584  13.763 -0.1505 -0.2398 -0.1853
17515W        W34363  11.854   6.776  12.998 -0.1800  0.1107  0.0917
17516W        W34364  10.886  12.980  13.679  0.2107  0.0768 -0.1277
17517W        W34365  17.372   4.472  16.186  0.1181 -0.1800  0.0993
17518W        W34366   9.993   5.088   3.866  0.1274 -0.1032  0.0089
17519W        W34367  14.588   2.141   2.549  0.1760 -0.0338 -0.0836
17520W        W34368   7.856   9.871   2.986 -0.1102  0.1155 -0.3363
17521W        W34369   5.002  13.894   3.991  0.0636  0.3818 -0.1545
17522W        W34370  16.173  11.737   0.692  0.1947  0.3044 -0.0147
17523W        W34371  17.234   3.763  13.874 -0.0243 -0.1549 -0.3490
17524W        W34372  12.238   2.821  14.581 -0.0753  0.4427 -0.1192
17525W        W34373  16.087  13.586  10.690  0.0359 -0.0523 -0.0754
17526W        W34374  17.091   9.865  16.172  0.0218 -0.0988  0.0587
17527W        W34375   7.734   8.543   4.464 -0.1698 -0.3066  0.0388
17528W        W34376   5.225   8.797  11.368  0.0532 -0.0318  0.1542
17529W        W34377   4.278  16.289  12.286  0.0337 -0.0744  0.2388
17530W        W34378   9.697  13.376  15.340 -0.2756 -0.1324 -0.1040
17531W        W34379   5.301  13.623   1.126  0.0720 -0.3394  0.1839
17532W        W34380   1.228  12.435   1.366  0.1286  0.0095  0.4323
17533W        W34381   0.649   4.114  13.546  0.2099  0.2329  0.0331
17534W        W34382   5.463  13.255   1.363 -0.2281 -0.1373 -0.0756
17535W        W34383   6.895  17.088   2.058  0.2106 -0.2050  0.0958
17536W        W34384   3.243   8.905   3.901 -0.2260 -0.1844  0.0115
17537W        W34385   2.303   6.427  14.343 -0.0698 -0.1771 -0.0733
17538W        W34386   9.718  12.904  12.987  0.2082  0.0775  0.0079
17539W        W34387   7.472  11.744  15.587 -0.4403  0.1930 -0.0083
17540W        W34388  13.998   5.295   2.338 -0.1763 -0.0700  0.2058
17541W        W34389   9.228  16.631   4.637  0.0466  0.0953 -0.0158
17542W        W34390   9.804   2.415   3.020 -0.1900  0.2412 -0.1816
17543W        W34391   3.679  16.542   0.605 -0.0643 -0.0826  0.0495
17544W        W34392   0.300  13.296  11.914 -0.2853  0.0690 -0.0364
17545W        W34393   2.336   0.502   4.830 -0.0234 -0.1178 -0.2359
17546W        W34394   1.665   6.687  15.422 -0.0312 -0.2313  0.1886
17547W        W34395   1.898   3.751   6.251 -0.0990  0.1649  0.1364
17548W        W34396  14.653   2.634   1.739 -0.0339 -0.1701  0.3386
17549W        W34397  12.248   0.494   5.224 -0.0101 -0.1475  0.0919
17550W        W34398  12.277   3.694   0.255  0.1832 -0.1325 -0.0510
17551W        W34399   7.845  12.313  12.094 -0.2208  0.2542  0.0981
17552W        W34400  12.498  11.689  13.155  0.2937 -0.1996 -0.0010
17553W        W34401  11.357   6.888   0.461  0.0010  0.1420  0.1635
17554W        W34402   9.557  13.346   3.287 -0.0268  0.1580  0.3613
17555W        W34403  15.110   7.156  13.729 -0.1206  0.1563 -0.0681
17556W        W34404   8.705  11.231  15.869 -0.1511  0.2856  0.0180
17557W        W34405  10.236  15.424  16.089 -0.0001  0.3008 -0.3245
17558W        W34406   5.966   5.828  16.179  0.0759 -0.0454 -0.3121
17559W        W34407   0.885  14.092   0.491  0.2361 -0.2027  0.3249
17560W        W34408   8.082  10.327   4.219  0.0910  0.1427  0.0353
17561W        W34409  12.169   8.563   0.674  0.1213  0.0500  0.4594
17562W        W34410  10.482  12.366  14.187  0.0905 -0.1338 -0.1160
17563W        W34411  14.383   5.544  14.369  0.2983  0.2245 -0.2656
17564W        W34412   8.841   5.047  13.968  0.1302  0.1727 -0.2444
17565W        W34413   6.191  17.407  14.100  0.1297 -0.0947 -0.1643
17566W        W34414  16.568   4.834   5.027  0.0814 -0.2648  0.0613
17567W        W34415   9.438  11.322  15.320  0.1164 -0.2581 -0.0222
17568W        W34416   9.779   2.263   2.562 -0.4785 -0.0832  0.0626
17569W        W34417   1.330   8.225  15.443  0.0340 -0.0752  0.3319
17570W        W34418   2.639   2.600   1.748 -0.2002  0.0859  0.1288
17571W        W34419   8.613  10.266   6.169 -0.1300 -0.1934  0.0169
17572W        W34420   3.619  10.769  12.204  0.0027 -0.0022  0.1087
17573W        W34421   1.561   6.050  14.670 -0.1840 -0.0644  0.3073
17574W        W34422   8.492   9.049  13.914 -0.0780 -0.2044 -0.1096
17575W        W34423   0.111  12.965  14.720  0.0459 -0.0439  0.3862
17576W        W34424   0.952   6.226   0.131  0.1815  0.0176  0.0720
17577W        W34425  11.739  14.199  10.456 -0.1984 -0.3326  0.3284
17578W        W34426   5.394   8.027   4.811  0.2343  0.2519 -0.2133
17579W        W34427  10.438  16.112   4.693  0.0045  0.3611  0.0161
17580W        W34428   6.303   6.953   3.914  0.0407 -0.1597 -0.1246
17581W        W34429  16.864   9.148   1.636 -0.2329  0.0234  0.0624
17582W        W34430   8.718   0.427   2.893 -0.0097 -0.0946 -0.1281
17583W        W34431  16.695  17.331  12.448  0.2076 -0.1412  0.0690
17584W        W34432   9.321   1.233   0.058 -0.4046  0.0161  0.0105
17585W        W34433   3.434   2.612  13.883  0.1244 -0.1058 -0.1389
17586W        W34434  10.103  10.131   0.167 -0.0048  0.0988  0.2853
17587W        W34435   4.650  11.478  15.082  0.1908  0.0570  0.5024
17588W        W34436  15.282   2.438   4.427 -0.1629 -0.0532 -0.4196
17589W        W34437  15.963   4.111   4.136  0.0820  0.1175  0.0159
17590W        W34438  14.418  13.927  15.689 -0.0585 -0.1792 -0.2289
17591W        W34439   5.720  10.485  12.332  0.1349  0.0459  0.0664
17592W        W34440  15.070   3.207  13.638 -0.2538  0.0396  0.1069
17593W        W34441  10.245   9.222  14.338  0.1065  0.1680  0.2076
17594W        W34442   3.133   1.323  12.590  0.1244  0.3061  0.0847
17595W        W34443   1.704  17.336  15.699  0.1240 -0.1049 -0.1990
17596W        W34444  12.847   9.009   5.026  0.3229 -0.0208  0.0347
17597W        W34445  14.589  11.926   3.662 -0.0604  0.0540  0.0748
17598W        W34446   1.137   5.948   4.911 -0.2633 -0.0526 -0.1601
17599W        W34447   0.238  10.439   5.348 -0.3107 -0.1648  0.1783
17600W        W34448   9.736  13.895   5.599 -0.1237  0.2096 -0.0725
17601W        W34449   8.393   3.809  14.433 -0.1242 -0.2616 -0.2182
17602W        W34450   7.479   1.190   4.700 -0.1005  0.3632 -0.1482
17603W        W34451   9.624   1.721  16.238  0.0477 -0.1392 -0.3258
17604W        W34452   7.151  12.144  13.713 -0.0519 -0.0433  0.4088
17605W        W34453  16.692  10.090   0.484  0.1686 -0.0675  0.4312
17606W        W34454   8.389  15.747   0.962  0.2801  0.1764  0.0246
17607W        W34455   4.964  15.221  12.838 -0.0142 -0.2705 -0.1338
17608W        W34456   3.905   7.064   2.798  0.0413 -0.1585 -0.1549
17609W        W34457   1.710   1.906   2.119  0.0057 -0.1954 -0.4668
17610W        W34458   4.539   9.902  13.462  0.2625 -0.0524  0.1446
17611W        W34459   4.118   5.511   5.116 -0.2599 -0.0275  0.1137
17612W        W34460   3.436   3.387   5.097 -0.1251 -0.0966  0.2227
17613W        W34461  10.105   9.321  12.046 -0.0454  0.0396  0.0467
17614W        W34462   1.588  13.897   5.406  0.1008 -0.2931 -0.0923
17615W        W34463  15.027  10.321  15.211  0.2012  0.0837  0.0047
17616W        W34464   6.668  14.032  13.707 -0.1292  0.1134 -0.0550
17617W        W34465  14.803   5.109   4.013  0.0751  0.3092 -0.0124
17618W        W34466   0.124  10.678   4.920 -0.0620 -0.2092 -0.1671
17619W        W34467   6.612  17.010   2.443  0.1270 -0.4413  0.2087
17620W        W34468  13.524   7.816  11.479  0.2196  0.2863  0.2976
17621W        W34469  11.243   2.836  15.384  0.1169 -0.1157  0.3983
17622W        W34470   0.993   3.207  12.768  0.2738 -0.1347 -0.1277
17623W        W34471   8.317   5.669   3.516  0.0685  0.0219  0.1980
17624W        W34472  13.733   3.996  12.879 -0.0862  0.0037 -0.3750
17625W        W34473   4.874   4.225   0.706 -0.1801  0.2218 -0.0543
17626W        W34474   9.707   9.211  14.603 -0.3560 -0.1887 -0.1169
17627W        W34475  13.767   7.575   3.429 -0.1650 -0.1322  0.0775
17628W        W34476   6.616   6.213   0.544  0.0505 -0.1422  0.0650
17629W        W34477  12.594  17.160  15.701 -0.0880  0.4601 -0.0652
17630W        W34478  13.776   8.054  14.437  0.1796 -0.0839 -0.5816
17631W        W34479   9.946  13.207   1.221 -0.1548 -0.0911 -0.3439
17632W        W34480   1.331   2.968   1.293  0.2957 -0.0192  0.2423
17633W        W34481   8.556   1.100   0.373  0.0037 -0.2877 -0.0817
17634W        W34482   1.361   1.602   0.036  0.0830  0.0458 -0.1181
17635W        W34483   6.245   0.754  10.763  0.1585  0.1268  0.0102
17636W        W34484  12.063  13.791  11.695  0.4260 -0.2866  0.0006
17637W        W34485   3.551   6.797   2.609  0.2080 -0.1427  0.1295
17638W        W34486   1.441   3.953   2.349  0.3143  0.1616 -0.1466
17639W        W34487   7.333  17.557  14.914  0.0642  0.0633  0.0498
17640W        W34488  16.290  15.021   1.036 -0.1220 -0.7307 -0.1881
17641W        W34489  16.539  14.697  15.575  0.3205  0.1054  0.1565
17642W        W34490   9.924   6.037   1.348  0.2276 -0.1657 -0.2203
17643W        W34491   2.783   2.553   1.199  0.2052  0.1577 -0.0398
17644W        W34492  14.821   3.241  15.218 -0.4976  0.0517  0.1055
17645W        W34493  15.313   0.953   1.463  0.0714 -0.0955 -0.1236
17646W        W34494   6.586  12.618  14.050  0.2072 -0.1093 -0.1050
17647W        W34495  11.278   3.690  16.425 -0.2806  0.0547  0.1058
17648W        W34496  14.204   7.665  12.113 -0.0376  0.1546  0.0080
17649W        W34497   5.249  16.344   1.336 -0.1360  0.0214 -0.2534
17650W        W34498   4.494   2.077   1.982 -0.1747 -0.2649 -0.0693
17651W        W34499  15.640  14.421   0.659 -0.0713  0.3440  0.0708
17652W        W34500  16.962  13.559  11.985  0.4340 -0.0850 -0.0281
17653W        W34501   3.481   6.107   2.114 -0.1686 -0.0429  0.0198
17654W        W34502   2.711   2.401  15.240 -0.1130  0.0933  0.2102
17655W        W34503   8.080  12.983  15.632  0.0858 -0.0902  0.1725
17656W        W34504   8.630   4.802   0.866  0.2479  0.1203  0.2132
17657W        W34505  13.222   0.740   2.807  0.2425 -0.0569 -0.0281
17658W        W34506   8.501   3.964  13.030  0.2048 -0.1843 -0.0451
17659W        W34507   3.613   5.492   4.486  0.3228  0.1084 -0.1013
17660W        W34508  11.123  13.387  13.559 -0.3437  0.1406  0.2278
17661W        W34509   3.881  10.781   4.693  0.3211  0.0798  0.0085
17662W        W34510  10.613   9.258   3.108 -0.4762  0.1888 -0.0924
17663W        W34511  16.230   6.067   4.496  0.2267 -0.0951  0.0100
17664W        W34512   7.522  12.783   4.003  0.1067 -0.2333 -0.0845
17665W        W34513  15.749   1.561   2.884  0.0768 -0.1452  0.2191
17666W        W34514   7.641   2.669  11.692  0.1920  0.2539 -0.0036
17667W        W34515  13.637   4.228  16.324 -0.2272  0.0808  0.0475
17668W        W34516   3.541   4.457   2.813  0.0478 -0.1918  0.0445
17669W        W34517  12.027  11.871   2.823 -0.2295  0.1088 -0.0645
17670W        W34518  11.224  11.913  14.808 -0.1953 -0.1610  0.0767
17671W        W34519  10.448   3.746  11.974 -0.2130 -0.0554 -0.1312
17672W        W34520   9.243   1.387   2.439 -0.1273  0.0057 -0.2632
17673W        W34521  14.982   9.778   4.565 -0.0936 -0.0980 -0.0263
17674W        W34522   9.350  12.207  13.124  0.0252 -0.2585 -0.2288
17675W        W34523   8.424  12.460  13.224 -0.3213 -0.1730  0.0194
17676W        W34524   5.184  17.851   4.802  0.0050  0.1868  0.0938
17677W        W34525  11.614  13.538  11.755  0.0190 -0.1103 -0.0337
17678W        W34526  14.863   8.597  14.651  0.1214 -0.0099 -0.0746
17679W        W34527   3.090   7.214   2.667  0.1094 -0.0881  0.0876
17680W        W34528  12.423  16.826  14.332  0.2299  0.2702  0.0262
17681W        W34529  17.251   4.411   2.676 -0.3623 -0.2362 -0.0463
17682W        W34530   4.996  13.215   2.651 -0.1891 -0.1323  0.0900
17683W        W34531  16.721  17.561   2.373 -0.1852  0.3111 -0.0643
17684W        W34532   6.501  16.074  12.588 -0.0576 -0.1359  0.2525
17685W        W34533  11.498   2.347  11.074  0.3528 -0.2309 -0.1692
17686W        W34534  15.985  17.663   3.769 -0.1391  0.1925 -0.1157
17687W        W34535  17.067  13.176  13.595  0.1777  0.4952 -0.1972
17688W        W34536  13.063   8.991   4.047  0.0384 -0.0731  0.1797
17689W        W34537  10.695  15.556  13.375 -0.0378  0.1984 -0.2141
17690W        W34538   9.938  17.739  11.487  0.0037  0.0943 -0.1831
17691W        W34539  16.677  10.824   2.098 -0.1214  0.1094 -0.2669
17692W        W34540   8.807   9.578  11.682 -0.0703 -0.2265 -0.0571
17693W        W34541   7.019  16.503  11.935  0.0892 -0.0492 -0.2678
17694W        W34542  13.028   9.475  11.404 -0.1088  0.4356  0.3114
17695W        W34543  14.281   9.727  13.968 -0.2821 -0.1373  0.0682
17696W        W34544   3.496  15.751  14.472 -0.0163  0.1768  0.4607
17697W        W34545   7.063  11.824  14.860  0.2343 -0.0359 -0.0091
17698W        W34546  10.012  17.069   1.953  0.0138  0.1456 -0.3316
17699W        W34547   9.167  12.538   2.166  0.3794 -0.1369 -0.4422
17700W        W34548   7.993  10.563   0.381 -0.1517 -0.0499  0.0515
17701W        W34549   0.793   9.539  12.004 -0.0556 -0.3315  0.0060
17702W        W34550  16.286   4.598   3.207 -0.0339 -0.0291 -0.1480
17703W        W34551   7.606   5.566   1.834  0.1183  0.0544 -0.1417
17704W        W34552   2.270   3.974   0.202 -0.0201  0.0919  0.3585
17705W        W34553  15.909   5.381  15.798 -0.1628 -0.0529  0.1079
17706W        W34554  11.235  12.929   2.739  0.1771  0.5655 -0.2426
17707W        W34555  10.238   9.888  13.735 -0.1760  0.0547 -0.0422
17708W        W34556  10.780  10.276  12.974  0.0494  0.4086 -0.1153
17709W        W34557   1.675  17.584   3.996  0.1427 -0.1574 -0.2136
17710W        W34558  16.557  17.555   4.620  0.0463  0.2213 -0.0739
17711W        W34559  11.708   1.821   2.977  0.0344  0.2401  0.1864
17712W        W34560  14.266  13.637  14.762  0.1318 -0.0266  0.0908
17713W        W34561   1.606  13.652  13.351  0.0856  0.0095  0.0936
17714W        W34562  16.424   5.759   4.972 -0.1394  0.1752  0.1213
17715W        W34563  14.149  16.211  14.249 -0.0681 -0.1120 -0.1477
17716W        W34564  17.422   1.261  12.946  0.2379 -0.1609 -0.2170
17717W        W34565   9.762   9.353  12.409 -0.1225 -0.0367  0.1861
17718W        W34566  14.824   7.128   4.904 -0.2167  0.0455 -0.1082
17719W        W34567   4.882   8.187   3.908  0.0170 -0.4926 -0.0636
17720W        W34568  14.686   8.147   4.713 -0.2413 -0.1369  0.3305
17721W        W34569   7.268  11.436   4.643 -0.2930  0.0788 -0.2108
17722W        W34570   4.186  14.967   6.098  0.2184  0.1378  0.2313
17723W        W34571   6.818   0.091   0.890  0.1824 -0.0894  0.1162
17724W        W34572   7.767   7.515   0.525  0.1040  0.0391  0.2652
17725W        W34573  15.942   7.505  16.218 -0.2230  0.0270  0.1057
17726W        W34574  15.508  17.526   2.093  0.2496 -0.2070 -0.2414
17727W        W34575  10.168  10.501   1.409  0.0442 -0.0844 -0.0758
17728W        W34576  13.650  11.962   1.987 -0.0560 -0.0293  0.1766
17729W        W34577   8.394  11.317  13.988 -0.0945  0.0705 -0.0250
17730W        W34578  11.465   2.409  13.314  0.1397  0.1699 -0.0899
17731W        W34579  17.367   8.342   1.878  0.1780  0.0212 -0.2328
17732W        W34580   8.539   3.360  14.469  0.0235 -0.1404 -0.0796
17733W        W34581   5.191   0.911   2.187  0.1261  0.1229 -0.3778
17734W        W34582  10.189   1.222   0.585  0.1174 -0.0144  0.1307
17735W        W34583   2.443  16.456  11.741  0.0297 -0.0557 -0.0337
17736W        W34584  15.073   7.982   0.365  0.2364  0.2192  0.0438
17737W        W34585   6.089   6.210   4.363  0.0751 -0.3249 -0.0903
17738W        W34586  11.865   1.102   4.262  0.2215 -0.0935 -0.1107
17739W        W34587  13.923   0.813  14.200  0.1496 -0.0378 -0.1725
17740W        W34588  12.727  17.600  11.406  0.1157 -0.0820  0.0850
17741W        W34589  11.432  13.623  14.054 -0.1464  0.1858  0.2536
17742W        W34590   9.533   9.313   0.707  0.1107  0.0037 -0.3672
17743W        W34591   0.764  15.023   3.493  0.0777  0.0042 -0.0622
17744W        W34592  10.981   0.573  14.104  0.0501 -0.2373  0.1252
17745W        W34593  15.427   2.172  13.317 -0.0881 -0.0279  0.0102
17746W        W34594   6.202  15.416   0.140 -0.0493 -0.0305  0.0354
17747W        W34595   2.310   4.497   0.365 -0.1267  0.2022  0.2055
17748W        W34596  13.255  12.754  15.436 -0.0563 -0.0992 -0.1625
17749W        W34597  15.111   0.139   0.328 -0.4155  0.1107  0.2358
17750W        W34598   4.084   6.474  15.515  0.0969  0.0912  0.1727
17751W        W34599   5.788   8.968  16.277 -0.0272 -0.0671  0.0270
17752W        W34600   5.927  17.825  15.606  0.0610  0.2116  0.1954
17753W        W34601   7.743  10.325  14.655 -0.0265 -0.0812  0.2637
17754W        W34602  10.288   9.076  16.075 -0.0872 -0.2525 -0.1164
17755W        W34603   8.834   4.385   3.480 -0.3529 -0.1328  0.1572
17756W        W34604   8.784  11.714  13.591 -0.0310 -0.1215 -0.2800
17757W        W34605   3.062   4.499  12.898 -0.1768 -0.1647  0.2534
17758W        W34606   7.431  13.601  16.350  0.0450 -0.2290 -0.4087
17759W        W34607   9.546   4.013   5.032  0.0036  0.0729  0.0286
17760W        W34608   5.068  12.036   4.455 -0.0441 -0.2811 -0.2593
17761W        W34609   3.917  11.684  12.801  0.3022  0.2352 -0.3263
17762W        W34610   9.154  17.574  13.960 -0.0041 -0.2917  0.2970
17763W        W34611   3.459   8.366   2.710 -0.1717  0.0532  0.1317
17764W        W34612  16.925   5.633   4.869  0.0764 -0.0623 -0.2105
17765W        W34613  12.740   6.067  14.625 -0.2221  0.0508 -0.0750
17766W        W34614   3.084   8.345  15.811  0.0510 -0.2989  0.0587
17767W        W34615   9.398   9.705   5.470  0.0828 -0.1670  0.0679
17768W        W34616  10.786   4.849   0.499  0.0652 -0.0320  0.0338
17769W        W34617   6.654  16.720  11.662 -0.0491  0.0876 -0.0808
17770W        W34618  12.523   9.532   0.750 -0.1112  0.0366 -0.0705
17771W        W34619   5.803   9.836  13.592  0.2151  0.0285 -0.0567
17772W        W34620  10.949   4.882  12.040  0.0255  0.3786  0.0946
17773W        W34621   3.184   0.154   2.762  0.3592 -0.0966 -0.2370
17774W        W34622  17.279   6.064  12.851 -0.0369 -0.0921 -0.0109
17775W        W34623  10.554   1.331  13.653  0.2020  0.0110 -0.0294
17776W        W34624  13.637  11.748  12.596 -0.1743 -0.1199  0.0944
17777W        W34625   9.994   0.274   4.226 -0.2204  0.2212  0.1182
17778W        W34626  17.767  15.765  11.237 -0.0669 -0.2075  0.0792
17779W        W34627   1.470   5.800  13.436 -0.0172 -0.1351  0.0694
17780W        W34628   6.963  12.657  14.366  0.1178  0.0774 -0.3762
17781W        W34629   1.001   1.734   1.502 -0.0019  0.2563  0.1898
17782W        W34630   8.423  14.325   2.417 -0.1319 -0.1897  0.1919
17783W        W34631  17.424  17.077  15.279  0.1692  0.1944 -0.0821
17784W        W34632   8.301  14.718   1.180  0.0456 -0.0100  0.5134
17785W        W34633   7.472  16.032  11.673  0.2238  0.3113  0.1833
17786W        W34634   4.021   6.141  14.672  0.0918 -0.0486 -0.3967
17787W        W34635   8.970   2.344   0.957  0.0142 -0.2612  0.1040
17788W        W34636  10.953   8.694  12.432 -0.1991  0.1545 -0.0742
17789W        W34637  12.343   2.124  11.964  0.3069  0.4286 -0.1873
17790W        W34638   0.851   5.773  12.593 -0.1775  0.1153  0.2626
17791W        W34639  12.264   4.126   1.502 -0.1470 -0.1641 -0.0570
17792W        W34640  14.616   8.718   0.016 -0.3243 -0.0996 -0.0614
17793W        W34641   6.124   9.867  15.274 -0.4890 -0.1174 -0.1368
17794W        W34642   9.595  14.653   6.244 -0.0165 -0.0379 -0.0375
17795W        W34643   6.160   2.414  12.019  0.0005 -0.1273  0.1388
17796W        W34644   3.219  10.033  14.879 -0.3628  0.0691  0.0684
17797W        W34645   3.405  16.953   5.289  0.1634 -0.2317 -0.2013
17798W        W34646   2.704  13.599   2.174 -0.0080 -0.0428  0.0163
17799W        W34647   3.960  16.881   2.422  0.1293 -0.2330  0.3393
17800W        W34648   3.608  11.788  13.421 -0.2104 -0.0088  0.2561
17801W        W34649   9.827   3.667  12.922  0.2019  0.1032 -0.0925
17802W        W34650   7.603  11.431   2.790 -0.0747 -0.3626  0.1055
17803W        W34651   2.427   5.345  16.060  0.1843 -0.2790  0.0721
17804W        W34652   4.660   5.766  14.602 -0.0406 -0.0360  0.2104
17805W        W34653   9.381  13.355  12.076 -0.0300  0.2708  0.0410
17806W        W34654   3.955   4.842  15.788 -0.0352 -0.0881 -0.1221
17807W        W34655   1.294   1.561  11.608 -0.0322  0.2794  0.1277
17808W        W34656  10.188  14.551  14.565  0.0570  0.3627  0.2643
17809W        W34657  12.336  12.547  11.300  0.1141 -0.0996 -0.1375
17810W        W34658  16.832   2.647   4.790 -0.0978  0.1155  0.3408
17811W        W34659  12.827   3.355   1.299  0.0175  0.0416  0.2681
17812W        W34660  12.408   4.264  15.538 -0.0109 -0.0494  0.0247
17813W        W34661  13.678  15.117   0.869 -0.2632  0.2236  0.3460
17814W        W34662  15.951   8.935   1.778  0.0786  0.2592  0.1992
17815W        W34663  16.543  13.281   0.402 -0.1312 -0.2616  0.1866
17816W        W34664  15.534  15.419   2.322  0.1079 -0.1822 -0.0999
17817W        W34665   6.496  14.034   1.601 -0.3654 -0.1873 -0.0085
17818W        W34666   0.960  17.368  15.998 -0.0948  0.0892  0.2531
17819W        W34667  17.747   8.511   5.849  0.3536  0.0729  0.1695
17820W        W34668   8.011  15.147  10.646  0.0664  0.3156  0.0293
17821W        W34669   7.501   2.441   1.746 -0.1442  0.2293 -0.2225
17822W        W34670   8.840   4.039   1.870  0.3771  0.1122  0.0287
17823W        W34671   7.652   6.683  16.414  0.0007 -0.2555 -0.1688
17824W        W34672  12.619  11.356   0.107 -0.1749 -0.0084 -0.0598
17825W        W34673  12.003   3.130   5.632 -0.2289  0.1906 -0.0415
17826W        W34674   0.934  16.778  12.754  0.3127 -0.4609 -0.0626
17827W        W34675   7.451   7.800   0.949  0.1232 -0.1384  0.0204
17828W        W34676  11.283   6.155  12.485 -0.0857 -0.1156  0.1290
17829W        W34677  14.275  16.062  16.158  0.2413 -0.1125  0.1039
17830W        W34678  12.570  14.221   0.161 -0.1914 -0.0939 -0.0762
17831W        W34679   0.039  17.719   3.218  0.2282  0.1501 -0.0368
17832W        W34680  11.828   4.361   0.134 -0.1505 -0.0469  0.0940
17833W        W34681  11.729   7.497  11.158  0.2693  0.0989 -0.2849
17834W        W34682  10.077   2.590  15.876  0.1538 -0.0573 -0.0657
17835W        W34683   6.148   8.538  14.839  0.4424  0.0904 -0.2146
17836W        W34684  12.974   9.921   5.850  0.3457  0.0149  0.2469
17837W        W34685   3.869   6.937  15.686  0.0021  0.1937  0.0840
17838W        W34686   9.992  13.155   0.231 -0.1997 -0.0509  0.0538
17839W        W34687   7.523  11.825   3.276  0.0821 -0.1359  0.0215
17840W        W34688   6.768   8.109   0.664 -0.1430 -0.3123  0.2222
17841W        W34689   0.019  16.218  12.800  0.1251 -0.0221 -0.0338
17842W        W34690  13.056  11.113   4.362  0.0016 -0.0917  0.0222
17843W        W34691  13.731   2.344   2.991  0.1584 -0.1360 -0.0656
17844W        W34692  14.554  16.374   3.668 -0.0025 -0.0692 -0.2797
17845W        W34693   5.578   8.822  15.413  0.2735 -0.2797  0.0078
17846W        W34694   5.703   4.411  12.625 -0.2773 -0.1862 -0.1741
17847W        W34695   6.795  12.431  15.586 -0.0390 -0.0558 -0.1696
17848W        W34696   4.302   5.370  12.277  0.0311  0.2098  0.0539
17849W        W34697  11.721   8.565   2.996  0.0828  0.2037 -0.0328
17850W        W34698   0.032   3.255   3.183  0.2356 -0.1360  0.0820
17851W        W34699   9.513   3.892   2.606  0.3100  0.1567 -0.2242
17852W        W34700   7.429  15.478   1.038  0.1260 -0.4030 -0.0459
17853W        W34701  14.337  10.622   0.171 -0.0315  0.2733 -0.2070
17854W        W34702  15.567   5.156   1.091  0.0518 -0.3726  0.0305
17855W        W34703  15.810  12.186   4.215 -0.0003 -0.2936  0.2067
17856W        W34704  14.958   6.978   1.694  0.1362 -0.0656 -0.1633
17857W        W34705   8.506  10.131   5.272 -0.0649  0.3288  0.0746
17858W        W34706   7.453   3.598   4.434 -0.2000  0.2185 -0.1125
17859W        W34707   5.181   4.840   1.741 -0.0934 -0.2484  0.0856
17860W        W34708   6.224   0.396   5.547 -0.0120  0.0229 -0.0868
17861W        W34709  10.659   9.324  16.266 -0.0820  0.4341 -0.1306
17862W        W34710   9.614   1.021   1.997 -0.1791  0.3097 -0.0666
17863W        W34711   0.085   5.805   3.790  0.2367  0.0830  0.2015
17864W        W34712   8.550   3.006   4.981 -0.0721  0.0421  0.4377
17865W        W34713  16.584  10.592  10.411  0.0142 -0.2544 -0.1096
17866W        W34714   2.288   6.644   4.030 -0.0473 -0.0313  0.1043
17867W        W34715   9.029  14.480   5.393  0.1736 -0.0863 -0.0557
17868W        W34716  10.723  17.630   3.961  0.5164 -0.2470 -0.3609
17869W        W34717  10.772   9.948   2.541  0.2678  0.0903 -0.0765
17870W        W34718   6.260  12.697  16.138 -0.0154  0.0181  0.0219
17871W        W34719   8.534   1.367  13.658 -0.0314  0.0040  0.0738
17872W        W34720  12.286  12.078   5.125  0.0813  0.2175 -0.2112
17873W        W34721   8.831  11.301   6.080 -0.0498 -0.0529  0.1814
17874W        W34722   6.078   9.413   3.607 -0.2301 -0.0920  0.0809
17875W        W34723  15.496   9.262  15.794 -0.1544  0.0804  0.1092
17876W        W34724   9.684   1.359   3.032  0.0874  0.0563  0.2645
17877W        W34725  14.363   5.680  11.402  0.0658 -0.1972  0.2453
17878W        W34726   2.415  10.648   3.497 -0.0467 -0.0244 -0.1541
17879W        W34727  14.783   7.453  12.151  0.1170 -0.1014  0.2702
17880W        W34728   6.177   5.386   4.121  0.1315 -0.3433  0.1437
17881W        W34729   1.917  13.271   2.228  0.3465 -0.0173  0.2027
17882W        W34730   1.562   8.217   0.375 -0.1614 -0.0652  0.0836
17883W        W34731   6.266   0.512  14.435  0.1540 -0.0633 -0.0924
17884W        W34732   4.003  10.329   0.996  0.1796  0.0737  0.0159
17885W        W34733   0.108   7.309   0.833  0.1128 -0.0886  0.1281
17886W        W34734  12.231  14.276  13.278  0.2117 -0.2491 -0.0078
17887W        W34735  16.207  13.535   2.033  0.3106  0.1140  0.1179
17888W        W34736   1.802   3.338  12.509 -0.2854 -0.2461  0.1938
17889W        W34737  12.433   1.636   4.206  0.0516  0.0970  0.1731
17890W        W34738  12.432   7.017  11.341  0.1234 -0.0808  0.1330
17891W        W34739   8.853  14.103   0.624  0.0207 -0.3727  0.2221
17892W        W34740   3.490  14.056   2.744  0.0747  0.0009 -0.0584
17893W        W34741   8.010  15.822   2.180  0.1007  0.1133 -0.1087
17894W        W34742   6.794  11.315   4.762  0.1458  0.1994  0.0512
17895W        W34743   3.370  14.612   4.848 -0.1116  0.1974 -0.0685
17896W        W34744   4.091   2.611  12.177 -0.1094 -0.0472  0.0039
17897W        W34745  16.604   6.171   4.191  0.0075  0.2229  0.2655
17898W        W34746   7.335   7.992   1.416  0.2528  0.2853 -0.1215
17899W        W34747   7.662   0.087  15.950 -0.1864  0.0841  0.1626
17900W        W34748  12.712  13.510   2.992 -0.1544 -0.2298 -0.1134
17901W        W34749   2.009   5.872  10.212  0.1860 -0.2804  0.3086
17902W        W34750  13.188  11.611  11.387  0.0070 -0.0004 -0.0901
17903W        W34751   6.048   1.915   3.029 -0.1353  0.1533  0.1010
17904W        W34752  16.036  17.342  15.662  0.3192 -0.4057  0.1844
17905W        W34753  15.260  16.754  15.876  0.0821  0.2523 -0.1775
17906W        W34754  13.970   3.021  11.938  0.4238 -0.0433 -0.1851
17907W        W34755   6.069  10.359   3.156 -0.0611 -0.1596 -0.0439
17908W        W34756   7.849  14.376  16.000  0.2348 -0.1560 -0.1668
17909W        W34757   2.691   7.932   2.940  0.0011  0.1809  0.2653
17910W        W34758  10.187   4.846  13.624 -0.0580 -0.0981 -0.1690
17911W        W34759   6.654   3.481  15.504 -0.1385 -0.0472 -0.0014
17912W        W34760   2.087   1.512  10.283  0.3938  0.0466 -0.0831
17913W        W34761  16.588   1.562  13.914 -0.1517  0.1698 -0.0985
17914W        W34762   8.780  12.075  11.136  0.0406  0.0543 -0.0237
17915W        W34763   2.570   5.533   1.101 -0.0342  0.0448 -0.2640
17916W        W34764   9.244  11.652   4.405  0.1413  0.2989  0.1269
17917W        W34765   0.480   1.255   2.694 -0.2955 -0.1110 -0.0164
17918W        W34766   0.546   8.663   2.217  0.0828 -0.1212 -0.0475
17919W        W34767   9.905   9.954  15.178  0.0430  0.2356  0.0148
17920W        W34768  12.906   9.863  13.964 -0.2015  0.3524 -0.0126
17921W        W34769  17.196   4.828  14.686  0.0820  0.0532  0.4158
17922W        W34770  12.370  17.707  14.464  0.1400  0.0380  0.0629
17923W        W34771  17.702   1.787  16.334  0.0798  0.2038  0.1092
17924W        W34772  13.013   2.346  12.851  0.4197 -0.0875 -0.1651
17925W        W34773  11.452   3.944  14.903 -0.3780  0.2189 -0.0588
17926W        W34774  10.289  16.010   2.873 -0.3895 -0.0921 -0.0879
17927W        W34775   6.817   0.922  13.153  0.1835 -0.0100 -0.1758
17928W        W34776  10.274   0.124   1.708 -0.1550 -0.2101 -0.1498
17929W        W34777   9.296  10.447  16.255 -0.2742  0.3026 -0.2258
17930W        W34778  12.423   4.611  10.908 -0.0103 -0.2288 -0.1453
17931W        W34779  14.157   6.702  11.834  0.2665 -0.0518 -0.1403
17932W        W34780  15.834  16.817  14.225 -0.2446 -0.1199 -0.0124
17933W        W34781   1.320  13.483  11.150  0.1810  0.1496  0.1942
17934W        W34782   7.264   1.727  12.066  0.0545 -0.5726  0.1918
17935W        W34783  11.366  17.550   3.152  0.3105 -0.2304 -0.0353
17936W        W34784   9.077   7.813   4.294 -0.1033 -0.2865  0.0110
17937W        W34785  15.721   9.527  15.168  0.0157 -0.1659  0.0898
17938W        W34786   9.023   8.300  16.329  0.1737  0.0183  0.0265
17939W        W34787  10.962   5.001  13.993 -0.0957 -0.0312 -0.2058
17940W        W34788   4.481   2.022  14.080  0.0302  0.0065 -0.3343
17941W        W34789  12.578   7.267  13.466  0.1588 -0.1908 -0.4300
17942W        W34790  11.768   6.102   1.891  0.0285 -0.0106  0.1450
17943W        W34791  16.950   3.574  12.544  0.2099  0.0768  0.1601
17944W        W34792  13.722  12.891   3.674 -0.3847 -0.2758 -0.0586
17945W        W34793   8.832   7.702   3.079 -0.2844  0.1831  0.1847
17946W        W34794  17.318   1.526   1.138 -0.3734  0.1202  0.2121
17947W        W34795  14.084  13.694  13.819  0.0800 -0.2503  0.2191
17948W        W34796  12.969  12.861  15.845  0.1175  0.3298  0.2207
17949W        W34797  13.109   1.825  12.604  0.1439  0.0284 -0.2557
17950W        W34798  14.145   1.269  14.453 -0.1775 -0.3049 -0.3079
17951W        W34799  14.258   6.165   1.279  0.4589 -0.3085  0.1286
17952W        W34800   7.346  10.821   6.251  0.1770 -0.1226  0.2373
17953W        W34801   8.603   7.042   3.359  0.1537 -0.1311 -0.1421
17954W        W34802   6.743  12.139  13.186 -0.2491  0.0121  0.1622
17955W        W34803  15.908   1.059  16.453  0.1572  0.2435  0.1276
17956W        W34804   7.313  13.161   2.848  0.0860  0.2312 -0.0428
17957W        W34805   9.239   0.445  12.354  0.0463  0.1795  0.1072
17958W        W34806   1.282  10.489  14.772  0.1548  0.0580  0.2690
17959W        W34807  13.185   6.937   2.021  0.2453 -0.1673  0.2530
17960W        W34808  13.947  10.648   3.974  0.0285 -0.4587  0.1721
17961W        W34809  11.581  13.389   1.130 -0.1252 -0.0345 -0.0457
17962W        W34810  12.282   1.868  16.177 -0.1955  0.0573 -0.0199
17963W        W34811  14.927   7.351  15.926  0.0500 -0.2184  0.0838
17964W        W34812   6.767  15.243  15.283 -0.2669 -0.1243  0.2051
17965W        W34813  17.791  12.417   0.608 -0.2246 -0.0388 -0.2899
17966W        W34814   1.499  13.998   2.987  0.1779  0.0496 -0.0742
17967W        W34815  13.808   9.884  13.961 -0.2554  0.1558 -0.0344
17968W        W34816  14.706   5.164   1.781  0.2528 -0.1447  0.1641
17969W        W34817  13.688   9.901  10.972  0.1497  0.0875  0.0385
17970W        W34818   1.852   0.882   0.827 -0.2586 -0.0224 -0.1069
17971W        W34819   0.219   7.576  15.858  0.1231 -0.0469  0.0564
17972W        W34820  16.263   6.840   1.415  0.0236 -0.0843  0.4827
17973W        W34821  16.406   7.764  12.689  0.2613 -0.0419 -0.0613
17974W        W34822   6.053  12.749  13.929  0.0831  0.0192  0.0146
17975W        W34823   1.135  14.998  16.241 -0.1192 -0.1142  0.0500
17976W        W34824  10.975   2.427   4.743 -0.2040 -0.1945  0.1227
17977W        W34825   8.412   5.453  12.875  0.1022  0.1705  0.1141
17978W        W34826   0.922   3.302   1.314  0.2064  0.1458  0.1328
17979W        W34827  11.764  12.229  12.251 -0.0499  0.0787 -0.0617
17980W        W34828   2.438   9.479   2.007 -0.0115 -0.1863  0.0067
17981W        W34829   5.525  17.841   3.725  0.1997  0.2811 -0.2582
17982W        W34830  11.297  11.148  15.017  0.2100  0.0241  0.2143
17983W        W34831  15.936  16.823  13.758 -0.0236  0.0351  0.0219
17984W        W34832   9.927   9.310   2.690 -0.0598 -0.1301 -0.3403
17985W        W34833  11.605  11.082  14.010  0.1597 -0.3367  0.0521
17986W        W34834   0.428   5.642   4.143  0.1549  0.3216  0.1057
17987W        W34835   4.840  17.378   2.105  0.2386  0.0972 -0.1462
17988W        W34836   2.260  14.414   0.946  0.1396 -0.3378  0.3392
17989W        W34837  15.940  11.480   2.068  0.3079  0.3351 -0.1688
17990W        W34838  13.584   9.117   3.406  0.1205 -0.4580  0.0195
17991W        W34839  12.962   8.559   1.890 -0.0853  0.1796 -0.0143
17992W        W34840   3.507  15.088   5.221  0.1167 -0.1370 -0.0776
17993W        W34841   0.354  13.251  11.379  0.0553  0.1878  0.0595
17994W        W34842   6.613   2.735  12.465  0.1573 -0.0068  0.0608
17995W        W34843   5.977   4.708   2.144 -0.1126  0.0348 -0.1195
17996W        W34844  11.990  17.232   0.049  0.2722 -0.0563 -0.0200
17997W        W34845   9.971   3.462   6.441  0.0991  0.1382 -0.4681
17998W        W34846   5.418   3.930  15.885  0.1489 -0.1859 -0.2257
17999W        W34847  14.721   4.094  15.368 -0.0210  0.1084 -0.0633
18000W        W34848   5.695   0.028   3.210  0.1597  0.0137 -0.0499
18001W        W34849  17.386  17.532  15.606 -0.1912  0.1755  0.0487
18002W        W34850   3.931  12.212  12.626 -0.1893 -0.1026 -0.2180
18003W        W34851   4.147   2.363  14.646  0.3905 -0.0748  0.2740
18004W        W34852  15.151  10.513   3.482  0.0994  0.1062  0.1643
18005W        W34853   7.633  17.164   3.333 -0.0379  0.1515 -0.2978
18006W        W34854  16.761  16.720   1.547  0.0588  0.1908 -0.0529
18007W        W34855  16.606   0.566   0.114  0.1082  0.0474 -0.0531
18008W        W34856   1.499   9.180   2.621 -0.2603 -0.1198 -0.0692
18009W        W34857   7.549   0.124   1.411  0.0275  0.0941  0.1811
18010W        W34858  14.419   5.575  16.223  0.2827  0.4624 -0.3241
18011W        W34859  13.415   4.987   3.457 -0.0224 -0.1498  0.1617
18012W        W34860  11.274   1.454  11.485 -0.0679 -0.2167 -0.1933
18013W        W34861  12.053  13.703  16.033 -0.0693  0.1659  0.0695
18014W        W34862  17.719   5.106   5.130  0.0475 -0.1888 -0.2006
18015W        W34863   8.971  15.708  11.879 -0.1725  0.2904 -0.0159
18016W        W34864  14.909  13.006  12.711 -0.0483 -0.1688 -0.1193
18017W        W34865   5.756  10.166  14.089 -0.3946 -0.0718  0.2914
18018W        W34866   3.956  15.503   1.257  0.1199 -0.0692  0.2953
18019W        W34867   0.614   5.149   3.256  0.0748  0.3766 -0.0732
18020W        W34868  13.455  11.512   4.149 -0.2939  0.0432 -0.1170
18021W        W34869   4.331  13.670   2.400  0.2366  0.2097  0.0277
18022W        W34870  15.473  17.480  10.355 -0.1298  0.1117  0.0784
18023W        W34871   9.080  15.350  14.731  0.1964  0.0203 -0.2105
18024W        W34872  17.327   9.463   4.443  0.0901  0.0749 -0.1424
18025W        W34873  15.918  14.552  12.721 -0.3564  0.0386  0.5589
18026W        W34874  11.817  11.542   4.136  0.0578  0.1099 -0.0173
18027W        W34875   9.971   2.827   4.123  0.1077 -0.1602  0.2630
18028W        W34876   8.871  16.126   1.657 -0.2427  0.2081  0.1296
18029W        W34877   0.492  16.964   2.144  0.0380 -0.0576 -0.2094
18030W        W34878  13.999   3.316   2.041 -0.2911  0.2575 -0.2563
18031W        W34879   2.793   6.641   4.103 -0.0068 -0.1847 -0.0786
18032W        W34880   9.095  12.231   4.586  0.0972  0.0719  0.0293
18033W        W34881   2.216   7.823  14.373  0.0496 -0.0215 -0.3126
18034W        W34882  11.044  16.526   2.112  0.2553  0.0705 -0.0527
18035W        W34883  14.150  10.495   2.058  0.3378  0.5056  0.2093
18036W        W34884  13.201   1.939  15.151  0.3538 -0.1279  0.0492
18037W        W34885  14.190   9.579   4.403 -0.0060 -0.1176  0.2332
18038W        W34886   8.605  13.490  15.795  0.0057 -0.2904  0.1006
18039W        W34887   7.567   3.636  12.131  0.0008  0.0882 -0.0612
18040W        W34888   0.743   4.015  14.015 -0.2175  0.0395 -0.3559
18041W        W34889  11.276   8.149   4.646 -0.1320  0.1470  0.0379
18042W        W34890  10.112  10.577   2.497  0.0537  0.4068 -0.0510
18043W        W34891   0.845   1.566   3.227 -0.0553  0.0378 -0.4811
18044W        W34892  17.856  13.081   4.441 -0.4499  0.0111 -0.0113
18045W        W34893   6.099   8.077   4.303  0.2176 -0.2219 -0.0940
18046W        W34894   1.853  13.340  13.667  0.1237  0.0603  0.0850
18047W        W34895  14.980  12.938   1.130 -0.0346 -0.3985 -0.0639
18048W        W34896   2.168  17.514   0.749  0.1223  0.0539 -0.2797
18049W        W34897   2.010   2.554   2.624  0.0981  0.2268 -0.0523
18050W        W34898  11.009  15.110   6.147  0.1019  0.1846  0.1040
18051W        W34899  11.123  10.247   0.098 -0.1010 -0.2148  0.0550
18052W        W34900   0.769  12.042  16.219 -0.1290 -0.1613  0.0439
18053W        W34901  14.442  10.291  12.499 -0.0409  0.2368  0.2794
18054W        W34902   1.512  12.310   3.532 -0.1241 -0.3412 -0.1809
18055W        W34903   2.354   3.113  12.612  0.1738  0.2649 -0.2673
18056W        W34904   2.531  13.779  11.568 -0.1808 -0.0596  0.2441
18057W        W34905  13.100   1.679  11.744 -0.0368  0.1953  0.0613
18058W        W34906  16.030   4.360  13.357 -0.1559 -0.0894  0.2395
18059W        W34907  11.487  11.065   4.285 -0.4329 -0.1151  0.0795
18060W        W34908  11.449  11.580   1.813  0.0979  0.0484 -0.0221
18061W        W34909  13.163  15.801   1.197  0.1262 -0.0342 -0.1054
18062W        W34910   3.426   4.098  15.970 -0.2090  0.0897  0.0969
18063W        W34911   2.600   2.373   0.423  0.2213  0.2419  0.1222
18064W        W34912   5.729  12.757  14.320 -0.0861 -0.0590  0.1977
18065W        W34913   0.945  15.906  15.965 -0.1677 -0.0541 -0.3518
18066W        W34914   5.490   0.713   4.186 -0.0068 -0.0049  0.0743
18067W        W34915   4.302  14.991  12.110 -0.0991  0.1481  0.3144
18068W        W34916   0.158  12.872   3.381 -0.2857 -0.1355 -0.3414
18069W        W34917   3.738   9.722  12.320  0.3820 -0.0379 -0.2024
18070W        W34918  15.559   3.977   1.471 -0.2240  0.1489 -0.0734
18071W        W34919  16.030  13.307   0.467  0.1048 -0.1139  0.2909
18072W        W34920  16.030   7.031  11.546  0.1908  0.1113 -0.2090
18073W        W34921  14.021  10.025   1.339 -0.1841  0.1362 -0.2072
18074W        W34922  11.994   6.261  13.654  0.1102 -0.0748  0.3258
18075W        W34923   7.485   1.311  15.398 -0.2420  0.0075  0.3275
18076W        W34924   2.764  12.241  11.508  0.1925  0.0214  0.0168
18077W        W34925   0.817   2.580   3.277 -0.0578  0.2037 -0.0474
18078W        W34926  15.474   5.623   6.230 -0.0046 -0.0344 -0.0629
18079W        W34927   2.869  14.377   3.862 -0.0146 -0.1063 -0.4908
18080W        W34928   3.820  11.917   3.540  0.0565 -0.0017 -0.0642
18081W        W34929   4.481  17.715   3.070  0.1241  0.0189 -0.1322
18082W        W34930  14.360   3.070   0.496 -0.1282 -0.1161  0.3257
18083W        W34931  14.193  13.787   2.349 -0.1403  0.0035 -0.0915
18084W        W34932   7.913   7.373   2.551 -0.2344  0.2020 -0.1576
18085W        W34933   5.799  13.022   3.012 -0.1145  0.0563  0.0284
18086W        W34934   0.059  13.066  15.649 -0.0295 -0.0085 -0.0430
18087W        W34935  10.313  14.097   0.852 -0.4005  0.0797 -0.1388
18088W        W34936   6.421   6.513   3.426 -0.1608  0.1374  0.0972
18089W        W34937   9.136  10.455  12.952  0.0765  0.0178 -0.1180
18090W        W34938   4.002   7.588   3.633  0.2052 -0.0558  0.3808
18091W        W34939   1.926  11.152  16.305 -0.2489 -0.1763 -0.1172
18092W        W34940   9.080   3.081  12.246 -0.0008  0.0320  0.1237
18093W        W34941  11.848  12.417  14.488  0.1036 -0.1163  0.2280
18094W        W34942   8.641   8.407   2.515  0.1679 -0.0841  0.3101
18095W        W34943   9.857   8.409  13.602 -0.1372  0.1346 -0.1299
18096W        W34944   9.997   6.010   6.434 -0.3356 -0.2309 -0.1251
18097W        W34945   1.049  16.348   0.249 -0.2123  0.1206  0.1996
18098W        W34946   3.191   7.458   3.471 -0.1658  0.2235  0.0406
18099W        W34947   5.214   3.640  15.360  0.0510 -0.0673  0.0281
18100W        W34948   7.512   6.888  13.499 -0.1613  0.2896  0.2630
18101W        W34949   0.272  14.856   2.759 -0.1802  0.2324 -0.0370
18102W        W34950   7.894  12.411  13.389 -0.1426  0.2396 -0.2478
18103W        W34951   3.267   2.588   2.405  0.3919 -0.1899 -0.0767
18104W        W34952   2.833   3.339  13.471 -0.2110 -0.0076 -0.0943
18105W        W34953   1.341  10.055   5.197  0.0898 -0.1784 -0.3049
18106W        W34954   3.195  17.479   0.290 -0.0294 -0.0642  0.1513
18107W        W34955   8.517  10.892  15.567  0.0279  0.1686 -0.0405
18108W        W34956  10.398  15.501   2.962  0.0628 -0.2432  0.1433
18109W        W34957   0.755   7.790   5.223 -0.0492  0.1288 -0.1126
18110W        W34958   5.027  15.866   4.203  0.0283  0.1765 -0.3031
18111W        W34959  12.974  17.673   2.706  0.0267 -0.0767 -0.4453
18112W        W34960  16.894   7.490  15.832  0.0159 -0.0405 -0.1938
18113W        W34961   1.014  12.564  15.731 -0.3351 -0.0839  0.1146
18114W        W34962   3.099   7.617  12.698 -0.1374  0.0040 -0.1938
18115W        W34963  16.036   4.888   1.258 -0.0321  0.0581 -0.1183
18116W        W34964  14.562  11.796  15.273  0.2838  0.0611  0.1023
18117W        W34965   9.620  16.917   3.705 -0.3404 -0.0942 -0.1683
18118W        W34966   3.691  10.923  11.303  0.1062  0.0028 -0.0654
18119W        W34967   0.946  13.218   1.000 -0.0111  0.1326  0.3493
18120W        W34968   4.768  11.366   0.685 -0.2221  0.0516 -0.4048
18121W        W34969   6.515  10.864   3.205 -0.0220 -0.3064 -0.1648
18122W        W34970  16.513   5.807  16.095  0.0978 -0.0585 -0.0862
18123W        W34971   3.109   4.500  16.333  0.0905  0.3684  0.0076
18124W        W34972  17.107  14.565  13.024  0.0663  0.1561 -0.0151
18125W        W34973  12.275   7.263   0.761 -0.1954 -0.0427 -0.2304
18126W        W34974  12.477  14.151  14.636 -0.2935  0.1932 -0.0043
18127W        W34975  12.275  12.155   1.424  0.1878 -0.2060 -0.0472
18128W        W34976   3.911   0.026  11.611 -0.0186  0.1266 -0.0395
18129W        W34977  10.523  10.853  15.467  0.0015  0.2546 -0.2563
18130W        W34978  10.793   5.549   5.670  0.2002  0.1266 -0.0297
18131W        W34979   8.354   5.449  16.118  0.2705  0.0425 -0.2024
18132W        W34980  10.676   9.937  16.390 -0.0444 -0.0983 -0.0169
18133W        W34981   2.516   6.626  16.157 -0.0969  0.1379 -0.0633
18134W        W34982  10.224   8.349  13.225  0.2754  0.2251 -0.1118
18135W        W34983  16.268   2.001  16.257 -0.1385 -0.0392  0.0530
18136W        W34984   5.751   5.850  14.707  0.0354 -0.2430 -0.0167
18137W        W34985   0.486  16.621  15.827  0.2082 -0.0257  0.0859
18138W        W34986  11.000   1.685   1.350  0.0102  0.1544  0.0829
18139W        W34987   8.474   3.182  15.106 -0.0764 -0.4540 -0.3817
18140W        W34988  12.461   6.305   0.080  0.1842 -0.3463 -0.0042
18141W        W34989   2.275   3.239   0.569  0.0717  0.2102  0.2240
18142W        W34990   4.847   4.907   4.030  0.0923 -0.1487  0.1457
18143W        W34991   5.379   3.313   5.434 -0.1287  0.0380 -0.0649
18144W        W34992   3.943   2.917  11.814 -0.0561 -0.4266  0.2966
18145W        W34993  16.625   9.271  13.243 -0.2089  0.0609  0.3244
18146W        W34994   8.815   6.072   2.622 -0.0633 -0.0925 -0.2017
18147W        W34995   2.164  17.438   1.430 -0.1157 -0.0570  0.4635
18148W        W34996  12.037  12.191   5.654 -0.0510  0.0537  0.2511
18149W        W34997   1.152  14.278   3.960 -0.2186 -0.0120 -0.0866
18150W        W34998  16.354  11.762  13.772  0.0768 -0.1785  0.3699
18151W        W34999   8.218  11.214  16.315 -0.2996  0.0838 -0.0260
18152W        W35000  15.294   2.869   1.448 -0.0217  0.0309  0.1059
18153W        W35001  16.200  15.303  14.526  0.0467  0.3086  0.0776
18154W        W35002   3.588   4.326   5.842  0.1637 -0.0127  0.0368
18155W        W35003  14.095   4.997   5.177 -0.4521  0.1827 -0.1460
18156W        W35004  11.975   8.170  12.482  0.2320 -0.1398  0.1948
18157W        W35005  12.266   5.836   0.275 -0.4180 -0.2388  0.2446
18158W        W35006  17.140   4.849  13.900 -0.0132 -0.2074 -0.3111
18159W        W35007   4.222  16.061  15.038 -0.1445 -0.0527  0.1570
18160W        W35008   5.476   2.475   4.933  0.0716  0.0448  0.0890
18161W        W35009   7.379  17.598   5.701 -0.1367 -0.3093  0.4937
18162W        W35010  13.757   9.056  15.437  0.1420  0.0750  0.3563
18163W        W35011   8.922   3.899   2.956  0.0912  0.2142  0.2922
18164W        W35012  15.911   3.026  14.736 -0.1705 -0.0942 -0.0571
18165W        W35013  15.421   4.723  11.712 -0.1605  0.1500 -0.0878
18166W        W35014   2.219   7.678  13.661 -0.0800  0.1088  0.0949
18167W        W35015  11.792   7.480  16.058 -0.1828  0.0010 -0.0736
18168W        W35016  17.373   5.711   0.798  0.0521 -0.0581 -0.1857
18169W        W35017   9.895   9.209  13.019 -0.1105 -0.2217  0.2388
18170W        W35018   2.250   1.770  10.658  0.1666  0.0303 -0.1007
18171W        W35019  17.870   0.207   4.413 -0.1590 -0.0450  0.0080
18172W        W35020  11.968   6.799   1.192 -0.0053 -0.2469  0.0799
18173W        W35021  17.038   7.813   4.173  0.0171  0.2222 -0.3190
18174W        W35022   3.638  10.721   1.202  0.2157 -0.0156 -0.0605
18175W        W35023   9.197   3.806   2.132  0.0608 -0.1363 -0.2096
18176W        W35024   1.127   6.559   3.452 -0.2983  0.1063  0.1633
18177W        W35025   6.174   4.829   4.177 -0.1396 -0.1236 -0.0545
18178W        W35026  11.198  11.269  14.225  0.2897 -0.1428  0.3026
18179W        W35027   7.992  12.768  11.952 -0.0839 -0.1221 -0.2190
18180W        W35028  15.977  12.958   0.100  0.0310 -0.0681 -0.1434
18181W        W35029   6.467  14.459   2.429  0.1262  0.1124 -0.2156
18182W        W35030   6.083  12.941  10.965 -0.2356 -0.1998  0.2105
18183W        W35031   8.170   1.341  14.126 -0.0071  0.1090  0.0479
18184W        W35032  14.485  12.661  16.268  0.2140 -0.1982  0.1518
18185W        W35033  11.297   9.199   2.606  0.0479  0.1115  0.2457
18186W        W35034  13.241  17.029  11.610 -0.1257  0.0722 -0.0297
18187W        W35035   2.852   5.195   5.024  0.1136  0.4351  0.2760
18188W        W35036  17.262   2.298  10.587 -0.0354 -0.1013 -0.0616
18189W        W35037  16.753   1.519   3.549  0.1772 -0.2889 -0.0470
18190W        W35038  17.100   5.177  13.329  0.4898  0.1299 -0.0120
18191W        W35039   6.617  11.720  15.042  0.3168 -0.0779 -0.2475
18192W        W35040  14.578   3.292   3.539  0.1295 -0.0160  0.0334
18193W        W35041   3.081   0.460  16.336 -0.1441  0.1024  0.0175
18194W        W35042   7.159   5.420   4.008  0.2439  0.3332  0.2756
18195W        W35043   5.370  13.050  14.498  0.1536  0.0873  0.0442
18196W        W35044  14.943  17.721   3.921 -0.2913  0.2904  0.4986
18197W        W35045   8.943   5.193  14.448 -0.1715  0.0835  0.1964
18198W        W35046   7.903  15.306  11.127 -0.2577  0.0285 -0.1224
18199W        W35047   2.869   6.035  10.529  0.0179  0.1230 -0.2655
18200W        W35048   9.392   5.993   2.264  0.3155 -0.3233 -0.1558
18201W        W35049   3.111  16.288   1.869 -0.0891 -0.1779 -0.2102
18202W        W35050   8.951  15.708  14.250 -0.0612  0.1542  0.2400
18203W        W35051  15.757   3.353   3.068  0.0014 -0.0961 -0.0339
18204W        W35052  16.605  10.227   4.013 -0.0641  0.1443  0.1358
18205W        W35053  10.781   5.391  12.487 -0.1867  0.1896 -0.0246
18206W        W35054   1.557   4.105  11.860  0.1239 -0.1403  0.1514
18207W        W35055  17.310   1.990   3.064 -0.0604 -0.0269 -0.0011
18208W        W35056  11.943  11.956   3.729 -0.1609 -0.0720 -0.4090
18209W        W35057   9.875   8.782  16.014 -0.2171  0.2199 -0.1321
18210W        W35058   7.536   7.583   3.529  0.0966 -0.7169 -0.0962
18211W        W35059   9.774   2.787   0.806  0.1588  0.0442  0.0180
18212W        W35060   5.918   8.047   0.545 -0.4060  0.1751  0.1104
18213W        W35061   1.134  17.565  15.049 -0.1285 -0.0350  0.1271
18214W        W35062   2.962  10.871  10.424 -0.2808 -0.2747 -0.1234
18215W        W35063   8.047  12.895  16.136 -0.0095 -0.0710  0.0086
18216W        W35064  11.275   8.792   4.458 -0.1151  0.1558  0.0490
18217W        W35065  16.664  13.271   3.281  0.0017  0.0321  0.2379
18218W        W35066  12.628   0.624   1.017 -0.1019 -0.1881 -0.1663
18219W        W35067   1.132  11.471   0.886  0.0717  0.0885 -0.0770
18220W        W35068   5.498   5.837   1.279 -0.2766 -0.0133  0.0547
18221W        W35069   5.014  13.685  13.012 -0.1762  0.1277  0.0562
18222W        W35070   8.893  15.950   2.404 -0.1453 -0.1554 -0.0228
18223W        W35071   4.473  10.287  12.759 -0.0667 -0.3114  0.1046
18224W        W35072   0.576  10.358  13.152 -0.1001  0.1058 -0.2343
18225W        W35073  15.983   8.300  13.844 -0.1405 -0.1025  0.0001
18226W        W35074   2.799  12.748  14.833  0.1999 -0.2305  0.0799
18227W        W35075  10.976  14.036   1.780 -0.0745 -0.2692  0.1017
18228W        W35076   1.435  11.082   4.032 -0.0273  0.1318  0.2442
18229W        W35077  17.292   6.238   1.010 -0.2433  0.1152  0.0493
18230W        W35078   3.411  16.862   2.250 -0.2699 -0.3099  0.1931
18231W        W35079  11.963  12.901  11.093 -0.0040 -0.1133  0.0170
18232W        W35080  11.830  11.169   1.842  0.0670  0.3186  0.1883
18233W        W35081   0.786   4.900  15.182 -0.4893 -0.0987 -0.1275
18234W        W35082  14.528  12.406  15.133  0.0981 -0.2061  0.2455
18235W        W35083   4.876   2.665  15.101 -0.0479 -0.0740  0.1065
18236W        W35084   6.317   0.074  15.935 -0.2621  0.2041 -0.2267
18237W        W35085   8.651  15.913  12.350 -0.1825  0.0176 -0.2069
18238W        W35086  10.010  14.970  14.838 -0.3097  0.1989  0.2981
18239W        W35087  12.799   2.309  10.720 -0.1121  0.0800  0.0990
18240W        W35088   0.363   3.682  12.374  0.2902 -0.3299  0.0453
18241W        W35089  13.352  16.239   3.415 -0.2769 -0.1572  0.1230
18242W        W35090   9.068  15.136  15.611  0.2856 -0.1352  0.1421
18243W        W35091   3.109   8.043   3.368  0.1570  0.2899 -0.0342
18244W        W35092   3.877   7.959  15.458 -0.1171  0.2173 -0.2525
18245W        W35093   6.730   2.181   0.583 -0.2942 -0.2304 -0.1280
18246W        W35094   5.944  14.908   4.258 -0.0178  0.1121  0.0679
18247W        W35095  12.352   0.344   0.730 -0.2930  0.2817 -0.1270
18248W        W35096  16.025   1.876  11.600  0.1172  0.0542 -0.0601
18249W        W35097   0.396   5.725  12.864 -0.0270  0.2178  0.3224
18250W        W35098   0.764   1.944   1.122 -0.2641 -0.0309  0.0066
18251W        W35099   5.182  12.443   2.046 -0.0775 -0.1387 -0.1296
18252W        W35100   9.197   7.503  12.881 -0.2348 -0.1086  0.1672
18253W        W35101   5.842  12.255  15.151  0.1079  0.0965 -0.2622
18254W        W35102  14.592   1.837   3.881 -0.2062 -0.1789 -0.0945
18255W        W35103  13.039  16.097  12.482  0.2405  0.0944  0.0518
18256W        W35104  17.264  10.363   5.612  0.1400  0.0356 -0.2447
18257W        W35105  15.603   6.993   3.832 -0.0523 -0.4215  0.0693
18258W        W35106   8.569   7.191   3.810  0.2413 -0.5017  0.0919
18259W        W35107  16.731  13.717   0.319 -0.1624 -0.1073 -0.0983
18260W        W35108  11.177   4.685   2.308  0.2583  0.0533 -0.0118
18261W        W35109   8.525  10.277   4.588 -0.0278  0.0006 -0.2071
18262W        W35110  12.341   1.781  15.131 -0.1852 -0.0611  0.3736
18263W        W35111   3.221  10.864  11.382  0.1177  0.2425  0.2744
18264W        W35112  13.032   1.709   2.984  0.0580 -0.1088  0.4933
18265W        W35113   4.515   8.567  15.757  0.3151 -0.0251  0.0320
18266W        W35114  12.143   6.962   1.709 -0.0357  0.1207 -0.1506
18267W        W35115  17.616   8.229  13.413  0.0128 -0.3825 -0.1062
18268W        W35116   5.780  12.377   1.465 -0.1963  0.0574 -0.0042
18269W        W35117  10.227   2.283  15.505  0.1084  0.0202 -0.2655
18270W        W35118   9.430   3.366  15.128  0.0154  0.2062  0.1569
18271W        W35119   2.405  16.573   1.744 -0.0107  0.0201  0.0943
18272W        W35120  12.480   7.894   2.003 -0.1484  0.0737  0.1420
18273W        W35121   3.045  17.339   4.163  0.1366  0.0589 -0.0084
18274W        W35122   2.199   7.678   2.952 -0.0204 -0.0530 -0.0738
18275W        W35123  16.388  17.766  15.756 -0.1688 -0.0453 -0.0265
18276W        W35124  11.211  16.699   0.118  0.0315  0.1694 -0.1191
18277W        W35125  16.970   0.924   0.099 -0.4464  0.2089 -0.3609
18278W        W35126  10.892  12.764   6.235  0.1016 -0.0813  0.0146
18279W        W35127  13.072   6.473  11.150 -0.1768  0.1064  0.3481
18280W        W35128   3.982  15.357  13.778 -0.2134 -0.0279  0.2214
18281W        W35129   7.689  11.079  12.416  0.0138 -0.0444  0.0540
18282W        W35130   6.740   7.407  11.853 -0.0821  0.1677  0.1663
18283W        W35131   8.576   8.091  11.472  0.0363 -0.1969 -0.1336
18284W        W35132   6.189   2.100  13.310 -0.2227 -0.0150  0.0803
18285W        W35133   6.695   5.255   0.016  0.0223  0.2107  0.1277
18286W        W35134   4.293   7.460  13.342  0.3828 -0.0309 -0.0038
18287W        W35135   1.938  16.786   2.314  0.2721  0.0817  0.2778
18288W        W35136  15.371   4.282   3.408 -0.4226  0.0210 -0.1461
18289W        W35137   3.689  14.142   4.341 -0.0310  0.0799  0.1547
18290W        W35138   3.112  17.633   2.410 -0.0398  0.0140  0.0157
18291W        W35139   7.908   8.686  12.168 -0.0312  0.0551  0.3130
18292W        W35140   6.755  14.175   4.122  0.1114 -0.0951 -0.0076
18293W        W35141   3.318  12.457   2.373  0.2035  0.0110 -0.3904
18294W        W35142  14.263   9.149   1.667 -0.1668  0.2413  0.1456
18295W        W35143  15.955   6.084   3.590 -0.1552  0.1405  0.0013
18296W        W35144   2.735  17.157  12.651  0.3304 -0.1938 -0.4372
18297W        W35145   0.008  12.920   0.375 -0.0892  0.4374 -0.0269
18298W        W35146  16.096   3.197  15.176  0.1193 -0.1528  0.1036
18299W        W35147   6.645   1.155   3.466 -0.1665 -0.0580 -0.1458
18300W        W35148  17.490  11.703   2.636 -0.0326  0.2416 -0.1285
18301W        W35149   4.159   5.316  11.790 -0.2288  0.0161 -0.0895
18302W        W35150   0.561   4.432   3.814 -0.0729  0.1000  0.1983
18303W        W35151  12.839   0.930   2.451 -0.1191  0.1712  0.1000
18304W        W35152   3.021   6.249   3.870  0.1340 -0.4475 -0.0406
18305W        W35153  11.003   2.758   0.965  0.4777 -0.2229 -0.0678
18306W        W35154  16.490  16.752  10.408 -0.1529  0.1222  0.0290
18307W        W35155   6.678   6.953   3.549 -0.0924  0.3145  0.2345
18308W        W35156  16.977   2.060  14.170 -0.1995  0.0427 -0.2196
18309W        W35157  15.444   2.261   0.220  0.1336 -0.1776 -0.3913
18310W        W35158  15.796   1.639  13.943 -0.0216  0.1346 -0.1361
18311W        W35159  15.803  13.701  14.852  0.2525 -0.1014  0.3367
18312W        W35160  10.564  14.074   1.373  0.2618 -0.2320  0.0973
18313W        W35161  16.370   3.594  16.288 -0.2002  0.0898  0.2479
18314W        W35162  15.675  14.590   5.537  0.0323 -0.1758  0.1309
18315W        W35163  12.734  12.018  15.964 -0.3173  0.1194  0.3630
18316W        W35164   5.346   8.956   4.916  0.0262 -0.0905  0.2129
18317W        W35165  11.781  16.059   3.834  0.1037  0.0008  0.0008
18318W        W35166   9.907  16.169   2.488  0.0774 -0.1486  0.0903
18319W        W35167   9.968   5.343  13.608  0.0376 -0.1668  0.0621
18320W        W35168   9.894  14.076   4.265 -0.1712 -0.3264 -0.0359
18321W        W35169  15.319  10.816  13.617  0.3701 -0.1395 -0.1035
18322W        W35170   0.022  10.869   2.576  0.2250 -0.0460 -0.0137
18323W        W35171  13.890  15.273  11.731  0.3648 -0.1887  0.1718
18324W        W35172   8.755  13.069   3.305 -0.3121  0.1015  0.2055
18325W        W35173   9.631   9.653   2.911  0.2443 -0.1334  0.0697
18326W        W35174   7.345  13.716   1.517 -0.1516  0.1526 -0.2002
18327W        W35175   0.513  13.319  15.675 -0.2575 -0.2619 -0.1136
18328W        W35176   8.564  14.179  10.833 -0.0762  0.0147 -0.1122
18329W        W35177   3.748  17.197  14.655 -0.2577 -0.1780  0.0486
18330W        W35178   0.518  14.371  14.397  0.1320 -0.0796 -0.0647
18331W        W35179   2.860  12.113  15.371  0.1492  0.0349  0.2939
18332W        W35180   5.034  17.429   3.807  0.0260  0.0761 -0.0907
18333W        W35181   6.853   3.390   5.333 -0.1483  0.1560 -0.1870
18334W        W35182   6.016  14.766   2.669  0.1090 -0.0893  0.2399
18335W        W35183  16.677  11.077  15.078  0.4558 -0.1509  0.1524
18336W        W35184   4.004  14.443   2.349  0.0611  0.1444 -0.0409
18337W        W35185   0.912  14.290   2.970  0.0036 -0.0019  0.0232
18338W        W35186  17.594   4.691   4.923  0.0574 -0.0257 -0.3332
18339W        W35187   8.715  11.246   4.701  0.1596 -0.0784  0.2095
18340W        W35188   3.360   4.884  12.207  0.0717  0.1326 -0.2382
18341W        W35189   9.592  16.810  12.944  0.0949  0.0611 -0.1012
18342W        W35190   4.348   7.539  15.370 -0.2414  0.0825 -0.2491
18343W        W35191  14.690  14.487   0.416 -0.0997  0.1358 -0.2636
18344W        W35192  17.630  14.437  12.836 -0.0373  0.0919  0.1307
18345W        W35193  14.028  14.022   3.599 -0.2672  0.0451  0.1178
18346W        W35194  12.439  11.979   4.502  0.0510 -0.0905  0.3189
18347W        W35195   6.612   8.797  13.427 -0.1211 -0.1578  0.0466
18348W        W35196  14.587   0.426  12.627  0.1074  0.1840 -0.0720
18349W        W35197  11.373  16.357  12.405 -0.0758 -0.0147 -0.0749
18350W        W35198  10.530  16.374   3.033 -0.2094 -0.2124  0.2373
18351W        W35199   2.016   6.729  13.913  0.1200  0.2094 -0.0548
18352W        W35200   2.439  16.041  12.514  0.1707  0.0719 -0.1418
18353W        W35201  13.909   9.833  14.439  0.2468  0.1912  0.0851
18354W        W35202   8.717   3.474   3.224 -0.0595  0.0115 -0.1943
18355W        W35203   3.731   8.368  16.101  0.0959  0.4690 -0.0303
18356W        W35204  17.179   7.660   0.613  0.1478  0.2961  0.0651
18357W        W35205   5.083   5.330   1.912  0.0233 -0.0203 -0.0678
18358W        W35206  12.270   0.061  13.582 -0.1223  0.0669  0.2024
18359W        W35207   6.421  13.489  14.426 -0.1096 -0.1411 -0.2726
18360W        W35208  11.620   9.197  14.065 -0.3168 -0.1113  0.1344
18361W        W35209   1.373  12.809   0.464  0.3233  0.1487 -0.2101
18362W        W35210   6.929   0.142  13.780  0.0686  0.3420 -0.3091
18363W        W35211  10.381   9.383   4.457  0.0672 -0.3199 -0.0774
18364W        W35212  13.245  15.704   4.859 -0.0913 -0.0284 -0.1075
18365W        W35213  14.430  15.225   5.494 -0.1837  0.1692  0.0873
18366W        W35214  12.332   9.642  12.288  0.0390 -0.3777  0.1173
18367W        W35215   4.537  10.646  15.424  0.0818  0.0712  0.1918
18368W        W35216  16.177   4.845  14.333  0.0118  0.1358  0.1440
18369W        W35217  14.289  15.017  14.958 -0.2340  0.2342  0.3359
18370W        W35218   8.451   4.415   0.661  0.1212 -0.1823 -0.0367
18371W        W35219   9.241  13.173   0.894 -0.0151  0.3656  0.0765
18372W        W35220  16.658   7.414  16.317  0.1435  0.0301  0.1368
18373W        W35221   5.176   3.148   2.093 -0.2201 -0.1330 -0.0187
18374W        W35222   2.314   9.759   0.947  0.2020  0.1916 -0.0589
18375W        W35223  15.165   9.027   0.638 -0.0196  0.0493  0.0332
18376W        W35224   5.997   5.371   0.674  0.1173 -0.0214 -0.1977
18377W        W35225  14.042   5.454   0.580  0.2230 -0.0446 -0.1279
18378W        W35226   0.855  10.718  11.871 -0.0350 -0.1564 -0.0702
18379W        W35227  12.745  17.039  11.400  0.0926 -0.2097  0.0009
18380W        W35228   6.202  12.508  11.895  0.0183  0.0020  0.2273
18381W        W35229  15.097   5.574  12.580 -0.0311 -0.1892 -0.0913
18382W        W35230  13.310   9.327  13.362 -0.3089 -0.0688 -0.1559
18383W        W35231   6.876  13.797   0.743  0.3038  0.2163  0.0118
18384W        W35232  14.347  16.348  12.166  0.2570  0.0234 -0.2086
18385W        W35233  14.375  12.168   2.364  0.2470 -0.4097  0.1585
18386W        W35234   3.766   9.412   4.208  0.2577 -0.4084 -0.2831
18387W        W35235   0.399  16.089  16.039 -0.0815  0.0838 -0.0782
18388W        W35236   6.264  10.479   4.394  0.1154  0.0928  0.1760
18389W        W35237   7.027   3.868  16.258  0.1057  0.2277  0.3764
18390W        W35238   1.313   6.030   0.842 -0.1672  0.2330  0.2913
18391W        W35239   1.541  14.343  13.784 -0.0733  0.0668  0.1657
18392W        W35240  11.375  10.767   0.625  0.3435  0.2431  0.3384
18393W        W35241  13.446  15.109  14.738 -0.2564  0.0564  0.2459
18394W        W35242   6.876   4.746  16.367  0.1111 -0.2683 -0.0537
18395W        W35243   4.898  13.837  16.408 -0.1172 -0.2767 -0.1070
18396W        W35244  11.282  15.266  14.623  0.0733  0.1590  0.0181
18397W        W35245  13.941   1.327   3.243 -0.1029  0.5055 -0.0852
18398W        W35246  10.120  15.253   2.556  0.2531  0.1480  0.2929
18399W        W35247  16.661  17.331   1.525 -0.0153  0.2128 -0.1187
18400W        W35248   4.828   5.723   3.210 -0.0766  0.0483 -0.0034
18401W        W35249   8.870  15.292   0.591 -0.1801 -0.2318  0.1688
18402W        W35250  11.591   3.833  13.803 -0.2261 -0.0286  0.1813
18403W        W35251  16.151  11.658  16.093 -0.0288 -0.1397 -0.1370
18404W        W35252   3.291   3.085  13.144  0.0615 -0.0068 -0.1145
18405W        W35253  16.344   6.879  13.987 -0.3031  0.1766  0.1462
18406W        W35254  14.652  12.016   0.838 -0.2567 -0.1575  0.2820
18407W        W35255   2.447  17.212  16.110  0.0513 -0.2683  0.0858
18408W        W35256  16.441   3.170  13.450 -0.0502 -0.0019 -0.1347
18409W        W35257  16.141   9.229  15.044 -0.2919  0.0166 -0.1757
18410W        W35258  14.292  10.978   1.599  0.0978  0.1320  0.2288
18411W        W35259  16.215   6.416   2.286 -0.1222  0.0751 -0.0070
18412W        W35260  15.789   9.671   3.343 -0.0901  0.1216  0.3964
18413W        W35261  14.051  13.104   4.222  0.0402 -0.0808 -0.3480
18414W        W35262  16.422   5.356   2.414 -0.1763 -0.0515 -0.0068
18415W        W35263  10.429  11.033  11.280  0.2062 -0.0671 -0.0726
18416W        W35264   5.580   3.322  15.173  0.0612  0.0768 -0.0499
18417W        W35265   1.698  14.801  10.554 -0.1137  0.2215  0.2109
18418W        W35266   0.159   5.336   3.402 -0.0791 -0.1203 -0.2241
18419W        W35267  15.233  12.730  11.696 -0.0406 -0.1698  0.1303
18420W        W35268   7.843  10.877  11.556 -0.1270 -0.1685 -0.0044
18421W        W35269  15.001  16.616   4.688  0.0836 -0.2258 -0.0012
18422W        W35270   7.560   6.533  10.717 -0.0131 -0.3121 -0.0860
18423W        W35271   5.516  10.400   0.341  0.0308  0.0394  0.2598
18424W        W35272  14.526  11.771   3.168  0.0063  0.3583 -0.0595
18425W        W35273  17.108   0.267  11.868 -0.1013  0.0842 -0.0188
18426W        W35274   5.079   7.403   0.445 -0.0990 -0.0868 -0.2109
18427W        W35275  11.235  12.326   3.457 -0.1099  0.1211 -0.0499
18428W        W35276  14.185   7.912  12.588  0.0970  0.4207 -0.1616
18429W        W35277  16.233  16.552  15.007 -0.2775  0.2344  0.0139
18430W        W35278  12.503  16.619  11.181 -0.3155 -0.0405  0.0011
18431W        W35279  10.025  12.599  13.819  0.1533 -0.0144 -0.0328
18432W        W35280  12.558   6.498   3.298 -0.0442  0.0698 -0.1245
18433W        W35281   7.185  14.178   3.278 -0.1240 -0.1873  0.0219
18434W        W35282   7.389  13.669   5.049  0.0632  0.1785  0.0768
18435W        W35283   3.744   8.730   0.496 -0.3721 -0.1460 -0.0459
18436W        W35284  16.410   6.944  14.777 -0.3093 -0.0803 -0.2351
18437W        W35285   1.839  13.066   0.648 -0.0552 -0.2173 -0.1462
18438W        W35286   6.278  11.594  11.617  0.0328  0.3719 -0.4038
18439W        W35287  12.202   3.488  16.189  0.0540 -0.2418 -0.1459
18440W        W35288   2.632  11.573   1.586 -0.2417  0.1696  0.1037
18441W        W35289   3.545  13.077   0.280 -0.1561 -0.0886 -0.1707
18442W        W35290   5.421   5.416  13.638 -0.1659  0.2465  0.0566
18443W        W35291  12.133  12.681  13.784 -0.2034 -0.1218 -0.0262
18444W        W35292   0.326   4.813   3.630  0.1057 -0.4200 -0.1517
18445W        W35293   4.283  13.570  11.154 -0.2120 -0.1528  0.1949
18446W        W35294  12.048  13.401   0.765 -0.1178  0.1352  0.2830
18447W        W35295   3.550  14.970   3.971  0.0612 -0.0071  0.2221
18448W        W35296   3.853   6.741   1.491 -0.1076  0.0547 -0.0085
18449W        W35297  11.531   9.515   1.775  0.3621 -0.0402  0.1192
18450W        W35298  12.663  10.573   1.184  0.0793  0.2083 -0.0520
18451W        W35299  15.763   0.642  15.502 -0.1115 -0.0754  0.3862
18452W        W35300  11.877  16.321   4.732  0.0727 -0.1880  0.2652
18453W        W35301  11.765   0.740  13.872 -0.1019 -0.0668  0.1513
18454W        W35302   4.985  11.293  12.398  0.1212  0.3366  0.0524
18455W        W35303  13.554   9.742   2.720 -0.1848 -0.0674  0.1999
18456W        W35304  15.102   2.071  11.782 -0.0775 -0.2308  0.0312
18457W        W35305   2.292   9.522  13.550 -0.2614 -0.0052 -0.2020
18458W        W35306  12.045  17.015  15.140 -0.1132 -0.1688 -0.4706
18459W        W35307   4.142   6.316   0.417  0.2831 -0.0592  0.0589
18460W        W35308   4.934   3.632   6.385  0.0890 -0.2725 -0.1291
18461W        W35309   5.616  16.369  12.875 -0.0711  0.1006  0.0489
18462W        W35310  11.495   4.254  13.088 -0.3184 -0.1145  0.1813
18463W        W35311  17.466  13.007   0.132 -0.0237  0.0410 -0.0260
18464W        W35312  14.168   1.578  12.784 -0.0549 -0.2555  0.1042
18465W        W35313  10.606  11.950  13.617 -0.1100  0.3193  0.0488
18466W        W35314   3.166   0.344  15.465  0.2108 -0.2096 -0.0615
18467W        W35315   9.357  15.617   0.810  0.1659 -0.2261  0.3375
18468W        W35316  13.114   9.557  15.099 -0.1795  0.2026  0.1901
18469W        W35317   5.123   2.203   5.130 -0.1144  0.2135  0.1925
18470W        W35318   9.224   7.195  14.786  0.1130 -0.2087  0.2098
18471W        W35319  13.080  10.486   0.886 -0.1456  0.0351  0.2775
18472W        W35320  15.772  14.923  13.579  0.2759  0.2214 -0.0570
18473W        W35321   3.980   9.227  16.416 -0.0194 -0.1381 -0.2083
18474W        W35322   1.291  17.699  15.572 -0.0428  0.0939  0.2660
18475W        W35323   3.306  17.806  15.911 -0.0567 -0.4146  0.3900
18476W        W35324   2.672  16.166   1.566 -0.0348 -0.0771 -0.0821
18477W        W35325   1.934   2.820   4.912  0.1320 -0.1279  0.2071
18478W        W35326  17.209   4.819  12.167  0.2256 -0.1804 -0.1013
18479W        W35327  15.809  14.968  13.060 -0.0868 -0.1713 -0.3225
18480W        W35328   4.157  11.907   0.153  0.3599 -0.1752  0.0258
18481W        W35329   0.151   7.198   2.892  0.2006 -0.0893  0.1455
18482W        W35330  13.815  14.707  10.572  0.1803 -0.0404 -0.2034
18483W        W35331   0.861   4.236  14.881  0.2679 -0.0173  0.0429
18484W        W35332   2.699   1.249   0.156  0.0522 -0.0268  0.0909
18485W        W35333  16.289  15.637   3.399 -0.4090 -0.1033 -0.0708
18486W        W35334   7.530  16.778   3.005 -0.5295 -0.1152  0.1579
18487W        W35335   4.187   1.985   1.181  0.1769 -0.3420  0.1463
18488W        W35336  12.107   6.098  16.153  0.2881  0.2051 -0.0067
18489W        W35337  16.528  15.760  11.658  0.1707 -0.3018  0.1234
18490W        W35338  10.829  13.310   4.394 -0.0048  0.0610  0.0348
18491W        W35339  11.694  13.928   1.183  0.0432  0.1862 -0.0194
18492W        W35340  17.862  14.501  15.423 -0.0215  0.3373  0.0697
18493W        W35341   2.003   1.232   4.341 -0.0055  0.1575 -0.0984
18494W        W35342  11.994   0.138  15.319  0.2982  0.1666 -0.0886
18495W        W35343   2.743   8.803  14.168  0.0598 -0.1503 -0.0701
18496W        W35344   9.859   5.877   0.168  0.0804 -0.1013  0.1311
18497W        W35345  14.318   2.690  11.030 -0.0982 -0.0769 -0.0179
18498W        W35346  12.620   6.620  10.975  0.0819  0.1549  0.1227
18499W        W35347   6.363  16.293  15.551  0.0813  0.2094  0.1869
18500W        W35348   8.997   6.335   0.849  0.2317 -0.1258 -0.0411
18501W        W35349   4.319   7.563  14.740  0.0013  0.2269  0.0058
18502W        W35350  10.876   3.388   1.571 -0.1159  0.3800 -0.0520
18503W        W35351  17.232   8.332  15.462 -0.0918  0.0433  0.0955
18504W        W35352  12.899  17.273  10.536 -0.0967  0.2523 -0.2554
18505W        W35353   0.554  16.301   2.751 -0.1865  0.1466 -0.3336
18506W        W35354   9.329   5.211   2.702  0.1998 -0.0739 -0.1843
18507W        W35355   6.501   0.170  13.414  0.0718 -0.1711  0.1033
18508W        W35356  12.125  12.751  14.820  0.2249 -0.1497  0.1563
18509W        W35357  12.101   3.641  15.512 -0.2282 -0.1752 -0.2069
18510W        W35358  17.758   3.714  13.898  0.4073  0.0455 -0.0401
18511W        W35359  11.860  13.496  14.359 -0.2016 -0.2051  0.0157
18512W        W35360   4.470  12.661   3.836  0.3995 -0.1164 -0.1035
18513W        W35361   6.577  11.803   2.137  0.1991 -0.0819 -0.2818
18514W        W35362  10.318   6.534   4.820 -0.1494  0.0405  0.1343
18515W        W35363   0.005  15.143  13.052  0.2791 -0.0538 -0.0776
18516W        W35364  12.462   8.021   3.079 -0.0426 -0.0213  0.0876
18517W        W35365   7.601  14.265  15.541  0.2353 -0.5420 -0.0575
18518W        W35366  13.330  11.757  12.177  0.1103  0.2334  0.1072
18519W        W35367  14.560   3.708  11.799 -0.3887 -0.2859 -0.1525
18520W        W35368   1.527   0.261  16.098  0.2104 -0.3531  0.0934
18521W        W35369  12.160   7.325  10.983 -0.2284  0.1335  0.0051
18522W        W35370   9.125  13.401  12.517  0.2319 -0.1051 -0.1252
18523W        W35371  10.946  12.307  14.544 -0.1409  0.2582 -0.1675
18524W        W35372   7.619  13.522  12.028  0.0202 -0.1121  0.0423
18525W        W35373   1.162   3.851  15.905 -0.0475 -0.1765 -0.2939
18526W        W35374   9.312   2.888  11.775  0.3795  0.1181 -0.0653
18527W        W35375   7.739  16.537   0.422  0.0062 -0.2978  0.1004
18528W        W35376   0.548  14.869  14.482  0.3157  0.0588 -0.0061
18529W        W35377   8.332   5.138   1.043  0.2006 -0.0709  0.1736
18530W        W35378  16.443   2.147   2.264 -0.1916  0.0324 -0.2220
18531W        W35379   0.565   3.149  13.960  0.2956 -0.0715 -0.2794
18532W        W35380   1.445  12.633   2.289  0.0718  0.2492 -0.1411
18533W        W35381  14.981  14.983   0.542 -0.0672  0.1415 -0.1860
18534W        W35382   3.628   6.531  11.788 -0.0288  0.0465 -0.0702
18535W        W35383   6.793  15.761  15.582 -0.0132  0.0250  0.0810
18536W        W35384  15.668   5.462  14.854  0.0361  0.1026 -0.0234
18537W        W35385   6.629  12.326   2.234 -0.0217  0.1835  0.0745
18538W        W35386   8.588   7.942  16.376 -0.2333  0.0051 -0.0847
18539W        W35387   5.198  14.347  14.728 -0.0113  0.2687 -0.0786
18540W        W35388  15.026   7.538   1.384 -0.0936  0.0088  0.1273
18541W        W35389  14.791   6.596  12.009 -0.0045  0.2121  0.2162
18542W        W35390   4.637   7.474   2.651 -0.0450 -0.0087 -0.1784
18543W        W35391   2.552   3.321   5.931  0.0002 -0.0907 -0.1251
18544W        W35392  13.467   5.839  16.255 -0.0029  0.2882 -0.3830
18545W        W35393  16.958   3.756   1.104  0.1434  0.2010 -0.0240
18546W        W35394   4.133   3.885  13.635  0.0491 -0.2113  0.1576
18547W        W35395   1.977   5.643   5.083 -0.0010  0.1957 -0.2379
18548W        W35396   2.391   5.056   2.930  0.0982  0.0060 -0.0156
18549W        W35397   4.228  12.812   0.681  0.1901 -0.0024 -0.3232
18550W        W35398   4.125  17.708   1.300  0.2683  0.0705  0.1290
18551W        W35399   0.988   1.123  11.108  0.1598 -0.2075 -0.0146
18552W        W35400  12.371  14.144   2.048  0.0903  0.0714 -0.0900
18553W        W35401  11.127  15.381   3.690 -0.1314  0.0328 -0.2896
18554W        W35402   9.701   8.926   1.688  0.0319 -0.0388  0.2371
18555W        W35403   4.435   0.371  15.980 -0.2512 -0.1436 -0.1384
18556W        W35404   2.458  12.504  15.812 -0.2167 -0.2665  0.0261
18557W        W35405   3.105   8.508   6.616 -0.1046  0.0458 -0.0612
18558W        W35406   0.138   4.083  15.670  0.1691  0.3229  0.2309
18559W        W35407  16.071   4.022   6.134 -0.0285 -0.1201  0.3260
18560W        W35408   0.108   6.642   2.729 -0.0919 -0.1043  0.1901
18561W        W35409   0.745  13.576   3.646 -0.1198  0.2818  0.0290
18562W        W35410  12.074   1.779   1.034 -0.1395  0.1766  0.2653
18563W        W35411  12.449   2.338   3.162  0.0900 -0.0820 -0.1235
18564W        W35412  11.942  15.684  13.960  0.1189  0.0714 -0.0692
18565W        W35413   9.260  12.608  14.329  0.3210  0.2497  0.0664
18566W        W35414  17.056  17.278  12.027  0.1096 -0.0301 -0.2503
18567W        W35415   7.254  15.551  15.267 -0.0155 -0.0542 -0.1998
18568W        W35416   1.785   9.734  14.484 -0.1956  0.5446 -0.1518
18569W        W35417   1.022   2.442  11.462  0.0100  0.0235  0.2593
18570W        W35418  12.049  16.485   0.497  0.0240  0.0689 -0.0805
18571W        W35419   6.840   5.886   2.394 -0.2135 -0.2222 -0.0204
18572W        W35420   7.142   6.357   4.162  0.1132 -0.2030 -0.0232
18573W        W35421  13.829   7.789   4.262 -0.0200  0.0466 -0.3465
18574W        W35422   6.186  15.177   3.831 -0.3258 -0.1448 -0.1531
18575W        W35423   2.200   2.672  12.419 -0.0050 -0.0770 -0.1345
18576W        W35424  11.067  16.179  14.069 -0.2262  0.0806 -0.0853
18577W        W35425  10.173  12.628   5.808 -0.0928  0.0096 -0.0414
18578W        W35426   9.134   4.160  15.706  0.2954  0.1685  0.1670
18579W        W35427   6.412  17.869   3.710  0.1111  0.2948  0.0669
18580W        W35428  14.848  12.540   3.181 -0.0444 -0.2398  0.0402
18581W        W35429   7.839  17.313  12.649 -0.1375  0.2192 -0.1775
18582W        W35430  12.055   3.110   3.149  0.3164  0.2222  0.0811
18583W        W35431  17.292   0.169  15.714  0.0188 -0.0180  0.0210
18584W        W35432  11.824   3.409  12.105 -0.1255  0.1651 -0.1637
18585W        W35433   4.530  17.378   3.513 -0.1736 -0.2372  0.0518
18586W        W35434  16.183  17.372   2.913  0.0032  0.0072 -0.1357
18587W        W35435   0.903   5.290   2.258 -0.2275  0.2239  0.1529
18588W        W35436   6.373   2.200   4.011  0.4819 -0.0334 -0.0211
18589W        W35437  13.525   2.003   0.175  0.0161 -0.0237  0.0118
18590W        W35438   7.047   7.830  14.182  0.0611  0.1261  0.0563
18591W        W35439  10.450   9.671  14.314 -0.1997 -0.0357 -0.4035
18592W        W35440   2.447  12.241   4.600  0.0222 -0.0432 -0.1029
18593W        W35441   3.254  12.599  14.700 -0.1636  0.2569 -0.0686
18594W        W35442   6.796  14.423  15.788  0.0351 -0.1129  0.1132
18595W        W35443  14.160   6.615   2.874 -0.2752  0.1156  0.1076
18596W        W35444   1.580  16.749   0.501  0.0080  0.0459 -0.0156
18597W        W35445  12.040   7.988   4.084 -0.2117  0.0009  0.0746
18598W        W35446  11.086   6.536   0.787  0.1677 -0.0267 -0.2119
18599W        W35447  14.403   4.625  13.095 -0.0280 -0.1545  0.0927
18600W        W35448  17.436  15.908   3.793  0.0080 -0.0602  0.2419
18601W        W35449  13.272   2.033  10.513  0.2218 -0.0288 -0.0095
18602W        W35450   3.157   3.662   2.504 -0.1643 -0.5594 -0.3567
18603W        W35451  10.382  11.424   2.472 -0.2248 -0.1350  0.1126
18604W        W35452   3.597   4.776   0.116 -0.0056  0.0512  0.2356
18605W        W35453  17.020   6.392  12.020  0.3227  0.0943  0.0062
18606W        W35454   1.168   9.612   4.188  0.0661  0.3263 -0.0601
18607W        W35455   5.123   7.051   1.639  0.0899 -0.0591 -0.1661
18608W        W35456   0.564   1.875   2.209  0.1388  0.0880 -0.0363
18609W        W35457   9.176  14.601   4.460 -0.0889  0.0445 -0.3761
18610W        W35458   6.014  13.462   4.637 -0.2100 -0.0282 -0.1402
18611W        W35459   8.580  12.826  12.881 -0.0225 -0.2305  0.0641
18612W        W35460  15.392  12.838  10.254 -0.0711  0.2954  0.1857
18613W        W35461  12.537   5.218  15.274  0.1225 -0.1506  0.3142
18614W        W35462  11.786  13.666  12.566 -0.1076 -0.3287 -0.0670
18615W        W35463  11.002  11.613   2.046  0.2724 -0.0238 -0.1362
18616W        W35464   8.477  15.255   3.973  0.0246  0.0932 -0.3130
18617W        W35465   2.926   7.002  11.006 -0.4045  0.0296  0.2909
18618W        W35466   5.750   7.509  11.040  0.0136 -0.1067 -0.1227
18619W        W35467   9.004   8.841  11.472 -0.0023  0.1595  0.0224
18620W        W35468   9.403  16.187   1.604  0.2357  0.0957 -0.1054
18621W        W35469   5.525  12.807   1.626 -0.0979 -0.1483 -0.1853
18622W        W35470  15.480   0.999  10.937 -0.0342  0.1107 -0.0453
18623W        W35471   8.838   5.302   1.192 -0.2282  0.0759 -0.1812
18624W        W35472  11.841   3.115  14.878 -0.1584 -0.0752  0.1351
18625W        W35473  13.717   6.054   1.480 -0.1183  0.0822  0.2036
18626W        W35474  12.246   2.537  13.651  0.0269 -0.1486 -0.3695
18627W        W35475  13.941   0.185   0.630 -0.0719  0.1485 -0.1960
18628W        W35476   3.184   4.269  14.520  0.1351  0.0965 -0.1465
18629W        W35477   3.712   1.131   1.883  0.0841 -0.0036 -0.2687
18630W        W35478   6.049  14.737   0.845 -0.4299 -0.0933  0.1705
18631W        W35479  17.439   0.585  16.017 -0.0391 -0.0465  0.1169
18632W        W35480  12.967  13.380  13.045  0.0679  0.0328 -0.1542
18633W        W35481  10.499  14.262   4.761  0.1193  0.0323  0.0729
18634W        W35482   8.656   5.872  16.089 -0.0090  0.1926  0.1448
18635W        W35483   5.416  15.207   4.968  0.1467 -0.2419 -0.0303
18636W        W35484   9.819   0.700  14.693 -0.0606  0.1853 -0.1165
18637W        W35485   4.724   5.265  12.005  0.1612 -0.2680 -0.1261
18638W        W35486   5.125   5.700  13.341  0.1426 -0.2795 -0.1694
18639W        W35487   2.941   0.065  12.207  0.3213  0.2949 -0.0252
18640W        W35488  16.940  16.894   0.142  0.0052  0.4319  0.0276
18641W        W35489  16.645  17.221   0.654 -0.5420 -0.2177 -0.1489
18642W        W35490  12.113  17.643  16.238 -0.0775 -0.0231 -0.1093
18643W        W35491  10.381   3.512   0.413  0.1239 -0.2222 -0.2291
18644W        W35492  15.308   2.554  11.984  0.1628 -0.2253 -0.0720
18645W        W35493  15.253  12.263   4.311  0.0730  0.1013  0.0741
18646W        W35494   2.899  13.825   3.525 -0.2582  0.0006  0.1864
18647W        W35495   8.503   9.946  13.986  0.0484 -0.1296  0.1338
18648W        W35496  16.901  10.550   4.246 -0.0878 -0.3060 -0.1235
18649W        W35497  15.760   7.823   4.183 -0.3002 -0.0163 -0.3242
18650W        W35498   0.700  14.458  12.349 -0.0672  0.1350 -0.3116
18651W        W35499   6.873  10.657   3.578 -0.3734  0.3173 -0.2626
18652W        W35500   8.471   3.294   2.374  0.3122  0.2372 -0.2104
18653W        W35501   0.962   9.864   4.529  0.2513  0.0427 -0.2188
18654W        W35502  13.812  10.227   2.337  0.1135  0.2633  0.0662
18655W        W35503   9.262   6.729  13.706 -0.0073  0.1682  0.1022
18656W        W35504  15.745  11.177  12.803  0.1445 -0.2948  0.1249
18657W        W35505  11.425   1.040   5.091 -0.4471 -0.0006  0.0803
18658W        W35506  10.980  10.092  15.600  0.0019  0.1161  0.0969
18659W        W35507  16.498   3.326   3.588  0.0882  0.0003  0.2178
18660W        W35508   6.201  17.492   0.651 -0.0203 -0.4088 -0.0118
18661W        W35509  14.352  16.456  11.208 -0.0971  0.1582  0.0356
18662W        W35510  11.603  12.214  10.657 -0.2905  0.0476 -0.0898
18663W        W35511  16.894  17.422  15.229 -0.1086  0.0568  0.2392
18664W        W35512   0.450   7.983  15.522 -0.0480 -0.2304  0.1621
18665W        W35513   6.415  11.651   3.572 -0.1266 -0.3114 -0.4009
18666W        W35514   6.111   9.635   2.724 -0.1046  0.3707 -0.0259
18667W        W35515  13.140   5.549   1.514 -0.0972  0.2499 -0.0026
18668W        W35516   2.280  12.921  12.819  0.2583  0.1628 -0.2960
18669W        W35517   4.951  12.329  14.328  0.0676  0.0998  0.0839
18670W        W35518   0.779   5.277   4.310  0.5518 -0.0963  0.0079
18671W        W35519   8.336   1.937  13.151  0.1065  0.0195 -0.2124
18672W        W35520   7.169   1.553   5.304  0.0919 -0.0250 -0.3662
18673W        W35521  15.973  12.327   2.178 -0.0183 -0.1473  0.1001
18674W        W35522  15.428   5.442  11.192  0.3678 -0.1408 -0.0354
18675W        W35523   1.515   8.971   3.674 -0.2989 -0.0712 -0.2826
18676W        W35524   3.136  17.543  12.347  0.2689 -0.0633 -0.3048
18677W        W35525   7.247  17.065  12.040  0.1717  0.3626  0.0044
18678W        W35526  16.148  11.998   1.210 -0.0202  0.3546 -0.0773
18679W        W35527   2.943   3.602   1.145 -0.2980 -0.0606  0.1022
18680W        W35528   7.989   1.461  11.900 -0.0701 -0.2860  0.1627
18681W        W35529  13.846   8.094  16.351  0.1744  0.0896 -0.2205
18682W        W35530   2.480  14.336  12.877  0.0002 -0.2049  0.1586
18683W        W35531   6.445   8.126   4.729 -0.2726 -0.5946 -0.0192
18684W        W35532   9.347   0.749   2.729  0.0098 -0.2656 -0.2038
18685W        W35533   7.442   3.645  12.713 -0.0032  0.1715 -0.0804
18686W        W35534   2.382  12.696   2.621  0.3110  0.0393  0.1866
18687W        W35535   3.949  14.239  12.484 -0.0416  0.0632 -0.0520
18688W        W35536   8.184  15.940   1.720  0.2203  0.1462 -0.0358
18689W        W35537   8.538  15.113   2.792  0.1345  0.0622  0.3920
18690W        W35538  11.999   6.152  15.498 -0.2638 -0.0564 -0.5610
18691W        W35539  13.351   4.874  15.871  0.0650 -0.0012 -0.1554
18692W        W35540   1.274  17.144   0.314 -0.1048  0.4775 -0.0791
18693W        W35541   2.935   1.890   2.714  0.2492  0.0599 -0.0292
18694W        W35542  12.717   9.673   1.274  0.2078  0.2868 -0.1231
18695W        W35543  16.020   6.957  12.040 -0.0682 -0.0429 -0.0932
18696W        W35544   7.194   6.325   3.232 -0.0568 -0.0856  0.0269
18697W        W35545  15.048   4.978  11.898  0.1998 -0.2788  0.0571
18698W        W35546  12.581  14.546  14.970  0.0789  0.1093 -0.0218
18699W        W35547  11.893  14.990   2.386 -0.1605  0.0539  0.0526
18700W        W35548  11.266   8.794   4.994  0.1177  0.0062  0.1336
18701W        W35549  14.129  12.518   5.839  0.2121  0.1918  0.2027
18702W        W35550   2.613   1.494  15.604  0.0046 -0.0076  0.0833
18703W        W35551   6.917   4.342  11.776 -0.2536  0.0718  0.0568
18704W        W35552  17.699  14.563   0.923  0.0880  0.1477  0.5233
18705W        W35553   9.791   3.206  12.654  0.2610  0.2352 -0.0044
18706W        W35554   3.472  15.506  16.257 -0.0595  0.2933  0.1984
18707W        W35555   6.021  11.829  16.105  0.0375  0.2108  0.0908
18708W        W35556  16.939   8.633  12.751  0.0809  0.1243 -0.3021
18709W        W35557  16.497  12.647   4.945 -0.0035 -0.1181 -0.0295
18710W        W35558  13.402   2.824   0.283 -0.0269 -0.2170  0.1626
18711W        W35559  16.293   5.354   0.244 -0.0226 -0.0765  0.2506
18712W        W35560  15.284   5.513   2.510  0.0106 -0.0804  0.0854
18713W        W35561   1.069  15.245  14.681 -0.0814  0.0171  0.0016
18714W        W35562   0.630   5.983  15.912  0.0267 -0.0235 -0.1478
18715W        W35563   2.185   3.364   2.192  0.0132  0.2214  0.2044
18716W        W35564   7.638  16.971  12.387 -0.4923  0.0752  0.0017
18717W        W35565   0.591   8.247   0.659 -0.0177  0.3360  0.0310
18718W        W35566  15.570   1.920   2.073 -0.1332 -0.1372 -0.0942
18719W        W35567   1.536   2.455   4.771  0.2324 -0.1968  0.0215
18720W        W35568   4.585  10.651  13.841 -0.1069  0.2756  0.1022
18721W        W35569  13.730  17.823   2.046  0.3583  0.0917 -0.0565
18722W        W35570  10.200   6.749  11.986 -0.0827  0.0848  0.0858
18723W        W35571  12.348  11.361   4.718  0.0722  0.0410 -0.2659
18724W        W35572  11.778   2.846  14.434  0.2348 -0.0667 -0.0709
18725W        W35573  14.647  11.974  13.337  0.1712  0.0742  0.2971
18726W        W35574  10.703   3.269  14.026 -0.0405 -0.1646 -0.3836
18727W        W35575  12.014   0.143  14.456  0.1930  0.0947 -0.1472
18728W        W35576  10.180   1.781  15.649 -0.0961  0.1976  0.2265
18729W        W35577   3.053   8.989   1.182  0.1404  0.3877  0.2408
18730W        W35578  14.332  12.810  14.183  0.1880 -0.6465 -0.3595
18731W        W35579   1.362  13.930  15.932 -0.1152 -0.0254 -0.0992
18732W        W35580   4.490   1.341  15.527  0.1238  0.2658  0.0518
18733W        W35581  12.196  12.707   5.738 -0.0688 -0.1300  0.0662
18734W        W35582  15.277   5.238   0.715  0.0344 -0.0972 -0.1721
18735W        W35583  12.063   9.199   4.439 -0.1973 -0.2482 -0.1746
18736W        W35584  16.958  17.174   4.274 -0.0689  0.0120  0.2102
18737W        W35585   6.948  11.484  15.714 -0.0293 -0.3114  0.2938
18738W        W35586   4.129   0.116  15.630 -0.1740  0.0802  0.0598
18739W        W35587   7.958   4.224   4.090 -0.2376 -0.1719  0.0419
18740W        W35588   2.603  17.553  12.887  0.0658 -0.1819 -0.0719
18741W        W35589  15.856   9.715   1.894 -0.2960 -0.0781  0.1737
18742W        W35590   6.450   6.364  15.041  0.1083  0.0550 -0.1353
18743W        W35591   4.538   2.858  15.413 -0.2998 -0.2134 -0.0650
18744W        W35592  13.729   9.348   5.555  0.1106  0.3010 -0.0289
18745W        W35593   1.615   4.443   4.576  0.2542  0.4052 -0.0592
18746W        W35594   1.044   2.940  16.174 -0.2227  0.1142 -0.1620
18747W        W35595  17.588   9.837   1.874  0.3326  0.0184 -0.2641
18748W        W35596  10.041  12.079  14.328  0.0740 -0.0957 -0.2147
18749W        W35597   3.331   1.791   1.287 -0.1872 -0.0595 -0.1776
18750W        W35598   1.104  12.942  13.751 -0.0272 -0.1160 -0.0414
18751W        W35599   2.324   1.050  13.516 -0.1107 -0.1598 -0.0971
18752W        W35600   3.582  11.390   0.117  0.0426  0.0390 -0.1014
18753W        W35601  11.854  12.972   3.926 -0.2532  0.0734  0.0594
18754W        W35602  14.181  17.562  10.023 -0.2468 -0.0555 -0.2523
18755W        W35603  12.542  11.953  13.696  0.0432 -0.1371  0.0348
18756W        W35604  13.493   9.681   1.119 -0.0728 -0.1268 -0.2508
18757W        W35605   5.415  12.311   4.660 -0.1891  0.0244  0.3455
18758W        W35606  11.878  10.142  12.980 -0.2017 -0.0379 -0.0481
18759W        W35607   5.283   0.569  15.194  0.1492 -0.1544 -0.3541
18760W        W35608   2.265   7.492  11.454  0.0847 -0.0978 -0.3598
18761W        W35609  17.586   3.122   2.220  0.1790  0.1083  0.1524
18762W        W35610   3.069  15.464  11.976  0.1412  0.0343  0.2542
18763W        W35611   5.470   5.383   5.214  0.2186  0.2900  0.0639
18764W        W35612   5.957  14.244   2.634 -0.0095 -0.1960 -0.0148
18765W        W35613   1.947  10.907   3.088  0.2916 -0.2261  0.3392
18766W        W35614  10.366   4.542  12.553  0.0136 -0.1455 -0.1132
18767W        W35615   0.986  11.457  15.431 -0.0215  0.0186 -0.1801
18768W        W35616   6.904   0.038  12.506  0.0890 -0.1106 -0.3194
18769W        W35617   4.620   6.462   6.259 -0.2242 -0.1991 -0.1006
18770W        W35618  10.894  11.842  11.884 -0.0203  0.2166  0.2782
18771W        W35619   1.275   9.094   4.951 -0.0688  0.1888 -0.1126
18772W        W35620  15.418  15.914   1.516 -0.2387  0.1637  0.0322
18773W        W35621   8.307  11.855   1.906  0.4014 -0.3189  0.2509
18774W        W35622  10.139  11.682   4.827 -0.0944 -0.4268 -0.1431
18775W        W35623  12.318  16.380   1.664  0.2732  0.1217  0.0714
18776W        W35624  11.810  16.966   0.573 -0.0665  0.1794 -0.2334
18777W        W35625   7.389  14.064   1.836 -0.1334 -0.0658  0.0900
18778W        W35626   3.248  15.300   0.199 -0.2321  0.0790  0.0470
18779W        W35627  14.835   1.484   4.257  0.3071 -0.0904 -0.0072
18780W        W35628   6.541  13.396   3.488  0.0557 -0.0989 -0.3133
18781W        W35629  12.804  14.506  13.256  0.3758  0.0737 -0.1411
18782W        W35630  17.872   4.179   0.225 -0.2420  0.0413 -0.0961
18783W        W35631  15.894   7.465  13.548 -0.2949 -0.2542 -0.0070
18784W        W35632   2.819  17.239   6.567 -0.4374  0.0436  0.1200
18785W        W35633  12.747  14.790  14.209 -0.1629  0.1178  0.0100
18786W        W35634  10.465  17.380   2.201  0.0031  0.4351 -0.2992
18787W        W35635  10.547  12.238  12.675 -0.1779 -0.0930  0.0640
18788W        W35636   2.829  15.079  12.867  0.1044 -0.0335 -0.0303
18789W        W35637   0.299  10.850  11.866 -0.2853  0.0076  0.2723
18790W        W35638  11.262   5.972   1.945 -0.1524 -0.0359 -0.3191
18791W        W35639  13.789   9.252  14.924  0.0300  0.1672  0.0743
18792W        W35640  12.907  12.204   0.430  0.2997 -0.2351  0.2949
18793W        W35641  17.625   0.006  13.932 -0.2322  0.1726 -0.4232
18794W        W35642   1.701   4.726   2.148 -0.1492  0.0296 -0.2036
18795W        W35643   1.492  17.345   5.185 -0.1343 -0.0334 -0.1091
18796W        W35644  14.965  16.672  11.273  0.0382  0.1452 -0.0116
18797W        W35645  12.278  14.835   3.956  0.1237 -0.2325  0.1534
18798W        W35646   7.286  12.399   4.288 -0.1833  0.0385  0.0273
18799W        W35647   3.864   2.817  14.086 -0.1076 -0.0804  0.2210
18800W        W35648   3.928   4.109   3.500 -0.1062  0.0272 -0.0518
18801W        W35649   6.364   6.686   0.566 -0.1194  0.4364 -0.0062
18802W        W35650   3.544   4.508  15.108 -0.0667 -0.1474  0.0237
18803W        W35651   5.088   2.165  11.267 -0.0238 -0.0374  0.2749
18804W        W35652   2.086   3.993  13.544 -0.0273 -0.0437 -0.0632
18805W        W35653   2.534   8.230   1.520 -0.0060  0.0417 -0.0371
18806W        W35654   7.020  12.922   3.916  0.1299 -0.2143  0.0841
18807W        W35655   6.677   0.660  14.726 -0.0797  0.4810  0.1042
18808W        W35656  16.443   4.163  13.766  0.1356 -0.2255 -0.0248
18809W        W35657   0.304   9.946   1.081  0.0709  0.0898  0.0472
18810W        W35658   3.326  17.685   5.343  0.2774 -0.2661  0.1230
18811W        W35659   3.466  15.793   1.863  0.0341 -0.2742 -0.0133
18812W        W35660   2.389   1.655   2.750  0.0363  0.0460 -0.0853
18813W        W35661   2.853   1.467  11.290  0.1610 -0.3065 -0.1019
18814W        W35662  16.100  14.591  13.273  0.1373 -0.2058  0.0731
18815W        W35663   5.387  10.599  13.397 -0.1871  0.3290  0.0401
18816W        W35664   7.344   1.728  12.688  0.3101 -0.0390 -0.2013
18817W        W35665   5.315  17.197  16.090 -0.0235 -0.0104 -0.2205
18818W        W35666   5.535   6.337   1.437  0.1007  0.0391  0.4667
18819W        W35667  15.848   2.190  12.288  0.2102 -0.0323 -0.3550
18820W        W35668  14.477  10.512   4.223  0.1461  0.3300  0.1343
18821W        W35669   7.680   4.243   3.080 -0.0267  0.1123 -0.1093
18822W        W35670   1.613  13.840  11.425  0.2509  0.0590 -0.1896
18823W        W35671  12.585   1.732   1.027 -0.0648 -0.0229 -0.0407
18824W        W35672   0.429   2.427  11.361 -0.1705 -0.0493 -0.2652
18825W        W35673  11.440   7.188  16.247 -0.1421  0.0221 -0.1405
18826W        W35674   8.054   5.250   1.873 -0.1290 -0.2512 -0.0194
18827W        W35675  14.350   6.099  11.675 -0.1743  0.0610  0.2216
18828W        W35676  15.283   8.957   3.668 -0.1176  0.1257 -0.0558
18829W        W35677   0.202  17.478  12.963 -0.0739 -0.1141  0.1268
18830W        W35678  17.813   5.901  10.591  0.1620 -0.0110  0.3665
18831W        W35679  12.024  14.327  15.357 -0.0976 -0.2144  0.2450
18832W        W35680   8.147  16.004  12.716 -0.2135 -0.2583 -0.1557
18833W        W35681  10.424  14.551  13.814 -0.2195  0.1394 -0.3373
18834W        W35682  14.647   8.053  15.335  0.1327 -0.1535  0.0047
18835W        W35683   3.460  12.037   1.739  0.2803 -0.1724  0.1453
18836W        W35684  13.716   0.926  12.860  0.1011 -0.3959 -0.0528
18837W        W35685   0.906   3.905   3.014 -0.0699  0.2353 -0.0512
18838W        W35686   1.579   7.538   0.905 -0.1759  0.0136  0.1672
18839W        W35687  13.255  15.596   3.460 -0.0262  0.1440  0.0561
18840W        W35688   2.842  15.784   4.148  0.1450 -0.0251 -0.0009
18841W        W35689   9.660   9.771   3.466 -0.1009 -0.2171 -0.0672
18842W        W35690   1.867  15.512  13.878  0.2520  0.1238 -0.1239
18843W        W35691   9.169  12.161  12.564  0.0735  0.1762 -0.0339
18844W        W35692   1.524  15.750  11.161 -0.0254  0.0520  0.0767
18845W        W35693   6.051  12.866   0.584  0.1165  0.1000 -0.1867
18846W        W35694   6.307   5.562  13.268  0.0019 -0.2173 -0.0907
18847W        W35695  17.530  16.961   0.342  0.0954 -0.2951  0.2423
18848W        W35696   0.860  11.757   2.605 -0.2507  0.1116  0.1188
18849W        W35697  12.963   6.592  15.747 -0.0741 -0.2824  0.0308
18850W        W35698  17.532   7.124   6.159  0.2030 -0.0256  0.2562
18851W        W35699   8.428   3.435  15.545  0.2414  0.3309 -0.2352
18852W        W35700   5.305  15.731  16.026  0.0812 -0.3807 -0.1347
18853W        W35701   1.697   2.611  14.569 -0.2718 -0.1255  0.1914
18854W        W35702  12.139  17.316  12.001  0.0273  0.1242 -0.0268
18855W        W35703  15.513   3.004  12.211  0.0024 -0.1371  0.0885
18856W        W35704   6.856   4.762  13.461  0.0163 -0.0825 -0.2893
18857W        W35705   3.895   5.882   1.123  0.0179  0.3364  0.1531
18858W        W35706   3.904   4.162   2.992  0.2591  0.1562  0.0648
18859W        W35707   1.459   0.210  15.270 -0.1019  0.0936  0.4050
18860W        W35708  10.934   8.648  13.623  0.0981 -0.3011 -0.0234
18861W        W35709  12.148  15.264   4.108  0.4061 -0.1494 -0.4203
18862W        W35710   2.075   7.607   1.083  0.0035  0.0730  0.0795
18863W        W35711   7.159   5.000   4.320 -0.1539 -0.1912  0.0951
18864W        W35712  10.225   0.028   0.622 -0.4674 -0.0565 -0.0210
18865W        W35713   6.335   8.040   1.908 -0.1090  0.3100  0.3597
18866W        W35714   7.126  12.774  15.952  0.0055 -0.0326  0.1697
18867W        W35715   6.994   4.593   0.858 -0.0711  0.3351  0.1801
18868W        W35716  14.184   0.819  15.430  0.4226  0.2404  0.1887
18869W        W35717   4.663   0.619  12.196  0.2325  0.2047  0.2127
18870W        W35718   3.670   6.215   0.384  0.0050 -0.0033  0.0613
18871W        W35719   6.820  12.867   5.434 -0.0315 -0.2682 -0.2883
18872W        W35720  17.842  17.319   0.111  0.3819  0.3066 -0.1496
18873W        W35721   3.987  12.436   2.847  0.1439 -0.0797  0.0980
18874W        W35722   0.074   5.649  15.567 -0.1831  0.1639 -0.1587
18875W        W35723   6.898   6.781  12.754  0.0241 -0.0962 -0.2010
18876W        W35724   6.157  14.293   1.235 -0.2010 -0.1993 -0.0054
18877W        W35725  12.058  11.229  12.298 -0.3624 -0.0101 -0.0748
18878W        W35726  13.675   5.335   2.769 -0.0709  0.0030 -0.0051
18879W        W35727  12.198   0.627  13.556  0.0671  0.0205 -0.0307
18880W        W35728  12.788  15.311   2.173 -0.0311  0.1689 -0.0859
18881W        W35729   9.559   5.319   4.036  0.1072  0.1283  0.1388
18882W        W35730  10.662  14.415   3.517  0.2046 -0.0432 -0.0612
18883W        W35731   3.258   6.697  13.879  0.0327 -0.1184 -0.2539
18884W        W35732   0.031  10.779   3.171 -0.0107  0.4701 -0.3112
18885W        W35733   8.036   7.218   0.804  0.3165  0.0335  0.0845
18886W        W35734  12.279   5.156   5.403  0.1598  0.1171  0.0407
18887W        W35735  12.157  12.555   5.286 -0.0221 -0.0175 -0.0328
18888W        W35736  12.339   4.091   3.565 -0.2570 -0.4774  0.1339
18889W        W35737  14.893  12.087  15.058  0.3358  0.1769 -0.3192
18890W        W35738  15.150  12.801   0.665 -0.0425  0.0694 -0.2113
18891W        W35739   5.731  15.534  14.075  0.3177  0.2063  0.0221
18892W        W35740  12.666   3.848   2.624  0.1200 -0.1352 -0.0135
18893W        W35741  12.594  12.182  12.285 -0.3200 -0.1073  0.1422
18894W        W35742   7.837   8.041  14.447 -0.1551  0.2309 -0.2181
18895W        W35743   4.035   3.538  11.857  0.2054 -0.1156 -0.0273
18896W        W35744   8.457   3.592   2.756  0.2195 -0.0734 -0.1791
18897W        W35745  11.713   3.349  14.107 -0.1313 -0.1200  0.0723
18898W        W35746   0.740   8.578   1.565 -0.0013  0.1471  0.2805
18899W        W35747  12.567   6.050   2.851 -0.0337 -0.0516 -0.0388
18900W        W35748   1.489   4.717  15.678 -0.3845  0.1411 -0.1011
18901W        W35749  10.015  11.904   5.240  0.3420 -0.0941  0.0310
18902W        W35750  12.175   7.967  14.218 -0.0892 -0.0510  0.0490
18903W        W35751  13.066  13.693  15.733  0.0644 -0.2420  0.1181
18904W        W35752   0.957   7.902   3.024  0.2822  0.5124 -0.0566
18905W        W35753  12.199   6.620  13.364  0.1678  0.0550 -0.2051
18906W        W35754  10.102   7.495   2.405 -0.2958 -0.2822 -0.0980
18907W        W35755   1.037   0.605  12.515 -0.4067  0.0427  0.0684
18908W        W35756  13.153  16.749   2.916  0.0879  0.3431  0.1069
18909W        W35757   0.445  16.629   1.271 -0.4513 -0.2121  0.3942
18910W        W35758   8.374  16.358  15.804 -0.0289  0.1995 -0.1460
18911W        W35759   7.054  10.351  11.921  0.1668  0.1537 -0.0213
18912W        W35760   9.343  10.314   2.227 -0.0546  0.2456 -0.0894
18913W        W35761   3.364   9.737  15.617  0.0188 -0.0682  0.0636
18914W        W35762  15.515   6.991  15.046 -0.1752  0.1246  0.1045
18915W        W35763   0.015   3.042   5.278  0.0684 -0.0968  0.0007
18916W        W35764   6.575  10.126  10.650  0.0085 -0.1557  0.2586
18917W        W35765  11.499   0.366   1.603 -0.0011  0.0707 -0.2420
18918W        W35766  15.542   1.147  14.745 -0.1571 -0.2052  0.1320
18919W        W35767   6.260   3.154   5.076  0.4731  0.1276  0.0730
18920W        W35768   7.182   2.649  14.324  0.1077 -0.1162  0.0641
18921W        W35769  13.412   6.781   3.266  0.3314 -0.2206  0.3587
18922W        W35770  12.058   8.806   1.323 -0.0167  0.0890 -0.1437
18923W        W35771   5.788   6.720  14.574  0.2470 -0.0665 -0.0931
18924W        W35772  16.316  10.432  14.258 -0.3221 -0.0915  0.3577
18925W        W35773   8.286   1.157  16.330 -0.0754  0.0742 -0.0900
18926W        W35774  16.070   0.982  11.185 -0.0096 -0.0364  0.1200
18927W        W35775   7.495   0.564   1.889 -0.1832  0.1459 -0.0439
18928W        W35776   9.948  13.451   2.904 -0.0525 -0.1245  0.2887
18929W        W35777   8.684   4.141  10.652  0.0026 -0.2822 -0.0261
18930W        W35778   2.095   5.962   1.917  0.1736  0.1041  0.4414
18931W        W35779  17.629   5.712   2.517  0.2818  0.1748  0.0935
18932W        W35780   8.263  10.793  13.907  0.0210 -0.3557  0.0534
18933W        W35781  10.972   5.576   3.387  0.2737  0.0465 -0.1269
18934W        W35782   6.285  16.910  13.556  0.1625  0.0402 -0.0497
18935W        W35783   8.536   2.061  11.925 -0.1602 -0.0136 -0.2436
18936W        W35784   8.024   8.638  13.867 -0.1179 -0.0330 -0.0144
18937W        W35785  10.480   3.548   5.261 -0.1186 -0.0130  0.0394
18938W        W35786   4.349  14.085  14.811 -0.1379 -0.2088 -0.4161
18939W        W35787   0.990   0.688   2.041 -0.2014 -0.1430 -0.0865
18940W        W35788  14.395  17.874  13.773 -0.0722  0.1051 -0.1888
18941W        W35789   2.736   6.777   4.580  0.3679  0.1523  0.0767
18942W        W35790  16.416   3.382  11.933 -0.2610 -0.1810  0.5452
18943W        W35791  16.238  17.584   2.463  0.0555  0.0676  0.0247
18944W        W35792   7.280   6.729   2.025  0.1933 -0.2332  0.1267
18945W        W35793  16.599  13.477   5.439 -0.1950 -0.0069  0.0062
18946W        W35794  17.750   6.894   3.145  0.0307 -0.5203 -0.2504
18947W        W35795   3.886  11.862  14.807  0.1483  0.0987  0.1175
18948W        W35796   0.222   1.001   6.127 -0.1673  0.2059 -0.0349
18949W        W35797  11.990   5.104  16.210 -0.0790 -0.0831 -0.0451
18950W        W35798  10.813   9.238   1.160 -0.3275 -0.2400  0.0862
18951W        W35799  12.438   2.979   2.301  0.0557 -0.2661 -0.1125
18952W        W35800   2.072   3.301  12.986  0.1027 -0.2916  0.1566
18953W        W35801   7.864  16.406   1.547 -0.0115  0.0066 -0.3343
18954W        W35802  15.119   8.422  12.853  0.0810  0.0220 -0.0636
18955W        W35803  11.484  13.827  14.529  0.1658  0.1762  0.2483
18956W        W35804   5.985  13.234   5.277 -0.1888  0.4048  0.1127
18957W        W35805  15.021   8.121   3.712 -0.1231 -0.0709 -0.1899
18958W        W35806   8.956   6.381   2.205  0.0527  0.4322 -0.0169
18959W        W35807  15.140   8.536   4.429 -0.2245  0.0061  0.0291
18960W        W35808  11.113   4.314   1.334 -0.1651 -0.3991  0.3948
18961W        W35809   3.552  10.003   0.372  0.2096  0.0350 -0.0987
18962W        W35810  17.676   9.836   2.495  0.0545  0.0021  0.3028
18963W        W35811  15.122   9.672  11.091  0.4442  0.0603  0.0251
18964W        W35812   7.912  15.648   6.018  0.1252 -0.0029 -0.1762
18965W        W35813  16.080  10.881   1.350 -0.2594  0.3149  0.1872
18966W        W35814  12.390  13.860   0.461 -0.1796  0.1770 -0.3121
18967W        W35815  14.270   2.865  13.705 -0.0286  0.3474 -0.0748
18968W        W35816  13.910   0.584   3.399 -0.1981  0.1353  0.2588
18969W        W35817   7.616  16.227   3.783 -0.2151  0.1418  0.0538
18970W        W35818  14.380   8.850  12.838  0.4340  0.3444 -0.0356
18971W        W35819   8.125   3.774  13.991  0.2100  0.1928  0.1622
18972W        W35820  16.419  16.941   0.228  0.0199  0.3001  0.2776
18973W        W35821  13.734  13.575   4.425 -0.2367 -0.2120  0.3785
18974W        W35822  11.507  10.566   3.789 -0.1662 -0.2204  0.0278
18975W        W35823  10.845   6.543  14.682  0.0088  0.1751 -0.5199
18976W        W35824  10.880  16.843  13.287  0.0039 -0.0291  0.0886
18977W        W35825   1.598   3.495   2.482 -0.3424 -0.0854  0.0240
18978W        W35826  11.141   9.989  16.097 -0.1840 -0.0694 -0.1184
18979W        W35827  14.713  13.727   0.586  0.1370  0.0792 -0.0571
18980W        W35828  11.455   2.431  12.727  0.3630 -0.0612  0.1348
18981W        W35829   6.624   4.204   1.551 -0.2832  0.0036 -0.0725
18982W        W35830   2.876   5.882   4.867 -0.2011 -0.0440  0.0883
18983W        W35831   8.542  12.132   1.130  0.0806  0.4593 -0.1737
18984W        W35832   9.393   9.349   3.409 -0.2352 -0.1417  0.2003
18985W        W35833   6.045   3.091  14.954 -0.0533  0.1375 -0.1890
18986W        W35834  13.067   3.844  13.342  0.1145 -0.3478  0.0588
18987W        W35835  14.275  16.974  12.208  0.2630  0.4310 -0.1121
18988W        W35836   4.018  14.848  13.665 -0.1922  0.1506  0.1122
18989W        W35837   3.669   3.509  12.348  0.1811  0.2578 -0.1301
18990W        W35838  14.343  10.631   4.741 -0.1991 -0.0688  0.3976
18991W        W35839  11.880  17.838  13.192 -0.1446 -0.0585  0.3071
18992W        W35840   2.467   8.983  16.289  0.0250 -0.1366  0.1424
18993W        W35841  15.757   3.126  10.748 -0.0687  0.3941 -0.1898
18994W        W35842  14.142   9.455  12.225  0.1389 -0.0913 -0.0212
18995W        W35843   4.320   7.787  16.411  0.2915 -0.2561  0.0667
18996W        W35844  14.027   9.956  15.349 -0.0859  0.0322  0.0134
18997W        W35845  17.608   4.018   2.022 -0.0562 -0.2498 -0.0582
18998W        W35846  14.899   0.534  12.258  0.2017 -0.0911 -0.2143
18999W        W35847  11.466  14.491  15.287  0.0709 -0.0803  0.3150
19000W        W35848  17.243  14.729   0.253  0.0856  0.1631  0.1277
19001W        W35849   7.181   7.594   4.845  0.0997  0.0675  0.0787
19002W        W35850  11.967  16.406   0.946  0.1960 -0.0165  0.0029
19003W        W35851   2.561   7.637  12.327 -0.0924  0.0321 -0.0111
19004W        W35852  11.409   7.794   2.396  0.0310  0.0310  0.0003
19005W        W35853  12.824  10.917  11.359  0.0085  0.0267 -0.2497
19006W        W35854   2.566   0.377   0.334 -0.2291  0.0747  0.0550
19007W        W35855  17.346  13.394  10.867 -0.0296 -0.2004 -0.2388
19008W        W35856   7.896  12.686   1.142 -0.3159  0.2655  0.0610
19009W        W35857   1.206  15.686   2.015 -0.4060  0.1916  0.1876
19010W        W35858   0.144   0.350   1.675 -0.2045 -0.0930 -0.1271
19011W        W35859   3.925   8.820  15.983  0.0900 -0.1963 -0.0035
19012W        W35860  10.504   6.358  11.874  0.3308  0.2728  0.2074
19013W        W35861   2.641  12.669   4.243 -0.2010 -0.1606  0.0949
19014W        W35862  10.276   4.511   2.276  0.0883  0.1689 -0.1037
19015W        W35863   7.699   0.379  12.738  0.0691  0.1095  0.2629
19016W        W35864   4.327   9.179   3.686 -0.1151 -0.2161  0.1076
19017W        W35865  15.165   8.136  14.365 -0.2428 -0.0330  0.0051
19018W        W35866  12.920  15.436  12.869 -0.3259  0.2321  0.0864
19019W        W35867   3.501   2.818   0.813 -0.3866  0.0095 -0.1476
19020W        W35868  17.681  11.462   4.692  0.0757  0.1978  0.1067
19021W        W35869   8.477  10.152   0.879 -0.1788  0.0167  0.1114
19022W        W35870   2.260   7.548   0.317 -0.0800  0.0724 -0.0823
19023W        W35871  14.393  17.692  12.697  0.0212 -0.2113 -0.1575
19024W        W35872   5.408   1.084  11.427 -0.1593 -0.1517  0.1054
19025W        W35873   0.300  12.611   1.483  0.3194 -0.1001  0.2335
19026W        W35874  14.720  11.612   1.174  0.0177 -0.0972  0.0987
19027W        W35875   2.200   0.509  16.437 -0.1718 -0.0441  0.0407
19028W        W35876   8.261   9.391  12.821 -0.0112  0.0499  0.1850
19029W        W35877   9.603   4.075  11.411  0.0112 -0.0720 -0.1413
19030W        W35878   1.713   6.311  11.743  0.1802  0.1404  0.1723
19031W        W35879   5.693   0.435   0.889 -0.0615  0.1771  0.1614
19032W        W35880   7.616   6.817  13.970  0.0164  0.0456  0.4386
19033W        W35881   0.447   6.341  14.591  0.1452 -0.0909  0.0246
19034W        W35882  10.115  12.443   4.059  0.2196 -0.0931 -0.1624
19035W        W35883   8.298  16.345   5.051  0.2425 -0.0306 -0.2831
19036W        W35884  14.879   3.659   1.814  0.0228 -0.1218  0.0023
19037W        W35885  16.410  15.781   4.758 -0.1693 -0.1859 -0.1590
19038W        W35886   5.114   6.699   0.586  0.0475  0.4885 -0.1171
19039W        W35887   4.832   1.661  12.083 -0.1425  0.1804 -0.0385
19040W        W35888   6.060  11.951  11.985 -0.3124  0.1093 -0.0162
19041W        W35889   0.439   8.901  16.126  0.0062  0.0443  0.0579
19042W        W35890   5.630  11.253   2.277 -0.2914  0.0054  0.2286
19043W        W35891   3.826   2.922  16.100  0.0880 -0.0594  0.0546
19044W        W35892  15.647  13.044  12.881 -0.0782 -0.0883 -0.3258
19045W        W35893   6.272   7.388   0.597  0.3234 -0.0511 -0.1347
19046W        W35894  15.161  14.864   1.029  0.1613  0.1311 -0.0077
19047W        W35895  12.091   0.283   4.779 -0.0811  0.0753  0.0861
19048W        W35896  16.843   2.501  15.431  0.2447 -0.1078  0.2390
19049W        W35897   5.117   0.101  11.688 -0.3106  0.2682  0.1321
19050W        W35898   1.366   5.885   3.700 -0.2026  0.2449  0.0266
19051W        W35899   5.059  17.321  13.565 -0.3682 -0.2571 -0.0907
19052W        W35900  13.648   6.254  12.424 -0.0587  0.1289  0.2437
19053W        W35901   8.764  12.275  11.601  0.1064  0.2209 -0.0763
19054W        W35902  11.624  12.158  15.862 -0.0737  0.2550  0.2959
19055W        W35903  15.501   9.165   1.836  0.0071  0.2304  0.2195
19056W        W35904   0.585   7.657   1.701 -0.0324 -0.2262  0.3175
19057W        W35905   6.527   5.317   0.537 -0.1321 -0.0584  0.0877
19058W        W35906  17.355  15.373   2.602 -0.1201 -0.1314 -0.3062
19059W        W35907  15.487  13.519   5.416  0.0152 -0.1607  0.3814
19060W        W35908   4.016  13.422   3.315 -0.3161  0.0213  0.0091
19061W        W35909  14.000   8.370  12.827 -0.1387 -0.2496 -0.0549
19062W        W35910  12.319   8.502   3.284 -0.1889 -0.0877  0.0368
19063W        W35911  12.625   2.836  14.964  0.2236  0.1476 -0.0622
19064W        W35912   9.489   0.412  14.339 -0.4570 -0.0457  0.0151
19065W        W35913   7.340   0.395   0.867  0.2445  0.2633  0.2076
19066W        W35914  16.978   3.131  15.813 -0.0693 -0.0894  0.2419
19067W        W35915  16.592   1.306  11.331 -0.1678  0.1844  0.0813
19068W        W35916  10.453   0.952  14.963  0.2465  0.0617 -0.1052
19069W        W35917   1.366  16.620   0.048 -0.2376 -0.1757 -0.1154
19070W        W35918  15.780  16.127  15.095  0.3503  0.1566 -0.0625
19071W        W35919  12.197  16.873  12.951 -0.1340 -0.0923  0.0268
19072W        W35920  14.241   5.724  15.001  0.2722  0.2230 -0.2664
19073W        W35921   9.268  16.461  15.320  0.0180 -0.3285 -0.1996
19074W        W35922   7.550  13.376  13.534 -0.2484 -0.2430 -0.1222
19075W        W35923   7.645  15.594  14.480  0.3045  0.3265 -0.3125
19076W        W35924  10.284   9.626  16.216 -0.5210 -0.1326  0.1325
19077W        W35925   2.599  15.361   3.886 -0.2243 -0.0292 -0.0636
19078W        W35926  14.414   1.723  15.075  0.2864 -0.1828  0.1299
19079W        W35927  11.793  14.999   3.133  0.1078  0.0649 -0.0039
19080W        W35928   3.744  16.542   5.312  0.2937  0.2608 -0.2439
19081W        W35929   4.494   9.345   2.681  0.0452 -0.2899  0.2229
19082W        W35930  16.724   8.868   3.568 -0.1440 -0.0932  0.0907
19083W        W35931   5.592   3.389  16.424 -0.2647  0.1327 -0.0826
19084W        W35932   1.167  16.710   3.883  0.0291  0.1093  0.1384
19085W        W35933   3.225  10.527  10.184  0.2808  0.1127  0.1168
19086W        W35934   0.375  11.229  12.922 -0.0812  0.0388  0.1335
19087W        W35935   4.256   0.433   5.360 -0.1120  0.1141 -0.0810
19088W        W35936  17.715  11.968   4.910  0.1163  0.0534 -0.0446
19089W        W35937   6.804  15.847  12.930  0.0329 -0.0136  0.0072
19090W        W35938   5.746   8.469   3.976  0.0793  0.3209  0.1096
19091W        W35939   7.125   5.858  12.765  0.3266  0.0089 -0.3869
19092W        W35940  15.634   6.239   4.520  0.0177 -0.2261 -0.0376
19093W        W35941  12.037  10.211  16.329 -0.0770 -0.1316 -0.0741
19094W        W35942   8.814   4.186   3.938 -0.3042  0.1201  0.0738
19095W        W35943   2.006   1.533  13.620  0.1630  0.1084 -0.2031
19096W        W35944  10.516  12.650  15.594  0.1307  0.2024  0.0856
19097W        W35945  17.005   7.813  16.279  0.2158 -0.1621  0.2216
19098W        W35946   7.791   8.042   0.650 -0.0179  0.1028 -0.0780
19099W        W35947   9.831  11.097  14.123 -0.0201 -0.0714  0.0772
19100W        W35948   6.710   6.842   4.507  0.0215 -0.1090  0.0905
19101W        W35949   5.923   0.944  11.387 -0.0388  0.1631  0.0354
19102W        W35950   5.756   7.112   3.414  0.2135 -0.0844 -0.1096
19103W        W35951  13.346   6.640   3.754  0.1795 -0.3051  0.0468
19104W        W35952  12.851   0.043  15.588  0.0397 -0.1419  0.0094
19105W        W35953  10.667  16.383  16.310  0.0685 -0.0737  0.0313
19106W        W35954   5.861   5.335  13.356 -0.2533 -0.2079 -0.0962
19107W        W35955   7.763   3.427   4.790 -0.1530 -0.2040  0.0274
19108W        W35956  16.473  11.563  10.308 -0.0059  0.0368  0.0464
19109W        W35957   5.856  17.811  16.273 -0.1383 -0.0689 -0.0216
19110W        W35958   5.676  14.298  13.077 -0.1006  0.3118  0.0268
19111W        W35959  12.880  17.371  16.213 -0.4527 -0.3360 -0.1732
19112W        W35960   3.117   9.618  15.109  0.1801  0.1590 -0.0432
19113W        W35961   3.937   8.748  13.923  0.1842  0.1130 -0.2988
19114W        W35962   0.226  13.754   3.515  0.0530 -0.1674  0.1789
19115W        W35963   3.395  11.711   2.193  0.0502 -0.1979 -0.2363
19116W        W35964  16.848   4.329  12.981  0.4573 -0.0591 -0.0601
19117W        W35965   7.736   5.414  13.434  0.1515 -0.0904 -0.1095
19118W        W35966   9.114  14.746  14.162 -0.0041  0.2395  0.0281
19119W        W35967  15.986   3.204   1.689 -0.0742  0.0228  0.0681
19120W        W35968  16.432   2.155   0.376 -0.3409 -0.1189 -0.1385
19121W        W35969   5.444  15.114   4.487  0.0558  0.1071 -0.0081
19122W        W35970  13.047   9.982   2.943  0.2381 -0.0484 -0.1585
19123W        W35971   9.047   9.202   4.175  0.1450 -0.2078 -0.1400
19124W        W35972   5.467   9.577   5.653  0.2535 -0.1415  0.1063
19125W        W35973   6.662  17.661   1.250  0.0710 -0.2313  0.0230
19126W        W35974  11.488  10.764   1.834  0.1073 -0.3192  0.1391
19127W        W35975   1.925   3.761  14.323  0.0772 -0.2131  0.1365
19128W        W35976  13.947  11.866  11.570  0.2724 -0.1581  0.0845
19129W        W35977  15.269   4.854   1.890 -0.0315  0.0561 -0.1610
19130W        W35978  14.416  11.468  13.448  0.3171  0.1115  0.0079
19131W        W35979   3.000   7.724  13.168 -0.1095  0.1539 -0.0684
19132W        W35980   7.968   6.608  12.221 -0.2555 -0.1642  0.1961
19133W        W35981   2.063   3.393   3.738  0.2289  0.0380  0.2334
19134W        W35982   5.986  17.381   1.193  0.0187 -0.0628  0.0414
19135W        W35983  17.183   0.672   2.157  0.2237 -0.1668 -0.0742
19136W        W35984  10.129   2.317   2.099 -0.1230 -0.0599 -0.3647
19137W        W35985  16.075   1.991   3.845  0.0722  0.2658  0.1158
19138W        W35986   6.355   6.684   2.935  0.0160 -0.1187  0.1540
19139W        W35987  13.555  11.483  11.757 -0.1938  0.0021 -0.3042
19140W        W35988   6.996   6.139   1.482  0.1422 -0.1013 -0.0628
19141W        W35989  11.061   9.900   5.256  0.0351 -0.0309  0.1723
19142W        W35990  13.792  16.079  16.144 -0.4236  0.2658  0.3122
19143W        W35991  13.337   9.770  12.384 -0.1354  0.0821 -0.0868
19144W        W35992  16.996  17.432   0.057  0.0328 -0.2574 -0.2801
19145W        W35993  16.266  11.122  15.473 -0.1316  0.0697  0.1457
19146W        W35994  15.417   7.969   3.326  0.3898  0.0036  0.3887
19147W        W35995   1.389   9.034   5.464  0.1020 -0.2051  0.1549
19148W        W35996  10.663  16.557   0.332 -0.0174 -0.1835 -0.1250
19149W        W35997   6.329  17.830  15.297 -0.0758  0.0532 -0.1764
19150W        W35998   3.653  10.165  11.303  0.1306 -0.0931 -0.0534
19151W        W35999  15.667  13.818  12.387 -0.2101 -0.1829 -0.2986
19152W        W36000  17.112   2.280   1.147 -0.1899 -0.1213 -0.0854
19153W        W36001   9.507   5.692   5.419  0.2003  0.2189  0.0280
19154W        W36002  15.920   5.087   0.080 -0.1066 -0.3502  0.1095
19155W        W36003  16.257  13.778   0.155 -0.3356  0.0297 -0.2097
19156W        W36004   3.193  14.180  12.186  0.2808  0.0594  0.0625
19157W        W36005   0.065  10.414  13.091  0.0819  0.0799  0.3276
19158W        W36006  16.323   2.329   4.715  0.0918  0.1832 -0.0462
19159W        W36007  17.321  16.019  11.507  0.1078  0.2011  0.0543
19160W        W36008   8.142  14.719  14.531  0.0117  0.1860 -0.2951
19161W        W36009  14.077  11.287   2.416 -0.0060 -0.1804 -0.0545
19162W        W36010  13.760  16.663   4.140  0.2132 -0.0149  0.3288
19163W        W36011   5.748  17.347  14.828  0.0591  0.2457 -0.3672
19164W        W36012   5.653   3.005  11.179  0.0333  0.1990  0.0345
19165W        W36013  16.154  15.153  11.189 -0.0503  0.3613 -0.0265
19166W        W36014  16.973  12.707   4.928 -0.4076  0.2346  0.0350
19167W        W36015  13.490   6.614  12.827 -0.2949 -0.4247 -0.1516
19168W        W36016   2.461   6.262   2.780  0.4054 -0.1363  0.0299
19169W        W36017   8.036   2.480   2.464  0.1051  0.2718 -0.0803
19170W        W36018  15.723   2.188   4.428 -0.2275 -0.1336 -0.1124
19171W        W36019   5.032   0.793   0.141  0.0655  0.1013 -0.3239
19172W        W36020  15.454  17.727  12.737  0.1877  0.1315  0.0252
19173W        W36021   8.260   7.164  13.669 -0.2282 -0.0367  0.1759
19174W        W36022  17.462   8.948   1.861  0.1427 -0.1276 -0.1168
19175W        W36023  14.260  14.904   2.484 -0.1049  0.1496  0.2331
19176W        W36024   5.256   2.302   4.194  0.1620 -0.1548 -0.0733
19177W        W36025   9.166  13.505   4.316 -0.1777 -0.0306  0.1751
19178W        W36026   4.594   2.254   3.440 -0.0341 -0.1995 -0.1683
19179W        W36027   3.001  11.875  12.794 -0.3600 -0.1279  0.0185
19180W        W36028  12.332  12.770   3.906 -0.1949  0.2336 -0.3213
19181W        W36029  15.732  15.342   2.850  0.0019  0.0483  0.0776
19182W        W36030   2.139   8.757  14.843  0.2962  0.0418 -0.0499
19183W        W36031   7.380   5.289   3.033  0.1538 -0.3148  0.1623
19184W        W36032  10.692  16.271  15.771 -0.0296  0.2890  0.0886
19185W        W36033  13.302  13.962   4.522  0.2704  0.0793 -0.0407
19186W        W36034   0.251   4.034  14.139 -0.1270 -0.1514  0.0198
19187W        W36035   0.256   0.829  12.419  0.3129  0.0202  0.1274
19188W        W36036   0.915   1.486   0.859 -0.1486  0.3398  0.2225
19189W        W36037   3.559   9.241  16.081  0.0376  0.1419 -0.1351
19190W        W36038   2.742   7.123  15.363 -0.0547  0.3357  0.3289
19191W        W36039   4.276   1.569  14.073  0.0979  0.2938  0.2015
19192W        W36040  12.826  11.661   0.459  0.2314  0.1647  0.1176
19193W        W36041  15.888   9.890  12.129  0.0232 -0.1585 -0.1250
19194W        W36042  14.338  17.184   3.077  0.0686  0.2323  0.3610
19195W        W36043  17.040   7.172   4.153 -0.0513  0.1263  0.4321
19196W        W36044   5.070   7.615   2.194 -0.0732  0.2926 -0.2333
19197W        W36045   6.353   7.414   5.261 -0.0969  0.1202  0.4985
19198W        W36046  12.589  16.658   2.120  0.1133  0.1763  0.1828
19199W        W36047   5.938  11.312  11.329 -0.2407 -0.0410 -0.1173
19200W        W36048   4.649   7.170   1.712  0.2692 -0.2651  0.1463
19201W        W36049  17.434  15.324   3.759 -0.0070  0.2071  0.0690
19202W        W36050   5.339   0.113  12.098 -0.2008 -0.1122 -0.0998
19203W        W36051   2.753   1.360   2.616 -0.1147 -0.0528 -0.0063
19204W        W36052   6.428   9.735  16.098  0.0202 -0.0734  0.0298
19205W        W36053   4.491  15.588   4.923  0.2823 -0.1536  0.3185
19206W        W36054   4.862  11.389  13.296 -0.3887 -0.0821  0.0080
19207W        W36055   1.663  10.739   1.600  0.1296 -0.0665  0.2474
19208W        W36056   2.021  11.666  11.152  0.0263  0.0815  0.2075
19209W        W36057  13.767   1.061  12.076  0.1606  0.1120  0.1115
19210W        W36058   0.072   5.640   2.118  0.0564  0.1572 -0.2134
19211W        W36059   5.435  11.219  14.146  0.0283  0.1009  0.0545
19212W        W36060  16.976   9.982   0.915  0.0015 -0.0355  0.1006
19213W        W36061   7.754  10.673  13.757  0.0992  0.0772  0.0185
19214W        W36062   1.609  14.118  16.324 -0.0144  0.1065 -0.0497
19215W        W36063   3.635  17.473  12.287  0.3779  0.2282  0.1458
19216W        W36064  16.098   8.824   2.235  0.0642 -0.0163  0.2843
19217W        W36065  14.809  13.851  15.377 -0.1623  0.1421  0.1403
19218W        W36066   5.391  14.179   4.259  0.1315  0.0612  0.4522
19219W        W36067   4.001  16.776  15.606  0.1476  0.1271 -0.0404
19220W        W36068  10.059   8.184   1.185  0.3360  0.0140  0.3326
19221W        W36069   4.461   7.072   2.844  0.0290 -0.1010  0.0283
19222W        W36070   7.737  17.025  11.820 -0.0451  0.1657 -0.0719
19223W        W36071   6.774  11.608  11.596 -0.1042 -0.2958  0.4638
19224W        W36072   5.023  10.003   1.039  0.0640  0.0587 -0.0356
19225W        W36073   8.897   9.798   5.492 -0.1902 -0.2041  0.0532
19226W        W36074   6.159   0.686   5.178  0.0050 -0.0041 -0.3346
19227W        W36075   3.597   8.306  11.252 -0.3923 -0.1772  0.0033
19228W        W36076  11.177  12.514   1.512 -0.0487 -0.0265  0.0493
19229W        W36077   5.905  16.519   4.422 -0.1382  0.1995  0.2101
19230W        W36078   7.964   0.634  12.050  0.1820  0.2459 -0.0299
19231W        W36079   4.750   9.879  13.917 -0.0760 -0.0870  0.0678
19232W        W36080   4.193  11.614   4.843 -0.1405 -0.2066  0.3128
19233W        W36081   1.001  15.347   1.040 -0.0793 -0.2168 -0.1474
19234W        W36082   1.939   2.447  13.676  0.1788 -0.1094 -0.0604
19235W        W36083   9.950  16.292   0.999 -0.3919 -0.3314  0.0240
19236W        W36084   5.561  17.306   3.942 -0.2288 -0.4085  0.1871
19237W        W36085  12.375  15.617  13.207  0.1078  0.2444  0.1939
19238W        W36086  12.428  15.693  15.549  0.0470 -0.1003 -0.0679
19239W        W36087  14.618   2.172   0.636  0.1719  0.2429 -0.0603
19240W        W36088  10.253   3.252   3.963  0.0749  0.1883  0.3685
19241W        W36089   6.461   7.829   0.415  0.0778  0.0211  0.1091
19242W        W36090  14.501   8.298  12.849 -0.0554  0.0977  0.1591
19243W        W36091   8.296   5.721   1.956 -0.1251  0.0901  0.0101
19244W        W36092   6.079   7.268  12.540 -0.0325  0.0138  0.0004
19245W        W36093  14.209   3.360  13.568 -0.0967 -0.0851 -0.2276
19246W        W36094  11.190  10.899  13.895  0.3861 -0.1002 -0.4213
19247W        W36095  13.077  17.024  15.799 -0.0492  0.2900  0.1463
19248W        W36096   3.105   5.825  15.467  0.0043 -0.0441  0.0502
19249W        W36097   4.991   1.309   3.501  0.2521  0.0875  0.1423
19250W        W36098   5.680  17.449   2.453 -0.0333 -0.2059 -0.0243
19251W        W36099   2.573   1.528  14.919 -0.2859 -0.1236  0.1603
19252W        W36100   6.438   7.779  12.615  0.1255 -0.0350 -0.0731
19253W        W36101   6.796   0.708  14.234 -0.0017 -0.0550  0.0921
19254W        W36102  12.481  12.232  14.990  0.1042 -0.1570 -0.1383
19255W        W36103   2.226  15.647   1.123  0.1129 -0.3498  0.1986
19256W        W36104  11.675  17.837  16.102  0.0790 -0.0518 -0.0835
19257W        W36105  17.619  16.253  11.130  0.2473 -0.1450 -0.1099
19258W        W36106   1.258  14.547   4.479  0.0051 -0.1621  0.1794
19259W        W36107   4.984  15.545   5.822 -0.0128 -0.2313 -0.2389
19260W        W36108   2.957   9.715   1.418  0.0260  0.2982  0.2594
19261W        W36109   4.405   6.773  14.606  0.0747 -0.0603  0.1207
19262W        W36110   6.911   8.654  14.268  0.2698 -0.0368  0.0255
19263W        W36111   7.069   5.042  16.049 -0.0121 -0.1735  0.0602
19264W        W36112   3.527   9.677   1.489 -0.3689  0.4412 -0.0853
19265W        W36113   1.131  16.426  11.335  0.1054 -0.1160  0.0462
19266W        W36114  13.014   2.846  12.812 -0.3119 -0.0865  0.4079
19267W        W36115   1.920   1.691   4.793  0.3936 -0.6544  0.1908
19268W        W36116  13.662   6.753  13.264 -0.1908 -0.4416 -0.0181
19269W        W36117  12.950   8.400  12.887 -0.1464 -0.3154 -0.0671
19270W        W36118   0.165   7.647  12.014  0.3668 -0.1545 -0.0033
19271W        W36119  15.360   9.689  15.426 -0.1120 -0.0242  0.0670
19272W        W36120   6.448   4.079   2.113  0.0164 -0.3224 -0.3850
19273W        W36121   2.090   9.236  11.869 -0.1924 -0.0333 -0.1407
19274W        W36122   5.468  17.241  13.345 -0.1043  0.0997 -0.2751
19275W        W36123   5.957   0.411  14.021  0.2708 -0.1161  0.2061
19276W        W36124  17.547   5.598  15.208 -0.0629  0.0009  0.2330
19277W        W36125  14.753  15.128   2.672  0.3112 -0.1542 -0.2548
19278W        W36126   6.414  17.238  16.322  0.0865  0.0479 -0.3882
19279W        W36127   3.655  10.836  13.072 -0.0786 -0.0048 -0.0172
19280W        W36128  11.585   1.793   0.195 -0.0952  0.1145  0.2517
19281W        W36129   2.191   7.745   3.864 -0.1252 -0.0684  0.2408
19282W        W36130   0.555   5.487   3.693 -0.3271 -0.0352  0.0296
19283W        W36131  13.225  13.667  11.489 -0.3000 -0.0720 -0.1543
19284W        W36132   5.711   0.904   2.204 -0.4572 -0.0007 -0.0895
19285W        W36133  16.293  13.318   3.692 -0.0406  0.0523  0.1894
19286W        W36134   4.864  17.765  11.240 -0.0969 -0.2051 -0.0351
19287W        W36135  10.082   0.774  11.917  0.1455 -0.0158 -0.0037
19288W        W36136   0.937  12.374   5.154  0.3540  0.0716 -0.1817
19289W        W36137  13.082   0.216  13.027  0.2881  0.1032 -0.1148
19290W        W36138  14.973  10.024  11.876 -0.0481  0.0073  0.1475
19291W        W36139   4.524  11.216   4.790 -0.1124  0.1865  0.1442
19292W        W36140  12.701   6.777  13.470  0.1193  0.1011 -0.1350
19293W        W36141  13.411  12.365  12.817 -0.1760 -0.0749 -0.1230
19294W        W36142   7.100   3.680   3.898  0.0439 -0.1744  0.3592
19295W        W36143   2.585   6.261  11.909  0.1905  0.0221  0.3082
19296W        W36144  14.451  13.473  15.541 -0.0303  0.1455  0.1004
19297W        W36145   7.055   7.189  13.389  0.3374  0.0225 -0.1227
19298W        W36146  11.807  17.547  11.292 -0.0157 -0.0509  0.1671
19299W        W36147  15.205   1.029  12.588 -0.1174 -0.0678  0.4655
19300W        W36148  11.591   1.735  12.057  0.0576 -0.0520 -0.2550
19301W        W36149   0.179  11.693  15.269  0.1730 -0.0939 -0.0681
19302W        W36150  12.816   8.550  13.916 -0.3238  0.0926 -0.0465
19303W        W36151   7.936  14.690   0.783 -0.2287  0.1955  0.1531
19304W        W36152   1.446   8.499   3.813 -0.2614 -0.1627  0.0011
19305W        W36153  11.706  10.506   0.237  0.0481  0.1656 -0.0176
19306W        W36154   3.650   6.388  12.744  0.1488 -0.0681 -0.0238
19307W        W36155   4.185   9.182  14.565 -0.1082 -0.0494  0.0154
19308W        W36156   8.801   5.532  12.097  0.0062  0.1034 -0.2255
19309W        W36157  12.483  11.137   1.328 -0.1528  0.0284 -0.4303
19310W        W36158  11.766  13.171  13.987  0.2287 -0.0001 -0.0317
19311W        W36159   4.112   7.858   4.389 -0.0019  0.0170  0.0536
19312W        W36160   5.759   0.097   2.556  0.1554  0.3161  0.1517
19313W        W36161   2.164   5.421   3.129  0.0915 -0.0106  0.0332
19314W        W36162   3.805  13.322  15.945  0.0460 -0.0765  0.0629
19315W        W36163  14.116   4.232  13.154  0.0044 -0.1928 -0.0821
19316W        W36164  17.158  14.468  11.944  0.0010  0.0506  0.0610
19317W        W36165   6.389  13.149  14.062 -0.0538 -0.1834 -0.0168
19318W        W36166  16.588  11.177   2.890  0.0869  0.0403  0.0132
19319W        W36167  12.380  10.210  14.054 -0.0920  0.1200 -0.2111
19320W        W36168   2.844  11.534  13.680  0.0055 -0.0924  0.0389
19321W        W36169   5.904   1.073   5.002  0.2240 -0.1780  0.0260
19322W        W36170  12.611   5.463  14.764 -0.0750  0.0006  0.3800
19323W        W36171  13.797   7.504   2.848 -0.0708 -0.0103  0.1538
19324W        W36172  10.624  17.797  15.509  0.2539  0.1844  0.1975
19325W        W36173   7.050  10.203  12.393 -0.3213 -0.1143 -0.0544
19326W        W36174   7.989   1.042   1.258 -0.1505  0.0059  0.0814
19327W        W36175  10.694   6.164   0.619  0.0994 -0.1734  0.2591
19328W        W36176   5.252  16.406   3.051  0.3878 -0.0667  0.1014
19329W        W36177   7.246  14.436  10.529 -0.2107 -0.3745 -0.1723
19330W        W36178  16.392  14.621  11.453 -0.0206  0.0532  0.2521
19331W        W36179   9.702  11.207  15.860  0.1004 -0.0725 -0.0551
19332W        W36180  17.095   5.118  11.767  0.2265  0.1783  0.2200
19333W        W36181  10.354  15.071   2.146 -0.2222 -0.1292  0.1920
19334W        W36182   6.059   0.886  16.364 -0.3006 -0.0015 -0.0776
19335W        W36183   3.878  17.809  12.094  0.0915 -0.0888 -0.0861
19336W        W36184   6.110   6.336   2.609 -0.0399  0.0432  0.2064
19337W        W36185   1.271   3.229  15.790  0.1242 -0.0046  0.1812
19338W        W36186  10.754  15.232  14.920  0.1792  0.3282  0.1813
19339W        W36187   5.776  17.323   5.042  0.2298  0.2867 -0.0787
19340W        W36188   4.469  11.117   1.048 -0.1615 -0.4600 -0.2354
19341W        W36189  10.646   4.146  12.211 -0.0049  0.2732 -0.0844
19342W        W36190   1.551  17.085  10.223 -0.3022 -0.1559  0.2221
19343W        W36191  15.854   4.314  12.129 -0.2192  0.0964 -0.0294
19344W        W36192  10.850   0.648  12.396  0.4355 -0.0692  0.0858
19345W        W36193   5.865   1.576   4.565 -0.1727  0.0896  0.2719
19346W        W36194   0.049  15.275   2.618  0.1784  0.3070  0.3990
19347W        W36195  15.197   8.691  15.670 -0.2823  0.2141  0.1060
19348W        W36196  11.166  12.803  16.294 -0.0081  0.2113 -0.1731
19349W        W36197   6.151   8.323   2.299  0.2565  0.0488 -0.0810
19350W        W36198   1.687  11.732   5.409 -0.1480  0.2110 -0.0614
19351W        W36199  10.718   5.590  15.569  0.0135  0.0299  0.5181
19352W        W36200   0.230   9.355  11.303  0.1205 -0.3530  0.1043
19353W        W36201   9.640   4.859   5.252 -0.3576  0.1714  0.1198
19354W        W36202  11.955   5.110   0.981  0.3146 -0.1637 -0.2412
19355W        W36203  11.505  17.120   0.143  0.0219 -0.1291 -0.0712
19356W        W36204   1.979  13.881   3.020 -0.0795  0.2503 -0.1310
19357W        W36205  14.820   8.691  10.721 -0.0037  0.1527  0.3147
19358W        W36206  16.514   5.733   0.605  0.2150 -0.1343  0.0455
19359W        W36207  12.412   4.099  14.663 -0.0922  0.1048  0.0489
19360W        W36208   8.225   8.905  11.157  0.2477 -0.1680 -0.0022
19361W        W36209  15.960  15.876   0.322  0.1358  0.0852 -0.0806
19362W        W36210  10.286   8.073  15.219 -0.2164  0.0755  0.3797
19363W        W36211   6.374  16.521   0.225 -0.2640 -0.2072 -0.0831
19364W        W36212   1.282   8.504   1.550  0.0059  0.1119 -0.5882
19365W        W36213  10.484   0.628   1.327  0.0470  0.1531  0.1914
19366W        W36214   4.425  12.518  15.679  0.1395  0.0305 -0.4082
19367W        W36215   9.135   4.017  10.927 -0.1482  0.2671 -0.0773
19368W        W36216   5.582  11.307  15.078 -0.1548 -0.3976 -0.1778
19369W        W36217   7.109   3.933  12.977 -0.1450 -0.2242  0.0650
19370W        W36218  13.041  13.709  10.518  0.1071 -0.2019  0.2471
19371W        W36219  12.780  12.695  13.175 -0.0182  0.0189  0.4502
19372W        W36220  13.372  17.517   3.060  0.0040  0.1953 -0.2331
19373W        W36221   1.688   3.942   5.746  0.3310 -0.3670 -0.3092
19374W        W36222   1.100  10.306   0.706  0.0402  0.1132  0.2284
19375W        W36223   1.667   9.112   0.917  0.2479 -0.0644  0.0416
19376W        W36224  14.184   8.537   2.251  0.2445 -0.5172  0.0303
19377W        W36225  12.554   5.161  16.291  0.2238 -0.0067 -0.2182
19378W        W36226   5.919  13.930   3.504  0.0970 -0.0950  0.0196
19379W        W36227  12.213  13.967   5.474 -0.0367 -0.2769  0.1258
19380W        W36228  14.517   0.391  12.020 -0.1024 -0.0274  0.1570
19381W        W36229  13.890   7.616  15.379 -0.3714  0.0035  0.2053
19382W        W36230   6.862   0.111   4.868  0.2689 -0.1111  0.2990
19383W        W36231   4.049  17.566  14.934 -0.3347  0.0954  0.1221
19384W        W36232  12.452   6.624  11.677 -0.1646 -0.1939  0.2018
19385W        W36233  12.176   4.994   4.206  0.1587 -0.1480  0.1469
19386W        W36234  15.500  15.290   1.842 -0.1195 -0.1590  0.0112
19387W        W36235   1.418  10.309  11.346 -0.0277  0.0251  0.0989
19388W        W36236   3.101   5.403   1.034  0.2059  0.0501  0.0393
19389W        W36237  12.852   3.206  13.729 -0.2564 -0.2133 -0.0290
19390W        W36238  16.712   1.675   2.985  0.0069  0.0697  0.1631
19391W        W36239  15.719   2.623  13.605 -0.4136  0.0538 -0.0373
19392W        W36240  16.015   0.284   1.644  0.0839  0.0308 -0.0754
19393W        W36241  11.132   0.175   4.292 -0.1122  0.2679  0.1213
19394W        W36242   0.315   3.698   3.147 -0.4066 -0.0891 -0.0834
19395W        W36243  16.164  11.938  15.284  0.0027 -0.1007 -0.0171
19396W        W36244  10.529  17.000   0.332 -0.0708 -0.0214  0.1125
19397W        W36245   3.336   2.833   2.903  0.1314 -0.1080 -0.2314
19398W        W36246  11.775   3.834   0.211 -0.1620 -0.4316 -0.1814
19399W        W36247   4.664  14.982   3.023  0.3746 -0.2833 -0.2099
19400W        W36248  15.472   0.948   1.924  0.0917  0.0008 -0.0874
19401W        W36249  11.692  14.050  13.324  0.3139 -0.0200 -0.1697
19402W        W36250   7.888  15.481   1.822  0.1829  0.0026  0.2178
19403W        W36251   8.374   1.265   4.068 -0.2467 -0.2942 -0.1131
19404W        W36252   9.626  14.967   1.449 -0.1440 -0.1167 -0.0259
19405W        W36253   3.349   3.514   3.297  0.0310 -0.1136  0.2953
19406W        W36254   0.026  13.552  13.460 -0.0184 -0.2048 -0.3418
19407W        W36255   0.870   8.437   4.442  0.0199 -0.0248  0.1526
19408W        W36256  12.792  14.974   2.876 -0.1245 -0.1731  0.1401
19409W        W36257  12.670  11.491   2.058 -0.1640  0.1132  0.0393
19410W        W36258   6.028   7.299  11.786  0.0988  0.0705 -0.2071
19411W        W36259  15.621  11.994  14.455 -0.2304  0.0931 -0.0097
19412W        W36260  15.855   1.953  14.895 -0.2537  0.0818  0.1989
19413W        W36261   5.057   1.388  16.418 -0.1876  0.1411 -0.0851
19414W        W36262  12.633   8.363   2.179 -0.1972  0.1058  0.1126
19415W        W36263  14.638   7.438  16.392  0.0988  0.2813  0.0147
19416W        W36264  10.236   4.134   4.367  0.1692 -0.1569 -0.1534
19417W        W36265   1.538  14.040   4.892 -0.0926  0.0253 -0.1184
19418W        W36266  15.528  15.621  16.382 -0.2662  0.3249 -0.2241
19419W        W36267  14.247   4.904   1.981 -0.3294  0.0156  0.2104
19420W        W36268   7.769   0.152  12.219  0.3009 -0.1945 -0.1084
19421W        W36269   8.305   2.818   4.117 -0.0948  0.1625  0.1896
19422W        W36270   0.894  10.241  14.941 -0.1787 -0.1757  0.0168
19423W        W36271   9.467   0.922  13.517  0.0475  0.1633 -0.1348
19424W        W36272   2.195   2.755   0.419  0.2746  0.2194  0.0631
19425W        W36273   3.074   7.026   5.015 -0.2282  0.0514  0.1779
19426W        W36274   6.910   1.610  12.902  0.1960 -0.0288 -0.1194
19427W        W36275   9.966   4.117  13.734 -0.2014 -0.0291  0.1218
19428W        W36276   2.252   6.465  15.473 -0.0351 -0.1027 -0.2307
19429W        W36277   0.622   9.628   2.531  0.2305  0.1008 -0.1959
19430W        W36278   0.885  11.640   1.831  0.1999 -0.1567  0.0770
19431W        W36279   0.565   0.351  13.279  0.0274  0.2245 -0.1614
19432W        W36280   1.652   8.925  15.610 -0.0701  0.0528 -0.5416
19433W        W36281   8.410   2.767   1.585 -0.0147  0.0613 -0.4181
19434W        W36282  13.830  14.491   5.201 -0.1640 -0.1001  0.0844
19435W        W36283   6.320  16.932  11.938  0.1599 -0.4441  0.0484
19436W        W36284  13.580  14.028   4.045  0.1171  0.0059  0.2440
19437W        W36285  12.744  16.317  14.847  0.1308 -0.1083 -0.2488
19438W        W36286  11.096   9.376  11.350 -0.1653  0.2745 -0.1526
19439W        W36287  11.696  11.283  11.725  0.1985 -0.1453  0.3589
19440W        W36288   8.143  15.693  13.140  0.0244  0.0661 -0.1610
19441W        W36289   5.902   2.743   1.781  0.0583  0.0635 -0.2119
19442W        W36290   4.636  12.141   0.186  0.2421 -0.1389 -0.0329
19443W        W36291   5.595   4.983  11.738 -0.1290  0.0070 -0.2621
19444W        W36292  11.300   1.475   3.834  0.1019  0.2827 -0.0870
19445W        W36293   8.257  15.505  15.454 -0.2421 -0.1142  0.0866
19446W        W36294   6.500  15.698   1.181  0.1553 -0.0976  0.1190
19447W        W36295  15.260  12.143   0.714  0.0852 -0.2734  0.2852
19448W        W36296  13.792   7.819  14.868 -0.1081  0.0771  0.1611
19449W        W36297  12.352  13.331  11.760  0.0208 -0.0832 -0.1118
19450W        W36298   9.758  17.738  15.197  0.2599 -0.1445 -0.0492
19451W        W36299   7.111   5.625  13.350  0.1613 -0.1466  0.0117
19452W        W36300   5.567   7.045  14.912 -0.2360  0.2977  0.0116
19453W        W36301  12.214   5.439  14.052 -0.2581 -0.0380  0.3484
19454W        W36302   5.944  10.014   5.543 -0.0466 -0.0662 -0.3903
19455W        W36303   1.186   5.993   4.146  0.0208  0.2144 -0.1178
19456W        W36304   7.907  10.605   3.786  0.1278 -0.0726 -0.0896
19457W        W36305  15.614   5.632  12.350  0.2436  0.0269  0.1910
19458W        W36306   1.144   8.264   2.689  0.1149  0.1994 -0.2206
19459W        W36307  15.287   4.343   2.071 -0.0698  0.1263  0.0010
19460W        W36308   3.317   6.427   0.710 -0.2566  0.0857  0.1652
19461W        W36309   1.741  12.317  13.429 -0.1274 -0.0412  0.3220
19462W        W36310  17.318  15.492   4.779  0.0081 -0.1665 -0.0301
19463W        W36311   9.755  11.391  12.781  0.0485  0.0615 -0.0098
19464W        W36312  17.622  15.011   3.081 -0.2172  0.0054  0.1220
19465W        W36313   1.516  16.255   0.543  0.5144 -0.1791  0.0529
19466W        W36314   1.490   4.262  15.372 -0.0711  0.1892 -0.1452
19467W        W36315   6.648   4.900  13.938  0.1900 -0.3011  0.1457
19468W        W36316  11.290   1.103   2.873  0.2641  0.2109  0.0095
19469W        W36317  10.188   3.700  12.405 -0.2100  0.0650  0.3006
19470W        W36318  12.482  11.734  14.137 -0.0437 -0.1388 -0.3486
19471W        W36319  14.708  15.252   5.006 -0.0162 -0.2720 -0.1428
19472W        W36320  11.363   5.463   0.389  0.2763  0.1420  0.3895
19473W        W36321  14.245   7.091  14.525  0.0874  0.1554  0.1187
19474W        W36322  17.145  10.212  13.144  0.1313  0.0466  0.0979
19475W        W36323  10.706  15.174  13.007  0.0097  0.0851  0.0678
19476W        W36324   6.842  13.744   5.019  0.0691 -0.2212  0.0314
19477W        W36325   9.650   2.004  12.000  0.3372 -0.5585  0.0250
19478W        W36326  11.445   9.617  13.028  0.0306 -0.1253  0.0846
19479W        W36327  16.958   8.018   4.657 -0.0320  0.1448 -0.3797
19480W        W36328  15.536  16.123   0.106 -0.0766  0.2120  0.0832
19481W        W36329   3.101   6.326  15.013  0.0121 -0.5049 -0.1016
19482W        W36330   6.002   6.702   3.554 -0.0575 -0.0309  0.1836
19483W        W36331   3.451   9.577   5.084  0.3144 -0.3051 -0.3595
19484W        W36332  15.234   4.005   0.433 -0.2093 -0.2545 -0.2591
19485W        W36333   9.229  15.858   4.558 -0.1338 -0.0298 -0.0032
19486W        W36334  15.347  12.519  14.662  0.3530  0.2250 -0.0517
19487W        W36335   7.029  13.932  14.059  0.2268 -0.0802 -0.1982
19488W        W36336   0.604   8.471  12.768 -0.1980 -0.0986  0.0876
19489W        W36337   0.240  15.088   4.738 -0.1732  0.0540 -0.2442
19490W        W36338  17.069   2.941   3.006  0.1575  0.0233  0.2351
19491W        W36339   6.933   5.028  12.878  0.1055 -0.2634 -0.0773
19492W        W36340   4.358   2.694  13.906  0.3529 -0.0187 -0.1773
19493W        W36341   6.780   8.236   3.737 -0.0084 -0.0513 -0.0649
19494W        W36342  15.710  17.858  11.920 -0.2976  0.0467  0.1715
19495W        W36343   9.994   9.605  14.608 -0.2621 -0.0253  0.0257
19496W        W36344  15.780   0.627   0.760  0.1874 -0.0214 -0.1616
19497W        W36345  15.852   9.049  13.611 -0.0336 -0.1041 -0.1103
19498W        W36346   3.935   4.795   2.635 -0.0455 -0.0088 -0.1309
19499W        W36347   7.678  17.013  15.504 -0.0035 -0.2553 -0.0823
19500W        W36348   3.643  15.160  12.719  0.0205 -0.0357 -0.1646
19501W        W36349   4.582   9.027   2.262  0.2442  0.0379 -0.0954
19502W        W36350   8.420   4.547  11.721 -0.0508 -0.1912 -0.1547
19503W        W36351  14.446   2.953   3.060 -0.2705  0.1849 -0.2379
19504W        W36352   9.770   4.456   1.061  0.0629 -0.1318 -0.2728
19505W        W36353   9.347   9.474  12.147 -0.1268  0.0295  0.2084
19506W        W36354  12.603  11.027   4.105 -0.3602 -0.1435  0.1152
19507W        W36355  14.497   8.463   4.331 -0.1192 -0.3703 -0.0403
19508W        W36356   5.679  12.970  15.586  0.5725 -0.0855 -0.0681
19509W        W36357   1.612  17.188  14.800  0.0822  0.1768  0.0584
19510W        W36358   6.756  16.180   0.372 -0.3200 -0.2419  0.0777
19511W        W36359  15.411  11.557   1.890 -0.4546 -0.1898 -0.1385
19512W        W36360  17.240   0.636  14.385 -0.0280  0.2587 -0.1594
19513W        W36361   8.739   4.231  12.611 -0.0528  0.4293 -0.0498
19514W        W36362  17.278  17.103  13.621 -0.1429  0.0935 -0.0888
19515W        W36363  11.425  16.218   4.553 -0.0609  0.0686 -0.1789
19516W        W36364   1.391   7.966   1.603 -0.1873  0.0711 -0.0588
19517W        W36365   8.238  14.272   3.917  0.0311 -0.3510 -0.1324
19518W        W36366   9.838   7.823   2.622  0.1000 -0.2521 -0.0554
19519W        W36367   5.705  16.753  16.116  0.0064  0.2780 -0.1777
19520W        W36368   9.685   4.249   4.386 -0.4583  0.0799 -0.1159
19521W        W36369  10.620  10.647   2.026 -0.3142 -0.1892 -0.1386
19522W        W36370  15.164   2.312  16.116 -0.0811  0.0240  0.0070
19523W        W36371   5.946   5.118   1.597  0.2610  0.0337 -0.2269
19524W        W36372  11.036  13.935   1.199 -0.1125 -0.2300 -0.0815
19525W        W36373  12.894   1.231   3.060  0.1131 -0.0519  0.2876
19526W        W36374   5.880   9.067   2.834  0.0961 -0.1299 -0.0215
19527W        W36375  10.456   5.690   0.672 -0.0728 -0.0111  0.0061
19528W        W36376   3.236   4.086   4.479  0.0991 -0.3181 -0.2239
19529W        W36377  16.042   4.633   0.284 -0.0730  0.0821  0.3217
19530W        W36378  12.019   1.110   0.451 -0.1570 -0.1162  0.0678
19531W        W36379  10.694  11.203   4.373 -0.0056 -0.2959  0.2598
19532W        W36380   5.334  12.212  15.023 -0.2040 -0.4283 -0.0243
19533W        W36381   7.381   6.718  14.754  0.2104  0.3218 -0.2291
19534W        W36382   1.220  14.451   1.667  0.0110  0.0755 -0.1287
19535W        W36383  11.241   0.094  16.303  0.0639 -0.2376  0.1023
19536W        W36384   6.993   3.415  12.997 -0.2368  0.0567 -0.4408
19537W        W36385   7.728   0.752   4.772 -0.0590 -0.1341  0.4809
19538W        W36386  14.822  12.327  16.470  0.1931  0.2787  0.0697
19539W        W36387   8.842   9.830   6.412 -0.1435  0.1317 -0.3757
19540W        W36388   2.119  11.427  10.698 -0.0842 -0.0138 -0.0162
19541W        W36389  15.956   6.635  16.316  0.2482 -0.1484 -0.0361
19542W        W36390  13.504   6.832  11.371 -0.2045  0.3799 -0.1580
19543W        W36391   4.710  14.869  14.318  0.0996  0.0214  0.1084
19544W        W36392   2.223   8.698   5.206  0.3035 -0.0353 -0.2116
19545W        W36393  16.285  17.768   1.543 -0.0626 -0.0226  0.0558
19546W        W36394   2.347   6.637   4.891  0.0470  0.2069 -0.2457
19547W        W36395  17.708   9.848   4.325  0.4024 -0.0532 -0.1445
19548W        W36396  14.224   9.345  12.942  0.0647  0.4479  0.0333
19549W        W36397  11.043  15.733   3.309 -0.1788  0.1182 -0.1400
19550W        W36398  10.400  11.670   0.395  0.2265  0.0822  0.1871
19551W        W36399  11.572   1.196  12.227  0.0042  0.3428  0.0392
19552W        W36400  12.771  12.048   4.119  0.0572  0.4040 -0.2610
19553W        W36401   7.135   5.001  13.992  0.1221  0.2594 -0.0240
19554W        W36402   5.199   6.600  14.988 -0.0797 -0.0169  0.3363
19555W        W36403   7.497  11.111   2.354  0.0392  0.0169  0.0436
19556W        W36404  14.478   6.560  12.792  0.1421  0.3035  0.1996
19557W        W36405  13.494   5.476  14.988 -0.2893 -0.2510  0.2186
19558W        W36406   0.800   0.577   2.492  0.1397 -0.0882 -0.0530
19559W        W36407   4.251  12.860   5.512 -0.0739 -0.2617  0.1954
19560W        W36408   4.257   8.118  11.961  0.3907  0.1555 -0.2654
19561W        W36409  10.155   6.184  12.686  0.2161 -0.1655  0.3129
19562W        W36410   2.355   5.883   2.403  0.1873 -0.0993  0.2356
19563W        W36411   7.928   6.406  15.589 -0.1885 -0.2850  0.1190
19564W        W36412  12.662  15.775  11.166  0.1833 -0.3449  0.0958
19565W        W36413   4.641  11.757   1.020 -0.4219  0.1961 -0.1735
19566W        W36414  16.082   2.394  15.082 -0.0885  0.1653  0.1530
19567W        W36415   3.144   2.193   3.826  0.1249  0.0350 -0.0052
19568W        W36416  13.259  11.132  11.556  0.0586 -0.1569  0.1314
19569W        W36417  12.614   7.565   4.148  0.0255 -0.1000 -0.0422
19570W        W36418   8.904  16.241  15.632 -0.0303  0.2681 -0.3073
19571W        W36419   6.859   8.590  16.215 -0.1060 -0.1480  0.0647
19572W        W36420   2.413  15.784  14.398  0.1827 -0.2301  0.2682
19573W        W36421  13.128   1.193   4.649  0.0304  0.2091 -0.1161
19574W        W36422   0.013  15.386   4.057 -0.2091  0.1822 -0.1103
19575W        W36423   4.863   1.517  13.659  0.2687 -0.0603  0.1449
19576W        W36424  12.504  10.354  14.576  0.2023 -0.0934 -0.0576
19577W        W36425   4.432  11.592  14.278 -0.3965  0.1330  0.1596
19578W        W36426  11.271   6.567  10.152 -0.1608  0.0363  0.0553
19579W        W36427   8.185  16.380  13.738  0.4242  0.1089  0.0799
19580W        W36428   1.029   1.546  14.680  0.1217 -0.0943  0.1776
19581W        W36429   1.280  17.036  15.781 -0.1683  0.0744 -0.0260
19582W        W36430   9.820  15.741   4.657  0.0381 -0.0539  0.0938
19583W        W36431   3.956  16.938   3.373 -0.0299 -0.0176  0.0304
19584W        W36432  12.641   2.130   5.724  0.1279 -0.3568 -0.0753
19585W        W36433   0.915   5.391  15.036 -0.2034  0.3637 -0.0187
19586W        W36434  14.896   7.394  10.916  0.1938  0.0080 -0.2756
19587W        W36435  13.055  14.851   0.801 -0.0711 -0.2327  0.2128
19588W        W36436  15.691   6.721  12.336  0.3610  0.2807  0.0848
19589W        W36437   6.111   2.838   0.377  0.1845  0.2350  0.0615
19590W        W36438   9.003   1.856   4.603  0.1423  0.0033 -0.0677
19591W        W36439   6.042   6.349   3.149  0.0391  0.0040 -0.1001
19592W        W36440   4.132  11.657  13.339 -0.0061 -0.2810  0.0042
19593W        W36441  13.871   8.443  15.917  0.2968  0.0699  0.0809
19594W        W36442   6.936   1.912  12.422 -0.3604 -0.0201 -0.2111
19595W        W36443   9.702  15.862   1.242  0.0265  0.1148 -0.1167
19596W        W36444   8.550   7.177  14.170  0.1986  0.2022  0.2961
19597W        W36445   5.625   4.604  13.964  0.0532 -0.0512 -0.2920
19598W        W36446  16.139  17.854  11.066 -0.1031  0.2296 -0.0956
19599W        W36447   0.588  12.333  11.583 -0.2509  0.0994 -0.0394
19600W        W36448  11.032   8.165  15.357  0.1957 -0.0064 -0.2907
19601W        W36449   9.736   7.811   1.259  0.1966  0.1798  0.3037
19602W        W36450  17.047   5.682  15.143 -0.1346  0.0690  0.2034
19603W        W36451  14.347   5.480   2.751 -0.1497  0.1343 -0.1810
19604W        W36452  14.237  13.336   1.632  0.0422  0.0384  0.0079
19605W        W36453  14.238   5.040  11.399 -0.2413 -0.2639 -0.2407
19606W        W36454  17.434  10.911  11.606  0.1030 -0.1256 -0.0271
19607W        W36455   5.801   1.341   4.071 -0.0573 -0.2173  0.1519
19608W        W36456   6.052   8.474   3.025 -0.2466  0.1095 -0.1999
19609W        W36457  14.076  14.689  13.577 -0.3840 -0.2900  0.0281
19610W        W36458   1.392   4.233   2.844  0.0023 -0.0443 -0.1810
19611W        W36459   7.595   5.758  11.972 -0.1476  0.3825 -0.0407
19612W        W36460  17.211  16.389   3.352 -0.2274 -0.0604 -0.0420
19613W        W36461   7.803  13.568  14.938  0.1079  0.0630 -0.0874
19614W        W36462   8.940   3.566  15.850  0.2540 -0.0845 -0.0999
19615W        W36463  13.872   1.471   1.449  0.2894 -0.1216 -0.2662
19616W        W36464   8.954   2.446  11.611  0.1251 -0.0923 -0.2980
19617W        W36465  10.905  12.081  14.056  0.1619  0.0426 -0.2239
19618W        W36466   5.434   0.462   3.697 -0.1853 -0.0799  0.0729
19619W        W36467   4.171   5.760  15.473 -0.0162  0.2366  0.1487
19620W        W36468  13.888   5.010   3.102  0.0211  0.2134 -0.1011
19621W        W36469  16.567  10.513  12.586 -0.0069  0.1279  0.1711
19622W        W36470  11.574  16.225   0.205 -0.0449 -0.2062 -0.3168
19623W        W36471   3.164   4.731   2.546  0.0498 -0.2609 -0.0021
19624W        W36472  16.902   1.260  12.928  0.2841 -0.0411 -0.0535
19625W        W36473   2.974   8.419   0.281 -0.0567 -0.3178  0.0826
19626W        W36474   2.175  16.310  14.926  0.0687  0.2535  0.0098
19627W        W36475  11.772  17.493   1.018  0.1926 -0.6426 -0.0855
19628W        W36476   3.674   7.400   4.875  0.0457 -0.1784  0.1028
19629W        W36477  15.849  12.957  13.986 -0.3019 -0.0311  0.0082
19630W        W36478  16.302  10.199   5.271 -0.1246 -0.3719 -0.0025
19631W        W36479  10.156   4.553   5.087  0.1718 -0.0289 -0.0023
19632W        W36480  10.235   9.559  10.611 -0.3194  0.5248 -0.0526
19633W        W36481   3.728   7.514  13.892  0.2448 -0.0512 -0.1502
19634W        W36482  17.829   6.014  15.279 -0.3036  0.1213  0.1720
19635W        W36483   4.594  14.417  11.787 -0.1396  0.2569  0.3307
19636W        W36484   8.420  10.764  16.092  0.2799 -0.1176 -0.0046
19637W        W36485   1.866  16.059  15.218  0.0578 -0.0188 -0.1495
19638W        W36486   8.596   7.494   4.657  0.2547  0.0022 -0.1170
19639W        W36487   0.492   2.149   5.084 -0.0648 -0.1547 -0.5433
19640W        W36488  11.019  17.120   4.570  0.0041 -0.3663  0.0348
19641W        W36489   6.137  15.171  11.403 -0.1270 -0.1166  0.2759
19642W        W36490   2.776   2.347   4.758 -0.1827  0.1242  0.0340
19643W        W36491  16.813  11.934  11.591 -0.0470  0.1377 -0.1424
19644W        W36492  17.340   4.347   5.226  0.0290  0.2950 -0.2766
19645W        W36493  14.892   1.881  16.059  0.2638 -0.1146  0.0073
19646W        W36494  15.556   3.698   0.939 -0.3439 -0.1014 -0.0697
19647W        W36495  10.484   5.201  13.320  0.1548 -0.1479 -0.0034
19648W        W36496  11.344   6.427   3.797  0.2889 -0.0842  0.0443
19649W        W36497  15.735   0.758   3.651 -0.0291 -0.3370  0.0459
19650W        W36498  10.593  12.596   2.928  0.1059  0.2674 -0.0129
19651W        W36499  17.683   5.502   3.006 -0.0343  0.2883  0.4283
19652W        W36500   9.980  17.412  14.313 -0.1883  0.2680  0.2974
19653W        W36501  13.682  14.516  15.258 -0.0205 -0.2615 -0.1568
19654W        W36502   5.921   7.443   4.959 -0.1209 -0.2429 -0.0987
19655W        W36503   7.491  17.754   3.893 -0.0166 -0.3287 -0.0168
19656W        W36504   4.909   9.036  13.435  0.2720 -0.0638  0.2585
19657W        W36505  14.211  16.785  13.031  0.0839  0.0977 -0.3004
19658W        W36506  10.835   9.764   1.259  0.1859 -0.2249  0.1446
19659W        W36507   5.023   1.447  11.530 -0.0931  0.2595 -0.0773
19660W        W36508   4.489   4.260   3.141  0.0862 -0.2478  0.2065
19661W        W36509   6.734   3.384   4.730 -0.2273  0.1481 -0.0097
19662W        W36510   5.144   6.082   3.432  0.1897 -0.1909  0.1111
19663W        W36511   1.007   2.491  14.285 -0.0334 -0.0476 -0.0510
19664W        W36512   4.154   8.539   1.218  0.3033 -0.0242  0.1282
19665W        W36513   6.958  15.651   2.055  0.3535  0.2845  0.0183
19666W        W36514  17.831  12.990   3.869 -0.3503  0.1286 -0.0020
19667W        W36515  17.826   0.354   3.352  0.1587 -0.1977 -0.0944
19668W        W36516   9.034  11.181   4.305 -0.2907 -0.1316 -0.0587
19669W        W36517   8.133   3.668  12.176 -0.1463  0.2550  0.2665
19670W        W36518  12.839  13.844  16.401  0.1212  0.1291 -0.1951
19671W        W36519  12.474  12.305   2.507 -0.2673  0.3012  0.1314
19672W        W36520  16.797   5.929   5.333 -0.2249  0.1835 -0.2082
19673W        W36521  11.920  15.592  12.874  0.3895  0.1375  0.0237
19674W        W36522  11.023  15.660   0.092  0.1629  0.0777  0.0258
19675W        W36523  14.839   3.162   1.571  0.1693  0.1914 -0.1166
19676W        W36524   4.735   4.336  12.083 -0.0070 -0.1677 -0.1950
19677W        W36525   8.244  10.107   2.863 -0.0418  0.2420  0.0213
19678W        W36526   7.755  17.227   1.633  0.1037  0.0532  0.0945
19679W        W36527  15.217  13.329  16.150  0.1830 -0.1000  0.1277
19680W        W36528  10.618   5.945   3.788 -0.2092  0.3368 -0.0595
19681W        W36529  13.420   0.386  16.286  0.2608  0.4255 -0.4369
19682W        W36530  14.735  10.354   2.857  0.1101  0.1222  0.3484
19683W        W36531   6.050   3.758   2.973  0.1231  0.1494  0.1959
19684W        W36532  10.897   8.386   3.102 -0.0959  0.1236  0.0561
19685W        W36533  10.408  17.032  14.969 -0.0905 -0.1280 -0.1120
19686W        W36534  17.309  17.160   3.826  0.1097 -0.3616  0.1071
19687W        W36535  17.196   8.401   3.736 -0.4071 -0.0405  0.0509
19688W        W36536   7.424  16.408  16.245 -0.2610  0.2164 -0.5290
19689W        W36537   9.110  13.517  14.503 -0.1928  0.1673  0.1963
19690W        W36538   9.424   7.997  15.925 -0.0851  0.1070  0.0084
19691W        W36539  16.897  11.453  15.342  0.0692  0.1507  0.1207
19692W        W36540   9.878   5.073   4.818  0.0224 -0.1196 -0.3771
19693W        W36541   4.174   2.920   1.703  0.1126 -0.0536  0.0594
19694W        W36542  12.962   3.351  14.378 -0.2121  0.0002 -0.2165
19695W        W36543   4.322   2.325  13.612 -0.0751  0.2529 -0.1361
19696W        W36544   2.834  10.360  14.815  0.2261  0.0056  0.2644
19697W        W36545   0.255   2.559   5.140  0.0914 -0.0053 -0.3890
19698W        W36546  17.532  16.685  13.858  0.2579 -0.0645  0.0290
19699W        W36547  13.827  16.461  11.973 -0.1505 -0.0331  0.2603
19700W        W36548  13.658  10.549   1.998 -0.1817 -0.1574  0.0400
19701W        W36549   8.908   9.273  16.011  0.1292 -0.1355 -0.1654
19702W        W36550   3.993  10.987  14.489 -0.1498 -0.1520 -0.1463
19703W        W36551   3.902  15.834   2.786 -0.0044  0.5775 -0.0345
19704W        W36552   5.949  17.326  15.455 -0.1149 -0.0732 -0.0825
19705W        W36553  17.454   3.405   5.237  0.2415 -0.0866  0.0687
19706W        W36554   5.173  15.696   1.905 -0.2054  0.1630 -0.0491
19707W        W36555  13.197  12.666   2.361 -0.2436  0.2655  0.0555
19708W        W36556   2.312  15.015  15.519 -0.3257  0.2641 -0.0096
19709W        W36557  16.402   6.697  16.021  0.2199  0.0407 -0.1234
19710W        W36558  11.589  16.303  14.592  0.0094 -0.0182 -0.0167
19711W        W36559  17.511  14.910   2.568 -0.1782  0.0627  0.1355
19712W        W36560   4.222  14.722  14.468  0.1604  0.1481  0.1713
19713W        W36561  10.000  11.928  15.201  0.1202 -0.1856 -0.1953
19714W        W36562   4.051  13.822  15.823  0.0405 -0.0654 -0.4931
19715W        W36563   1.827   1.292   0.501 -0.0396  0.2771  0.0047
19716W        W36564   1.642  13.240   1.341 -0.3455  0.1505 -0.0898
19717W        W36565  13.067   3.345  16.401  0.2306  0.5950 -0.2695
19718W        W36566  12.631   1.135   4.884 -0.2168  0.2008 -0.1585
19719W        W36567   9.581   4.902   0.901  0.0066  0.3330 -0.1880
19720W        W36568  17.564  12.687  14.485 -0.0064 -0.2996 -0.1024
19721W        W36569   2.737   3.867  13.326  0.0805 -0.0604 -0.1589
19722W        W36570   2.870   4.981   4.298  0.0460  0.0796 -0.0585
19723W        W36571  13.635   2.120  15.321 -0.1408 -0.1179 -0.0114
19724W        W36572   9.519  14.252   4.670  0.3196 -0.1544  0.0164
19725W        W36573  14.076   9.858  16.014  0.2615 -0.0704  0.0910
19726W        W36574  10.095   2.807  13.488 -0.0478  0.1348  0.1717
19727W        W36575   4.311   4.029   5.394 -0.0402  0.2753 -0.0190
19728W        W36576   5.913   0.391  16.396  0.0209  0.2374  0.0484
19729W        W36577  10.372   3.315  15.344 -0.1580 -0.1127 -0.1596
19730W        W36578   8.331  12.576   0.935  0.1146 -0.2890  0.0051
19731W        W36579  16.285  11.093  14.506  0.2971 -0.2321 -0.0494
19732W        W36580   4.353   1.827   3.308  0.1553  0.0796  0.0987
19733W        W36581  12.420   0.984  11.580  0.2319 -0.4194  0.1006
19734W        W36582   5.075   4.119  12.940  0.0920 -0.0724 -0.2117
19735W        W36583   2.320   9.650   1.435 -0.1756 -0.2996 -0.1280
19736W        W36584   4.943   5.147   5.215  0.1142  0.0468  0.0384
19737W        W36585   7.643  12.430   5.074  0.0729 -0.1104  0.0269
19738W        W36586   7.988   2.397   0.583  0.0579  0.1302 -0.2702
19739W        W36587  16.531  10.850  12.064 -0.1025  0.0975 -0.1469
19740W        W36588  16.849  15.989  16.414  0.0172 -0.0243  0.0328
19741W        W36589  16.266   5.135  12.163  0.1456 -0.1547 -0.0843
19742W        W36590   2.283  15.759   1.590 -0.0135 -0.0170 -0.2175
19743W        W36591  11.208  10.577   4.278  0.1599  0.1219 -0.1350
19744W        W36592  17.430   1.840   2.034  0.1254 -0.0737  0.1497
19745W        W36593   8.079   2.333  10.836 -0.3367 -0.1881  0.0432
19746W        W36594   7.813   2.625   4.813 -0.1421  0.1030 -0.3621
19747W        W36595   8.138   4.012   2.913  0.0273 -0.0292  0.2979
19748W        W36596   1.597   6.684   3.198  0.0868 -0.0253 -0.3725
19749W        W36597   8.141  15.170  13.041  0.1447  0.1683 -0.0094
19750W        W36598  14.514  14.242   4.616  0.0208 -0.0248 -0.0463
19751W        W36599   8.492   2.490   0.877  0.2373  0.1887  0.1898
19752W        W36600   0.109  11.907   0.638 -0.0919 -0.1209 -0.0519
19753W        W36601  13.590   8.302   3.971  0.2983  0.0332  0.1690
19754W        W36602  15.433   2.235  14.713 -0.1621 -0.2614  0.0185
19755W        W36603   8.178   0.481  11.618 -0.0839  0.1042  0.1763
19756W        W36604  13.056  13.343   2.367 -0.0189  0.1330 -0.1992
19757W        W36605   8.707  16.034   4.875  0.1192  0.0122 -0.0825
19758W        W36606   6.862   9.988   4.720  0.1973  0.1064 -0.1690
19759W        W36607   0.907  12.205   3.085  0.2628 -0.1221  0.0091
19760W        W36608   0.810   2.857   1.505  0.0572 -0.1511 -0.2050
19761W        W36609  14.030  17.605   0.718  0.0099  0.1160 -0.1944
19762W        W36610   4.600  15.970  11.330  0.1965  0.2918  0.2133
19763W        W36611  13.324  12.945  10.413  0.0539  0.0738 -0.0095
19764W        W36612  10.666   3.413  16.334 -0.0759 -0.0543 -0.0973
19765W        W36613  12.925  11.107  14.536  0.1107 -0.1498 -0.1794
19766W        W36614  17.132  17.119   2.511 -0.1234  0.1326  0.0027
19767W        W36615  14.388   7.424  15.950 -0.1132 -0.0613  0.2398
19768W        W36616  11.000  10.468   3.853 -0.1078 -0.1036 -0.1044
19769W        W36617   6.393   5.030   1.876 -0.0040  0.0059  0.0729
19770W        W36618  10.501   8.628   5.157 -0.6122 -0.1245  0.1023
19771W        W36619   8.398  17.770   0.398  0.2112 -0.2160  0.1238
19772W        W36620  12.508  11.480  16.113  0.0888  0.0422  0.0066
19773W        W36621   0.160   2.404  10.902  0.2969 -0.0969 -0.1815
19774W        W36622   5.176   4.938  15.767 -0.5392 -0.2614  0.0362
19775W        W36623  17.037  15.389  11.032  0.0023 -0.0414  0.2100
19776W        W36624   7.215   7.504   2.000 -0.1459 -0.1213 -0.0384
19777W        W36625   6.503   8.067  12.979  0.0006 -0.0590 -0.1720
19778W        W36626  11.683  12.703   5.196 -0.0212  0.0028  0.1764
19779W        W36627  15.623  14.508  13.189  0.1075  0.0948  0.0864
19780W        W36628   9.821  10.984   1.742 -0.3037  0.0075 -0.1894
19781W        W36629   0.148  14.972   4.283  0.1591  0.2049 -0.1674
19782W        W36630   8.085   5.224  14.296  0.0556 -0.4273  0.0618
19783W        W36631   4.144   2.082  13.238  0.1465  0.4498  0.1907
19784W        W36632   8.689   8.146   0.991  0.3062  0.1819  0.1066
19785W        W36633  11.226  13.565  15.637  0.1763  0.0316 -0.2993
19786W        W36634   3.544   6.985   6.413 -0.0200  0.0230 -0.0767
19787W        W36635   2.687  12.638  16.297  0.4037  0.0970  0.0485
19788W        W36636   8.021   1.834   0.560 -0.0247 -0.0663 -0.0627
19789W        W36637  17.310  11.968  13.588 -0.0071  0.0538 -0.0948
19790W        W36638   4.039  13.665   1.969 -0.1976 -0.0186 -0.0577
19791W        W36639  11.816  11.391   3.573  0.0676 -0.0043  0.0327
19792W        W36640  16.516  15.610  15.274 -0.2137  0.0720  0.4814
19793W        W36641  12.330   5.463   1.066  0.1277 -0.0245 -0.2365
19794W        W36642  16.790  11.945  15.667 -0.1964  0.1503 -0.0851
19795W        W36643  17.514  13.729   1.860 -0.1256  0.3389  0.0521
19796W        W36644  11.286   4.220   0.775 -0.2914  0.1202 -0.2560
19797W        W36645  16.670   1.280  14.807  0.1259 -0.3403  0.0273
19798W        W36646  14.259   9.362  14.691  0.4258  0.3270 -0.1019
19799W        W36647   9.869   2.374  14.568  0.1421 -0.1291 -0.0090
19800W        W36648  10.115  14.128   1.390  0.0092  0.1742 -0.1054
19801W        W36649  15.195  14.886  15.244 -0.0120  0.3609  0.1617
19802W        W36650   0.243  11.925  16.195  0.1296 -0.1982 -0.0760
19803W        W36651   6.173   3.735  11.385 -0.1206 -0.1165  0.1376
19804W        W36652  10.712   3.845  15.127  0.0184  0.0053  0.0146
19805W        W36653   5.785   6.745  13.161  0.4435 -0.2091 -0.1010
19806W        W36654   2.825   8.800  11.403 -0.3474 -0.1090  0.0871
19807W        W36655   7.582   7.282  16.374  0.0726  0.0825  0.3107
19808W        W36656  17.621  14.382  13.825  0.0467 -0.1437  0.1909
19809W        W36657   8.158   5.134   0.028 -0.2211 -0.1343 -0.1335
19810W        W36658  13.078   1.716  15.590  0.1402  0.0413 -0.4547
19811W        W36659   3.615   6.355   1.630 -0.0681  0.0295  0.1737
19812W        W36660   0.003   3.679  13.413  0.1075  0.0857  0.0574
19813W        W36661   5.027  10.405  14.610 -0.1650  0.0682  0.1102
19814W        W36662  16.255   4.414  15.793  0.0435  0.0107  0.2208
19815W        W36663   9.547   3.449   2.382 -0.4128  0.1146 -0.3116
19816W        W36664  14.976  14.344  14.976  0.0436  0.1578  0.0239
19817W        W36665   5.635  10.805  14.949  0.2254 -0.1056  0.2046
19818W        W36666  15.569  14.248   1.707  0.1684  0.0126 -0.2671
19819W        W36667   0.979   5.300  12.306 -0.2898  0.0108  0.0303
19820W        W36668  11.262  11.985  13.629 -0.0789  0.1020 -0.1717
19821W        W36669  12.327  15.122  11.983 -0.1387  0.0223  0.3218
19822W        W36670  16.501   7.793  11.947  0.3163  0.0968 -0.1641
19823W        W36671  10.590  12.493  15.089 -0.0340 -0.1451  0.2758
19824W        W36672   8.926   6.262  13.471 -0.2182  0.4923  0.2162
19825W        W36673   0.901  12.628   1.692  0.1450 -0.0437  0.0349
19826W        W36674  16.959   4.263   3.586  0.0708  0.0261 -0.1196
19827W        W36675  16.198  10.905   4.592 -0.0106 -0.0648 -0.1077
19828W        W36676  10.908   9.433   2.541 -0.1987 -0.0881 -0.0680
19829W        W36677  14.114   0.687  15.923 -0.2078 -0.1337  0.1085
19830W        W36678   6.939  16.839  14.622  0.0872 -0.1230  0.0383
19831W        W36679   5.738  16.305   3.958 -0.1094  0.0882 -0.1816
19832W        W36680  10.116  16.642  13.846 -0.0317 -0.1860 -0.0743
19833W        W36681   7.906   3.544  15.737 -0.0866  0.1499 -0.0553
19834W        W36682   5.746  17.691  12.819  0.1795 -0.0204  0.0584
19835W        W36683  16.551  13.801  11.726 -0.2684  0.0293 -0.0548
19836W        W36684  16.647  13.586  15.069 -0.1747  0.2183 -0.1628
19837W        W36685   7.155   4.317  14.651 -0.2378 -0.2097 -0.3469
19838W        W36686  10.838  17.340  10.494  0.0509  0.1851 -0.1722
19839W        W36687   3.132   7.399  15.556 -0.1980  0.2934  0.1213
19840W        W36688   5.211   9.139  15.587  0.1587  0.1867 -0.0607
19841W        W36689  17.197   8.713  15.014  0.1607 -0.4246 -0.2062
19842W        W36690  11.796  16.006  11.603 -0.1067 -0.1493 -0.0813
19843W        W36691   8.688   9.478   1.066  0.2790  0.0909 -0.1629
19844W        W36692  14.813   2.670  13.621  0.2560  0.2111 -0.1052
19845W        W36693  15.424   4.419   0.630 -0.1996  0.2928  0.3899
19846W        W36694   7.004  13.560   2.662 -0.0158 -0.1107 -0.1943
19847W        W36695   2.389   3.211  16.393  0.0312  0.0836 -0.0893
19848W        W36696   3.753  17.598  15.710  0.0010 -0.1420  0.0870
19849W        W36697   9.785  12.763   5.417  0.1491  0.3664  0.1309
19850W        W36698  11.311  17.756  12.925 -0.1162 -0.1180 -0.2662
19851W        W36699   5.044  14.380   3.876  0.1339  0.3697 -0.1833
19852W        W36700   8.003   6.577  13.534  0.0066 -0.2676  0.1171
19853W        W36701  12.465  10.356   3.771  0.2902  0.2998 -0.0272
19854W        W36702  16.115   5.987   0.914 -0.0490 -0.0819  0.0897
19855W        W36703  17.823   5.309  11.611 -0.3545 -0.2296 -0.0886
19856W        W36704  12.702   0.344  15.955 -0.2275 -0.2233  0.2707
19857W        W36705  15.936   3.277  11.388  0.1497 -0.0022  0.2690
19858W        W36706  14.435  17.486  11.302 -0.1060  0.0894  0.1363
19859W        W36707  16.150   4.897  13.352  0.1607 -0.2939  0.2192
19860W        W36708  13.339   5.710  15.752  0.0288 -0.3146  0.0703
19861W        W36709   3.069  17.586  11.814  0.0928  0.3001  0.1227
19862W        W36710   7.336  12.410  15.041  0.0908  0.1152  0.1232
19863W        W36711  13.886  11.126  16.099 -0.2304  0.2197 -0.2384
19864W        W36712   2.176   4.096  15.549 -0.0644 -0.1854 -0.0313
19865W        W36713  10.904   2.457  16.126 -0.2356 -0.0105 -0.3845
19866W        W36714   5.976  15.830  16.411  0.0607  0.0771  0.1611
19867W        W36715  15.115   8.323   4.960  0.1598 -0.5032  0.5200
19868W        W36716  14.966  13.208   2.559  0.3873  0.1169  0.1675
19869W        W36717   8.023  14.369   0.363  0.3736 -0.0661 -0.0254
19870W        W36718  11.759   3.006   6.461  0.1126  0.0366  0.0457
19871W        W36719   3.771   9.686  15.942 -0.1989  0.1179 -0.0782
19872W        W36720  13.493   3.305   2.027 -0.2141 -0.1229 -0.1301
19873W        W36721  11.648  12.593  11.925 -0.1506  0.3006 -0.0771
19874W        W36722  17.619   2.050  14.958  0.1870 -0.1952 -0.2596
19875W        W36723   9.393  15.379  13.099 -0.0013  0.3023  0.0477
19876W        W36724  10.067   0.852   4.794 -0.0532 -0.1351  0.0859
19877W        W36725   4.022   9.308  12.171 -0.0171 -0.0718  0.2014
19878W        W36726  11.259  11.995  15.605  0.1208  0.2476 -0.1335
19879W        W36727   0.810   3.515  15.880 -0.0620  0.3673 -0.0727
19880W        W36728   6.620   9.771  13.759 -0.1788 -0.2017  0.2181
19881W        W36729   2.165   6.693   2.486 -0.3269  0.0098 -0.1094
19882W        W36730   3.381   9.120   5.362 -0.0754  0.1008 -0.2153
19883W        W36731  16.498   9.764  11.448  0.1312  0.1069  0.0147
19884W        W36732   4.968  16.021  15.387 -0.1885  0.1540  0.0192
19885W        W36733  17.241   7.103  14.925  0.0371  0.2845 -0.0208
19886W        W36734  15.328   5.578   3.045 -0.1097  0.1715 -0.2488
19887W        W36735   8.756  11.803   4.654 -0.0205 -0.4855 -0.0137
19888W        W36736  12.924  11.810  13.988  0.0464  0.0289  0.1397
19889W        W36737  15.366  13.580  10.012  0.0040  0.0934  0.1756
19890W        W36738  14.658  11.285  10.548  0.1225 -0.1056 -0.2569
19891W        W36739   9.713  17.088   0.990  0.0493 -0.1213  0.0001
19892W        W36740  14.193   8.239   4.671  0.0873  0.3010 -0.0514
19893W        W36741   5.472   7.692  15.600 -0.1754 -0.2110 -0.0643
19894W        W36742   2.463   1.430  12.223  0.1638  0.1110 -0.1897
19895W        W36743  17.568  11.395  16.116 -0.2103 -0.0539  0.1713
19896W        W36744  11.312   8.912  12.136 -0.2047  0.2762  0.1656
19897W        W36745  10.023   4.286  15.480  0.1047  0.0926  0.0538
19898W        W36746  12.517  15.446   1.593 -0.0690  0.0282 -0.2266
19899W        W36747   2.236  15.657  12.759 -0.0272 -0.0816 -0.2715
19900W        W36748  15.026  17.414   5.656 -0.1528  0.1094  0.1673
19901W        W36749   5.755   4.397  13.504  0.0611  0.2441 -0.1581
19902W        W36750  12.839   0.480   4.118  0.3168 -0.0354 -0.0016
19903W        W36751   5.405  12.807   3.173 -0.1387  0.0082 -0.0279
19904W        W36752   7.952   0.610  15.764  0.5585  0.0194 -0.0479
19905W        W36753  14.254  10.543   0.668  0.2699  0.0335 -0.1162
19906W        W36754  16.426   4.134   3.491  0.2521  0.2263 -0.1985
19907W        W36755   9.638   7.479   3.514  0.1722 -0.3071  0.0408
19908W        W36756  16.279   4.546   2.615 -0.0495  0.2571  0.0406
19909W        W36757  14.456  17.884   0.531 -0.0515  0.0636  0.0630
19910W        W36758  10.270   4.752   3.193 -0.2402  0.0338 -0.0734
19911W        W36759   7.936   6.530   2.830 -0.1547 -0.0465  0.0780
19912W        W36760   0.672  11.716  11.445  0.0699 -0.1492  0.0594
19913W        W36761   1.046   0.603   3.625 -0.0708 -0.1178  0.0875
19914W        W36762  14.322   7.593   1.155  0.2078  0.2728  0.2981
19915W        W36763  11.553   7.378  12.701  0.2079 -0.0747  0.1551
19916W        W36764   8.994  11.166  14.486  0.0923  0.2840  0.2230
19917W        W36765  10.161  17.473   5.130 -0.0928 -0.0648  0.1158
19918W        W36766  14.470   9.230   4.618  0.0855  0.3099  0.0749
19919W        W36767   7.316  15.098   2.666 -0.5117 -0.0933  0.0782
19920W        W36768   3.293  12.026   3.405 -0.0327  0.0498 -0.1553
19921W        W36769  15.978   0.187  16.228  0.1505 -0.0449 -0.0250
19922W        W36770  15.446   7.581  13.667  0.1884 -0.0142 -0.0428
19923W        W36771   6.270   6.444   3.917 -0.3214  0.2817  0.0690
19924W        W36772  16.642   8.427  14.057 -0.0794  0.1702  0.0803
19925W        W36773   3.992   2.213   4.247  0.1562  0.2709  0.0391
19926W        W36774   4.770  11.632   1.943 -0.1330 -0.1499 -0.1256
19927W        W36775  17.006  14.127   2.010 -0.0061  0.2012 -0.0177
19928W        W36776   8.661   0.757  16.441  0.0995 -0.1280 -0.2237
19929W        W36777  17.138  12.431  11.828  0.0200 -0.1456  0.1638
19930W        W36778  13.283  14.821   1.656  0.1808  0.1788 -0.1138
19931W        W36779  13.746   6.889   3.729 -0.2335 -0.1141 -0.0657
19932W        W36780   7.815   1.274   2.218  0.1751 -0.2271 -0.0711
19933W        W36781  17.044   4.778   2.471  0.0521 -0.2610 -0.1001
19934W        W36782   6.377  11.027  15.349 -0.1262  0.3075 -0.1903
19935W        W36783  13.545   5.935  12.856 -0.3422  0.0230 -0.1013
19936W        W36784  17.747  14.669   0.399  0.3027 -0.3018 -0.0252
19937W        W36785   7.072   0.417  15.616  0.1350  0.0826  0.3141
19938W        W36786  15.705   6.423   2.202  0.1176 -0.3618  0.0657
19939W        W36787   9.905  11.368   2.524 -0.2502  0.1466 -0.2040
19940W        W36788  15.647  15.386  15.419  0.2033 -0.1752  0.4323
19941W        W36789  12.605  11.946  15.421 -0.3313 -0.0010 -0.0837
19942W        W36790  11.984   4.989  14.265 -0.0729 -0.0358  0.2679
19943W        W36791   0.627   7.187  12.821  0.3270  0.0544 -0.2560
19944W        W36792  13.299   7.620   2.019  0.0418 -0.1116 -0.1335
19945W        W36793  16.394  12.467  16.452 -0.1342 -0.0363 -0.1113
19946W        W36794  11.613   7.271   0.253 -0.0611  0.3226 -0.1315
19947W        W36795  10.583   0.137  14.140  0.1317 -0.2342  0.1894
19948W        W36796   1.270   3.728  12.730  0.1013 -0.0872  0.0431
19949W        W36797  17.228   5.186  15.061 -0.0371 -0.0562  0.3585
19950W        W36798  13.235   6.765  11.839 -0.1563 -0.1074  0.0992
19951W        W36799  11.265   3.941   3.960  0.3956 -0.1622 -0.2185
19952W        W36800  16.846  17.644   0.490 -0.1032  0.1677 -0.3298
19953W        W36801  11.161   8.024  13.182 -0.0051  0.3100  0.2034
19954W        W36802   4.439   4.936  14.254  0.2225 -0.0767  0.1461
19955W        W36803   0.897   7.177  16.047 -0.1527  0.3133 -0.1985
19956W        W36804  10.370  17.150   5.391  0.3734  0.1178  0.0802
19957W        W36805   9.733   8.062   5.551  0.2382 -0.1066  0.2281
19958W        W36806  11.809   2.386  14.203 -0.2842 -0.0669  0.3132
19959W        W36807  14.347   6.789   2.422 -0.1473  0.0696  0.0410
19960W        W36808   7.920   4.435  11.599  0.2936 -0.0899 -0.0080
19961W        W36809  11.430  14.461  13.269  0.1619  0.1107 -0.0356
19962W        W36810   7.186  15.534   5.182 -0.0632 -0.0612  0.0993
19963W        W36811  14.914   5.678  15.322  0.0649 -0.1095 -0.0585
19964W        W36812   3.369  10.909   0.830 -0.1386  0.1120  0.0821
19965W        W36813  17.568   3.965  12.077  0.1129 -0.1433  0.2371
19966W        W36814   8.866   4.591  14.319 -0.1450 -0.1449 -0.2290
19967W        W36815   1.664  11.937  15.970  0.0939  0.2260 -0.1248
19968W        W36816  10.006   6.433  14.577  0.3485 -0.0665  0.0840
19969W        W36817  17.670   0.187   5.336 -0.2304 -0.0458 -0.2583
19970W        W36818  16.355   0.694   4.775 -0.3790 -0.2823 -0.3633
19971W        W36819   7.951   3.192  12.901  0.0454 -0.3398  0.1238
19972W        W36820   5.427   2.976   4.987 -0.3684 -0.0013 -0.2233
19973W        W36821  13.250  13.166  11.942  0.0565  0.1611  0.2505
19974W        W36822  17.509  15.390  12.939  0.1850  0.2218  0.0405
19975W        W36823  15.335  10.276  15.782 -0.2257  0.1491  0.1787
19976W        W36824  10.804   4.825   4.451 -0.0677  0.0974 -0.0542
19977W        W36825  10.791  15.618   4.308  0.1629 -0.1123  0.0218
19978W        W36826  15.207  10.102   2.538  0.4892 -0.0551  0.1657
19979W        W36827   8.811   1.817  12.294  0.1136 -0.0515 -0.0855
19980W        W36828  13.017   7.938   0.752 -0.0438  0.0884 -0.1771
19981W        W36829   4.415   4.551   6.239 -0.1781 -0.0615 -0.1206
19982W        W36830   0.071   2.250   1.216 -0.1056 -0.0657 -0.3069
19983W        W36831  13.750   5.979  13.756 -0.0276  0.3391  0.3357
19984W        W36832   9.067  13.009   4.193  0.0164 -0.1343  0.1848
19985W        W36833  15.439  11.472  15.800  0.3773  0.0227 -0.0927
19986W        W36834   7.152   7.540  16.359 -0.0187 -0.0935  0.1584
19987W        W36835   9.706  10.468   1.651 -0.1048 -0.2670  0.0600
19988W        W36836   7.434   9.670  13.638  0.1146 -0.0386 -0.1011
19989W        W36837  17.227   9.979  12.180  0.0860  0.2144 -0.2831
19990W        W36838   6.272  10.094   1.891 -0.0510  0.0718  0.2478
19991W        W36839  16.804   6.581   5.875  0.1181  0.0321 -0.0968
19992W        W36840  11.633  15.633   0.752  0.0381 -0.0373  0.1868
19993W        W36841   4.177   0.871  13.859 -0.3235  0.2305 -0.2190
19994W        W36842  14.215   1.306  15.246 -0.2098 -0.0027  0.2210
19995W        W36843   9.648  14.414   2.338 -0.1611  0.1764 -0.2041
19996W        W36844   7.875  16.834  14.981  0.3228  0.1338  0.1015
19997W        W36845  15.186  13.484   2.942  0.1204 -0.0053 -0.0895
19998W        W36846  15.686  16.906  15.639  0.1827  0.1530  0.1269
19999W        W36847   7.694  11.047   3.686 -0.3035  0.1529  0.2679
20000W        W36848   7.726   8.326  14.843  0.1371  0.1729  0.1235
20001W        W36849   4.506   5.597  15.993 -0.1431  0.0877 -0.1562
20002W        W36850  13.350   2.219   4.436 -0.1526 -0.1851  0.0179
20003W        W36851   0.615   4.889   4.557 -0.2052 -0.2220  0.2729
20004W        W36852   4.211   4.541   3.657 -0.2004 -0.0692 -0.1482
20005W        W36853   9.189   9.855   1.417  0.0245 -0.4161  0.2350
20006W        W36854  11.966  11.251   1.392  0.0360 -0.2660  0.2232
20007W        W36855   5.008  14.946   5.237  0.0010 -0.0051 -0.0864
20008W        W36856  11.903   6.984   2.507  0.0320 -0.1844  0.0408
20009W        W36857   6.200   5.552   3.659 -0.0998  0.1613  0.0461
20010W        W36858  10.692  11.319  12.533 -0.1908 -0.2994 -0.1339
20011W        W36859   1.683   4.193  14.373 -0.0944  0.2009  0.1585
20012W        W36860   7.107  11.333   6.212  0.1353 -0.0236 -0.1938
20013W        W36861   0.954  11.236   3.990  0.1270  0.2219  0.0191
20014W        W36862  15.859  11.769  12.357  0.1073 -0.0032 -0.1006
20015W        W36863   9.188  14.170  11.476 -0.0607  0.0544 -0.1792
20016W        W36864  10.079   7.948  12.929  0.2032 -0.0408  0.2480
20017W        W36865   0.166   6.426   1.729  0.2114  0.0976  0.1214
20018W        W36866  14.472  12.238   4.018 -0.2965  0.1040  0.0942
20019W        W36867  14.360  11.088   3.233 -0.1714 -0.0511 -0.1141
20020W        W36868   2.236  12.222   2.403  0.1476  0.1111 -0.2474
20021W        W36869  12.407   6.787  12.252 -0.0204 -0.0179  0.3444
20022W        W36870  15.980  11.379   2.665 -0.1485  0.0726  0.1388
20023W        W36871   1.192   0.459   1.173  0.2014 -0.0635 -0.3952
20024W        W36872  11.781   2.870   5.171  0.0712  0.0631  0.2029
20025W        W36873   5.044  17.408  10.501 -0.0636  0.1689 -0.0316
20026W        W36874   2.479   5.659  12.344  0.2934 -0.2841  0.0744
20027W        W36875  14.916  14.687  13.229  0.0126  0.0674 -0.0908
20028W        W36876  10.171   8.909   1.945 -0.0442 -0.3627  0.1867
20029W        W36877  17.355  10.219   2.727 -0.0497 -0.2887 -0.2183
20030W        W36878   4.296   1.757  11.129 -0.0005 -0.1665  0.0173
20031W        W36879   6.396   6.531  12.014 -0.0573 -0.1140 -0.0439
20032W        W36880  17.745   2.781  11.380 -0.0938  0.0648  0.3407
20033W        W36881   5.314   1.320  12.705  0.1490 -0.0755  0.0593
20034W        W36882  13.312   9.458   0.567  0.2226  0.2606 -0.2726
20035W        W36883   1.825   0.865   0.281 -0.2516  0.1580  0.1430
20036W        W36884  10.915   8.175  13.942  0.1721  0.0297 -0.0051
20037W        W36885   4.370  12.128  15.325  0.0102 -0.0120 -0.0071
20038W        W36886  14.891   1.760  13.226  0.1884  0.1262 -0.0474
20039W        W36887  17.146   7.867   1.970  0.3551  0.0903  0.1417
20040W        W36888  12.575  17.403   4.959  0.0119  0.2775 -0.1854
20041W        W36889  15.979   7.971  16.414 -0.1733 -0.0947 -0.2006
20042W        W36890   5.753   0.531  13.154  0.1384 -0.0346  0.0760
20043W        W36891   6.997  11.481   1.094  0.1961  0.1134  0.0491
20044W        W36892   6.030   8.914   3.314  0.0663  0.0110  0.1490
20045W        W36893  12.243  14.963  14.910  0.3351 -0.0373 -0.2036
20046W        W36894   9.982  10.198  12.635  0.3701  0.0095  0.2193
20047W        W36895   8.337  10.889  11.688  0.2295 -0.1554 -0.0426
20048W        W36896   0.731  12.450  12.124 -0.0747  0.1454 -0.0994
20049W        W36897  12.320   6.921  13.757 -0.0409 -0.0915 -0.2120
20050W        W36898   2.287   4.274   2.843 -0.1134 -0.4177 -0.1934
20051W        W36899  14.889  16.250  12.029  0.1525 -0.0928  0.0870
20052W        W36900   9.276  14.235  13.808 -0.1862 -0.1080 -0.4570
20053W        W36901   8.649  17.006  12.536 -0.2144 -0.2184 -0.2281
20054W        W36902  13.262   0.213   0.386 -0.0704  0.0617 -0.1707
20055W        W36903  10.756   1.313   1.186  0.1745 -0.0150  0.0537
20056W        W36904   2.347   6.801  13.068 -0.1898  0.0133 -0.0316
20057W        W36905   6.963  10.639  13.256 -0.0727 -0.1315  0.1135
20058W        W36906   3.586  16.356  11.110 -0.0251 -0.0812 -0.1561
20059W        W36907   0.545  13.118   1.481 -0.2459 -0.0401 -0.0130
20060W        W36908   4.677   3.887  14.642 -0.2360  0.0939  0.1645
20061W        W36909   6.560   6.296  14.570  0.1457  0.1986  0.0240
20062W        W36910   4.615   1.113   1.555  0.0361  0.1546  0.1488
20063W        W36911   4.199   9.748   2.597  0.1206  0.0019  0.0743
20064W        W36912   8.971   5.207  15.375  0.2248 -0.0334  0.1938
20065W        W36913  12.383   3.708   4.253  0.0732 -0.0855  0.1829
20066W        W36914   4.420  11.874  14.783  0.2867  0.2324 -0.4833
20067W        W36915   2.618   1.209   1.531 -0.0447 -0.0281  0.1794
20068W        W36916  17.618  15.340   2.196  0.0670 -0.1120 -0.3198
20069W        W36917   9.505   8.139   5.093  0.0567 -0.0024 -0.0612
20070W        W36918   0.232   7.889  11.514 -0.2181  0.0632 -0.2782
20071W        W36919   6.715   8.304   6.169 -0.1319  0.2895  0.3091
20072W        W36920   0.506   0.078   4.403  0.1696 -0.1514  0.0206
20073W        W36921   0.472   2.647  14.147 -0.0332  0.1770  0.0804
20074W        W36922  13.748   5.929  14.991 -0.0043  0.3219  0.0418
20075W        W36923   5.273  13.995   5.253  0.0641 -0.2073 -0.2192
20076W        W36924   1.132   8.963  14.353  0.2796  0.0651 -0.2190
20077W        W36925   9.729   9.812  15.941 -0.1979  0.0178 -0.1927
20078W        W36926   0.734  11.405   2.310  0.1661  0.1061  0.0762
20079W        W36927  13.564   3.603  11.111  0.1359  0.0076 -0.1921
20080W        W36928  10.640   3.897  16.105  0.1210 -0.0730  0.1418
20081W        W36929   6.843  11.753  13.807  0.1819  0.1630  0.1720
20082W        W36930  13.691   3.793  14.895 -0.0466 -0.3432 -0.2775
20083W        W36931   1.572   2.545  12.233  0.0378  0.0442 -0.1404
20084W        W36932   7.533  17.019   0.443  0.0404 -0.1751 -0.0348
20085W        W36933  14.161  16.200   4.636  0.3656 -0.2322  0.0941
20086W        W36934  16.021  14.711   2.483 -0.0462  0.1589  0.0501
20087W        W36935   7.279   0.548   4.685  0.0431 -0.0970 -0.0494
20088W        W36936   6.225  12.059   0.815 -0.2864  0.2809 -0.3010
20089W        W36937   3.344  10.416   1.815  0.1687 -0.3440 -0.1494
20090W        W36938  11.262   2.005   4.720  0.0232  0.0909  0.0862
20091W        W36939  10.662   7.054  14.560 -0.2893 -0.1897 -0.0011
20092W        W36940   6.413   1.675   1.698  0.0788 -0.1684  0.2097
20093W        W36941  11.444   2.022  15.519 -0.4323 -0.0389  0.0134
20094W        W36942   7.523   9.716   0.298 -0.1986 -0.1469  0.0836
20095W        W36943   9.520  16.425  10.949  0.1967 -0.3313  0.1333
20096W        W36944  15.473   8.216   4.024  0.0693  0.0297 -0.0555
20097W        W36945  16.932  15.968  14.863 -0.0075 -0.0284  0.2897
20098W        W36946  12.748   6.294   2.253  0.2892  0.0912 -0.1376
20099W        W36947   7.707  16.499  12.434 -0.1517 -0.1973 -0.3591
20100W        W36948   7.019  15.687  12.452  0.1922 -0.0723 -0.2742
20101W        W36949  17.791   6.781  16.009  0.0387 -0.2322  0.2566
20102W        W36950   2.702   0.772  13.317 -0.1366 -0.3993  0.0441
20103W        W36951  12.239   8.976  11.987 -0.0769  0.2153  0.2153
20104W        W36952   2.978   9.853   5.681 -0.1971 -0.1832 -0.2708
20105W        W36953   5.240   0.143   2.153  0.0440 -0.1295  0.0595
20106W        W36954   1.941  17.328  14.434 -0.1420  0.0601 -0.1813
20107W        W36955   1.453  16.738  13.896 -0.0392 -0.0311 -0.0784
20108W        W36956   1.616   0.575  13.730 -0.0250 -0.2435 -0.1097
20109W        W36957  11.245   8.767   2.911 -0.1316  0.0765  0.1699
20110W        W36958   1.202   1.182   5.196  0.0171 -0.1572 -0.1254
20111W        W36959   4.553  13.977   3.162 -0.1129  0.2319  0.1280
20112W        W36960  15.616   7.736  12.046 -0.2602  0.0864 -0.1414
20113W        W36961  12.040   3.557   4.556  0.1193  0.1770 -0.3163
20114W        W36962  10.230   2.814   3.648  0.0324 -0.1011  0.0516
20115W        W36963   0.198   0.181  11.655  0.0436 -0.0581 -0.2064
20116W        W36964  11.148   9.514   0.050 -0.2625  0.0214  0.1757
20117W        W36965  16.778   3.313   4.083  0.1110  0.1235 -0.1329
20118W        W36966   6.490   4.809   0.798 -0.0518 -0.1748 -0.0682
20119W        W36967   8.112   1.438   0.237 -0.1187  0.0409 -0.2024
20120W        W36968   0.831  13.994  12.726 -0.1306 -0.1386  0.2132
20121W        W36969   6.421   6.956   5.987 -0.0730 -0.0070 -0.1819
20122W        W36970   6.311   2.907   1.455  0.1297 -0.1797 -0.1291
20123W        W36971  10.743   3.591   0.794 -0.0484  0.0011 -0.0355
20124W        W36972  10.712  14.733   0.623  0.1684  0.1589 -0.0123
20125W        W36973  13.920  16.951   2.166  0.0236 -0.3603  0.1560
20126W        W36974  17.055   3.302  13.040  0.0382  0.1366 -0.2026
20127W        W36975   8.875   8.998   2.202  0.1193 -0.1800 -0.0338
20128W        W36976   7.500  10.314   2.190 -0.0730  0.0228  0.4509
20129W        W36977   2.081  14.208   4.815 -0.2117  0.2316  0.0190
20130W        W36978   6.768   3.039  14.330 -0.3254 -0.0169  0.0720
20131W        W36979  13.824  14.251   3.165 -0.0365 -0.0953  0.0022
20132W        W36980  14.806   8.882  12.619 -0.0279 -0.0530  0.1061
20133W        W36981  12.896   0.882  14.128 -0.1700 -0.1914 -0.1499
20134W        W36982   7.329   8.920   4.648  0.0089 -0.0570 -0.0604
20135W        W36983   3.964  16.246   4.971 -0.0709 -0.0954 -0.4644
20136W        W36984  16.679  13.214  15.925 -0.1416  0.4420 -0.2217
20137W        W36985   8.834  16.715  14.427  0.1700  0.1126  0.2743
20138W        W36986   0.568  17.865   5.277 -0.0576  0.0959 -0.3182
20139W        W36987  13.586   0.400   2.846 -0.0621  0.3082 -0.0685
20140W        W36988   5.676   8.899   2.082 -0.0004 -0.1487  0.0745
20141W        W36989   5.871   2.750   5.091  0.0772  0.0577 -0.1778
20142W        W36990  13.100   0.842   3.258  0.0818  0.1323  0.0937
20143W        W36991   3.219  10.242   2.322 -0.0604 -0.3750  0.1086
20144W        W36992   2.024   4.806   3.203 -0.1759 -0.0335 -0.0197
20145W        W36993   8.612   7.837   0.413 -0.1745  0.1299  0.3471
20146W        W36994   2.089   0.968  15.478 -0.1890 -0.0883 -0.0075
20147W        W36995   6.406   3.469   1.723  0.0475  0.1032 -0.0759
20148W        W36996  15.604   3.434  14.554  0.1960  0.1400  0.2964
20149W        W36997  14.411   0.787  14.202 -0.0541  0.0428  0.2897
20150W        W36998  12.575  16.095   0.641 -0.0547  0.0127 -0.1464
20151W        W36999  15.280   9.785   3.209 -0.2443  0.3776  0.3966
20152W        W37000  11.666  10.385  14.488  0.1651 -0.1061 -0.0483
20153W        W37001   5.786   1.878   0.296 -0.3467 -0.1051 -0.0307
20154W        W37002  10.350  10.303  14.511 -0.2346 -0.5027 -0.0375
20155W        W37003   4.860  13.243   1.193  0.1274  0.1206  0.3000
20156W        W37004   9.697  11.325  13.699  0.0461 -0.1746 -0.1934
20157W        W37005  14.118  13.237   0.394  0.1539 -0.1042 -0.0356
20158W        W37006  14.508  14.534  14.821 -0.0497  0.0460  0.0368
20159W        W37007  10.878  10.083  13.439 -0.0490 -0.2340 -0.1682
20160W        W37008  11.548  13.121   3.133  0.0051  0.0757  0.0661
20161W        W37009  10.740   8.869   1.871 -0.1181 -0.0255  0.0402
20162W        W37010  17.119   7.779  11.250  0.3683 -0.0531  0.0403
20163W        W37011   0.917   5.336  13.736 -0.0353  0.0735 -0.0743
20164W        W37012   3.876   5.429  15.797 -0.1675 -0.1829  0.0486
20165W        W37013   3.986   3.832   1.517  0.2657  0.1415 -0.0690
20166W        W37014   6.960   0.636   1.151 -0.2813  0.3606 -0.1067
20167W        W37015   2.942  11.053  13.688  0.0358  0.0068  0.1093
20168W        W37016  14.290   3.333   2.433  0.2048  0.0910  0.1712
20169W        W37017   8.108  17.163  16.397 -0.0148  0.1521  0.0567
20170W        W37018   8.931   6.469  15.929 -0.1423  0.2304 -0.3433
20171W        W37019   2.639  17.192  10.712 -0.0346  0.0214 -0.0355
20172W        W37020  13.897  16.693   0.358 -0.1438 -0.0939 -0.1866
20173W        W37021   8.118   1.869   1.805 -0.1008  0.0507 -0.1644
20174W        W37022   1.461  14.953  12.549  0.2267 -0.0787 -0.0862
20175W        W37023   8.401   3.441   0.556 -0.0194  0.0629 -0.0331
20176W        W37024   5.787  17.784  14.068 -0.1300  0.3104  0.1543
20177W        W37025   2.480  17.308  13.413  0.0173  0.2566  0.0854
20178W        W37026   3.199   4.390  12.428  0.0373  0.4338 -0.0120
20179W        W37027   4.693   5.221   1.064  0.0733  0.0832 -0.0815
20180W        W37028   6.385  14.915   5.907 -0.2089  0.0588  0.0871
20181W        W37029  15.928  10.007   2.895 -0.0567 -0.1999 -0.0909
20182W        W37030   6.988  11.054  16.062 -0.2016 -0.1627  0.2837
20183W        W37031   9.781   5.680   2.069 -0.1850  0.0634  0.0475
20184W        W37032   1.288   9.216   0.089  0.0523 -0.2489  0.2590
20185W        W37033   5.004  10.653  11.147 -0.1573  0.0761  0.1185
20186W        W37034  16.967  11.739   0.282  0.3012 -0.1323  0.4760
20187W        W37035  16.746   5.933  11.925 -0.1432 -0.2206  0.1715
20188W        W37036  16.729   0.188   0.544  0.0582  0.1093  0.0578
20189W        W37037  15.675  14.605   0.155  0.0268  0.0772  0.3037
20190W        W37038   7.233   5.156  13.494 -0.1454  0.1318 -0.1357
20191W        W37039   6.153   0.155  14.797  0.2489 -0.0859 -0.2556
20192W        W37040   5.405   1.375   4.338 -0.1821 -0.0850  0.1796
20193W        W37041   6.440   0.619   0.183  0.0614 -0.2438 -0.1204
20194W        W37042   3.965  13.142  11.687 -0.0130 -0.1471 -0.1827
20195W        W37043   8.271   8.685  15.299 -0.1487 -0.0196 -0.2186
20196W        W37044   2.001  13.922  13.587 -0.0941 -0.1440 -0.0365
20197W        W37045   2.317   5.256   1.421  0.2472 -0.3239  0.2141
20198W        W37046   8.488   9.501  16.116  0.0885 -0.0011 -0.0604
20199W        W37047  17.407  14.532  14.810  0.0589 -0.0785  0.1096
20200W        W37048  16.187   3.467  15.691 -0.2601 -0.0458 -0.1257
20201W        W37049  15.102   3.438  14.719  0.0986  0.1151 -0.0485
20202W        W37050   6.527   2.188  11.757  0.0894  0.0109  0.0216
20203W        W37051  14.953  16.825   3.101 -0.0368  0.2700  0.3751
20204W        W37052   3.673  12.774  14.982 -0.1907  0.1258  0.2187
20205W        W37053  15.779   7.044   1.124  0.2893 -0.3632  0.1628
20206W        W37054   8.553   9.299  12.059 -0.0211  0.0487 -0.1360
20207W        W37055  13.868   2.293   4.264  0.0578 -0.0613 -0.1000
20208W        W37056   8.235   3.144  12.144  0.2252  0.0497  0.2748
20209W        W37057  13.588   7.267  15.510 -0.1888  0.1969 -0.0055
20210W        W37058  13.953   0.364  16.317  0.1455 -0.0273 -0.5427
20211W        W37059   8.011   7.923   5.256 -0.0018 -0.2043 -0.1436
20212W        W37060   2.060  14.468   1.814 -0.3071  0.1712  0.1501
20213W        W37061  15.991   5.480   1.148 -0.0899 -0.2215 -0.0496
20214W        W37062   0.970  13.694  13.230  0.0633  0.1214  0.1280
20215W        W37063  16.864   4.382  13.845  0.0188  0.0674  0.3465
20216W        W37064   6.220  15.612   3.142  0.0119  0.1682 -0.1503
20217W        W37065   2.037   3.516   5.024  0.2188  0.1664  0.2983
20218W        W37066  10.937   5.943  13.045  0.0244 -0.2784 -0.0460
20219W        W37067   7.887  17.469  11.698  0.0324 -0.1480 -0.0946
20220W        W37068   6.035   9.191   1.090 -0.0497 -0.2191  0.1535
20221W        W37069   3.928   3.328  15.713 -0.0326 -0.1173 -0.0019
20222W        W37070  13.311   3.274   1.532  0.0563 -0.0320 -0.0624
20223W        W37071  15.045   9.214   2.001  0.1417  0.0536 -0.1209
20224W        W37072   0.322  17.336   3.160 -0.0252  0.0756  0.1305
20225W        W37073   1.115   8.529  14.929  0.1072 -0.1454  0.0340
20226W        W37074   6.655  11.801  14.509  0.2078 -0.0813 -0.3646
20227W        W37075   4.462   9.958   0.476 -0.2406  0.2805 -0.1048
20228W        W37076  13.537   4.459  13.095 -0.0324 -0.2201  0.2738
20229W        W37077  16.210   7.938   1.843 -0.1049 -0.0387 -0.0447
20230W        W37078   2.606  10.820  12.334  0.1947 -0.2509  0.1073
20231W        W37079   2.877  10.053  11.151  0.0616 -0.0178  0.1671
20232W        W37080  13.060  12.752  13.696  0.2045 -0.0281  0.1031
20233W        W37081   2.319   4.282   1.396 -0.0205 -0.2923  0.2357
20234W        W37082   3.363  14.886   2.809 -0.2436  0.0226 -0.1630
20235W        W37083   0.400   4.344   2.510 -0.1900  0.1868  0.0373
20236W        W37084  14.594  10.512  14.970 -0.1753  0.3444  0.0023
20237W        W37085   2.065  10.790  12.225 -0.1948 -0.0146 -0.4249
20238W        W37086   9.368   7.623  14.584  0.0267 -0.0535 -0.0737
20239W        W37087   8.390   4.878   5.174  0.1469  0.3395 -0.2385
20240W        W37088  12.741  16.418   4.372 -0.3425  0.1558 -0.0445
20241W        W37089   0.575   1.544   1.788 -0.2009  0.0439 -0.3696
20242W        W37090  15.710   2.156  13.875  0.0451 -0.0690 -0.0112
20243W        W37091  12.940  16.593   4.817  0.0576  0.0747  0.1153
20244W        W37092  11.406   7.721   0.375  0.1384  0.0073  0.0543
20245W        W37093   6.708  15.087  13.399  0.0303  0.1786 -0.1571
20246W        W37094  16.731   4.825   4.522  0.4071 -0.2765 -0.0472
20247W        W37095  13.581  11.655   5.070  0.5651 -0.1796 -0.1446
20248W        W37096  10.635   8.690  13.257  0.0216  0.2002 -0.2891
20249W        W37097  10.758   7.818  15.049 -0.1140 -0.0896  0.0503
20250W        W37098   6.902   5.904  15.661  0.1387  0.0673  0.3210
20251W        W37099  10.242   8.662  15.069 -0.0093  0.0864 -0.0550
20252W        W37100  14.236   0.416   0.295 -0.6273  0.1497 -0.1816
20253W        W37101  10.637  16.617   0.951 -0.0728  0.1839  0.1643
20254W        W37102  12.719   9.642   3.011  0.1082 -0.2207 -0.0556
20255W        W37103  16.456   4.073   3.991 -0.1808 -0.2739 -0.1304
20256W        W37104   4.751   8.045  15.938 -0.2451  0.3168  0.0846
20257W        W37105  12.346   7.660   0.380 -0.1203  0.4180  0.1292
20258W        W37106   9.474  10.515  12.373  0.0405  0.0563 -0.0663
20259W        W37107  16.065  10.225   4.727  0.1466  0.2479 -0.1231
20260W        W37108   6.482  14.354   6.114  0.2873  0.3919 -0.0818
20261W        W37109  15.528  10.070   2.021 -0.1135 -0.0457 -0.0555
20262W        W37110   8.014  10.829  15.702 -0.2295  0.1976 -0.1148
20263W        W37111   7.700  13.531   4.221 -0.1400 -0.0678 -0.3463
20264W        W37112  15.437  13.484   0.951 -0.0928  0.3084 -0.1377
20265W        W37113  14.255   7.618   2.167  0.5470 -0.1022  0.0835
20266W        W37114   1.594   9.107   3.150  0.3064 -0.2945  0.4097
20267W        W37115   5.972  13.938   3.027  0.1056 -0.1178  0.2056
20268W        W37116  10.047  11.666  15.639  0.1340  0.0536  0.2038
20269W        W37117   6.978  10.663  11.491 -0.0760 -0.0719  0.0939
20270W        W37118   4.069   1.222  12.892  0.4182  0.0676 -0.3587
20271W        W37119   1.565   9.118  16.153  0.2268 -0.3857  0.2028
20272W        W37120   7.073   4.705   3.877  0.2377  0.2928 -0.0802
20273W        W37121   9.045  10.162  14.104 -0.1099 -0.5990  0.0820
20274W        W37122   7.214  12.204   3.217  0.0272 -0.1785  0.1363
20275W        W37123   1.714   3.447  14.914  0.0076 -0.1356  0.1469
20276W        W37124   4.946   7.072   3.726 -0.0313 -0.1260  0.2066
20277W        W37125   6.975   9.316   4.680 -0.0739 -0.2342 -0.1555
20278W        W37126   3.606   6.590  15.476 -0.3079  0.1780  0.0787
20279W        W37127  11.607   5.525   4.684  0.3671 -0.1019  0.0762
20280W        W37128  12.270   5.664   5.262  0.0593  0.1258  0.1029
20281W        W37129   4.065  10.054  13.262  0.2011  0.0702  0.0524
20282W        W37130  13.116   2.289  14.117 -0.0664 -0.0853  0.0362
20283W        W37131   9.040   2.106   1.885 -0.1671 -0.2358 -0.1918
20284W        W37132   4.749   4.224   2.673  0.0522 -0.0341 -0.3694
20285W        W37133   6.631   9.300  11.569 -0.0824  0.1098 -0.0152
20286W        W37134   7.882  13.363  16.428 -0.1083  0.1311  0.3347
20287W        W37135   5.218  14.832  15.216  0.1223 -0.1466  0.4404
20288W        W37136   3.675   2.669  12.470  0.2507 -0.0882  0.2883
20289W        W37137   2.929  17.236  13.222 -0.0353 -0.1726 -0.0681
20290W        W37138  10.898   4.919   5.009  0.1912 -0.0940  0.3490
20291W        W37139   0.835   4.491   4.752  0.0785 -0.1910  0.0217
20292W        W37140   5.514   7.538   6.222  0.0394 -0.0297 -0.0388
20293W        W37141  16.741   6.976  15.744 -0.2402 -0.0186 -0.0305
20294W        W37142  11.214  13.671   3.761  0.0384 -0.0825 -0.0132
20295W        W37143  10.004   6.257  11.719 -0.1600 -0.0492 -0.3727
20296W        W37144  16.941   0.882   4.511 -0.0906 -0.0377 -0.0416
20297W        W37145   8.496  15.925  14.966  0.0730 -0.1668 -0.3039
20298W        W37146   1.484   5.909   5.267  0.3260  0.0100  0.1681
20299W        W37147  15.836   4.487   1.583  0.1265 -0.2991 -0.0821
20300W        W37148  13.001  10.879   0.008 -0.3956 -0.2046  0.1644
20301W        W37149  15.981  17.833  13.586  0.0814  0.0260  0.0261
20302W        W37150   1.746  13.939   3.460  0.0187  0.6160 -0.0214
20303W        W37151  13.323   6.021   0.463 -0.0021  0.1781  0.0869
20304W        W37152   4.067  11.284   0.108 -0.1142  0.6536  0.1215
20305W        W37153  15.760  13.301   1.951  0.2180  0.1314 -0.3867
20306W        W37154   9.512   0.935   3.206 -0.2687  0.0029 -0.0158
20307W        W37155   1.605   8.691   0.106 -0.0595  0.1633  0.1308
20308W        W37156  14.853   5.347   2.693 -0.0908 -0.2116  0.2138
20309W        W37157  10.940  15.014   0.306  0.0785  0.0594  0.1617
20310W        W37158   8.514  10.366  11.703 -0.2099 -0.1366  0.3866
20311W        W37159  17.159   4.519  12.589 -0.0388  0.1152 -0.0599
20312W        W37160   5.028   1.990  11.719  0.0751 -0.2811 -0.1227
20313W        W37161  11.443  13.588   3.277 -0.2507 -0.0804  0.1651
20314W        W37162   3.181  13.838  12.559 -0.1458  0.3911  0.0700
20315W        W37163  13.679  16.920  15.905  0.0928  0.0419  0.1693
20316W        W37164  10.027   4.092  14.804 -0.1217 -0.0669 -0.2042
20317W        W37165   9.251  13.552  11.540 -0.1239 -0.0192  0.0221
20318W        W37166  16.308   9.054   0.771 -0.0444 -0.1598 -0.2389
20319W        W37167   4.704  13.077   5.799 -0.0533 -0.0831  0.1476
20320W        W37168   5.047  11.890  13.441 -0.2395 -0.0737 -0.2672
20321W        W37169  10.616   9.359   1.996 -0.1302 -0.3279 -0.0698
20322W        W37170   8.783   2.316  14.869 -0.2622 -0.1210 -0.0315
20323W        W37171  17.187   1.468   1.695  0.2055 -0.1851  0.2811
20324W        W37172   8.594  16.767   1.446 -0.1516  0.0252  0.0801
20325W        W37173   5.678   2.702  15.027  0.0635  0.2407 -0.1283
20326W        W37174  14.134  10.136   4.489 -0.0014 -0.2071  0.0439
20327W        W37175   9.161  13.326   3.566  0.2905  0.2208 -0.1592
20328W        W37176  10.039  13.082  11.979 -0.0795  0.0819 -0.0963
20329W        W37177  12.342  13.197  14.021  0.3352 -0.2844  0.0837
20330W        W37178   7.220   6.978   0.110  0.0912  0.0361  0.0939
20331W        W37179  12.400  15.953  14.694  0.0096  0.1228 -0.5095
20332W        W37180  12.332   5.932   1.256 -0.0333 -0.2887 -0.1765
20333W        W37181  17.769  10.851   2.072 -0.1601  0.1333  0.1019
20334W        W37182   8.803   7.630   1.410  0.0033  0.1514 -0.2704
20335W        W37183   2.915   6.747  16.436 -0.0271 -0.0057 -0.4373
20336W        W37184  17.501  12.427  12.822 -0.1099 -0.1106 -0.0482
20337W        W37185  14.398  10.142  12.986  0.0354 -0.0441 -0.0625
20338W        W37186   1.122   8.849   0.478 -0.1299 -0.0423  0.0140
20339W        W37187   9.082  16.288  13.813  0.4700  0.4092 -0.1261
20340W        W37188   4.726  16.181  13.089 -0.2691  0.0353 -0.1366
20341W        W37189   5.959   1.957   1.918  0.0005 -0.1759 -0.3145
20342W        W37190   9.673   6.779  16.102 -0.0263 -0.1074 -0.0191
20343W        W37191  11.037   9.702  15.259 -0.0904 -0.1636  0.2039
20344W        W37192   3.888   2.136  12.247  0.0468  0.2234  0.1718
20345W        W37193   3.549   7.249  12.465 -0.1505  0.0996 -0.0476
20346W        W37194  14.545   9.430  12.531 -0.0803  0.0426 -0.0158
20347W        W37195  15.668   0.613  13.556 -0.1584 -0.1433 -0.2453
20348W        W37196   4.868   0.212  14.169 -0.2361 -0.0339 -0.1837
20349W        W37197  15.487  12.500   3.956 -0.0302 -0.1941  0.0839
20350W        W37198   1.806   8.184  16.362  0.1313 -0.2652 -0.0257
20351W        W37199  12.819  14.802  11.934 -0.0229 -0.1124  0.1034
20352W        W37200   2.578  12.072   1.889 -0.0667  0.2452  0.0479
20353W        W37201  13.342   8.284   0.651 -0.1860 -0.2114  0.0985
20354W        W37202   1.747   7.108  13.009  0.2038 -0.4249 -0.0136
20355W        W37203   1.375   2.885   4.100 -0.1954  0.4248  0.0125
20356W        W37204   2.011  16.651  10.209 -0.0097  0.0316  0.1353
20357W        W37205  11.164  12.756  14.519  0.2461 -0.1310 -0.0623
20358W        W37206   5.078   3.976   2.387 -0.0850  0.0452  0.1661
20359W        W37207   9.167   9.163  11.830  0.1205 -0.0966  0.4069
20360W        W37208  13.732   0.424  12.974  0.3967  0.0347 -0.0539
20361W        W37209  17.431   0.955   3.900  0.0828 -0.0167 -0.3033
20362W        W37210  16.659  16.117   0.420 -0.3763  0.4373  0.2667
20363W        W37211   6.289   1.745  13.674  0.1531  0.3797 -0.4497
20364W        W37212  12.821  16.610   1.516  0.3142 -0.0046  0.0970
20365W        W37213  15.405   8.048  11.182 -0.0616 -0.1004  0.0806
20366W        W37214   9.657   9.316  11.788  0.0041  0.2691  0.1832
20367W        W37215   4.380   3.003   3.973  0.0545 -0.0255  0.3286
20368W        W37216   7.547   9.314   0.697  0.3410 -0.0026  0.0283
20369W        W37217   3.432   5.022   3.493  0.1264  0.0487 -0.1855
20370W        W37218  16.629   8.400   4.599 -0.2690 -0.0469  0.0152
20371W        W37219  11.814   9.602  12.333 -0.1433 -0.1753 -0.0141
20372W        W37220   7.195   0.380  14.193 -0.1699 -0.2218 -0.0068
20373W        W37221   2.362  15.217   2.757  0.0689 -0.1960  0.0088
20374W        W37222  13.626  16.230  15.138 -0.3072  0.1042  0.0998
20375W        W37223   0.713  13.904  14.342 -0.4782 -0.0301 -0.0957
20376W        W37224  14.967   3.064   0.340 -0.0565 -0.1781  0.0284
20377W        W37225   6.925   4.722  14.388  0.2490 -0.0724 -0.2255
20378W        W37226  13.995   6.538  12.810  0.0241  0.3136  0.1031
20379W        W37227   6.578   7.407  14.853 -0.1388 -0.0726  0.0115
20380W        W37228   2.291   2.233  15.519  0.1899 -0.1054  0.4583
20381W        W37229  14.774   2.655   1.229 -0.1423 -0.2053 -0.3631
20382W        W37230   7.428  16.483   1.202 -0.0089  0.1536 -0.1570
20383W        W37231  17.453   9.135  11.960  0.1623 -0.2981  0.0432
20384W        W37232   2.824  12.956   1.427 -0.0527 -0.1502 -0.0302
20385W        W37233  14.597   6.174   5.067 -0.0293 -0.0262 -0.0956
20386W        W37234   8.160  12.127   2.341  0.0086  0.2261 -0.2023
20387W        W37235  17.417   8.699  12.991  0.0371 -0.0178  0.1877
20388W        W37236   6.575  16.933   1.500  0.0086 -0.2632 -0.4113
20389W        W37237   6.161  11.697  12.889  0.0334  0.3207  0.2127
20390W        W37238  10.776   2.757   2.862  0.1973 -0.1644  0.3053
20391W        W37239   7.005  14.544   0.258 -0.0238  0.2792 -0.1513
20392W        W37240  16.261   0.169   1.098  0.2490  0.0600  0.1920
20393W        W37241  17.104  15.061  11.438  0.1042 -0.0196  0.1219
20394W        W37242  12.336   7.253  14.423 -0.2712  0.0363 -0.0022
20395W        W37243   1.367  11.467  14.708  0.2139 -0.3276 -0.0738
20396W        W37244  17.832  14.779  12.529  0.0522 -0.0380 -0.1971
20397W        W37245  14.348  16.887  14.861 -0.1291 -0.1131 -0.4590
20398W        W37246   0.403  14.368  15.178 -0.0279 -0.1785  0.1632
20399W        W37247  12.031   9.949   5.032 -0.0108  0.0098  0.1090
20400W        W37248   2.953  10.250   1.476  0.1008 -0.3826  0.0264
20401W        W37249   8.379   8.691   5.729  0.4219 -0.0920 -0.0929
20402W        W37250   6.590   2.030  14.668  0.2936  0.0392  0.1037
20403W        W37251   7.389  14.089  13.652 -0.2040  0.0910  0.0138
20404W        W37252   4.936   3.383   3.631  0.0349 -0.0077  0.2407
20405W        W37253   0.304  13.381  14.329 -0.0130  0.2517  0.1071
20406W        W37254   5.440  14.661   3.511  0.1988 -0.0371 -0.1002
20407W        W37255   1.770  15.032  12.126  0.1598  0.2568  0.0707
20408W        W37256   7.470   1.254   3.224 -0.2349  0.0632 -0.3572
20409W        W37257   5.043   0.569  13.858 -0.0476 -0.3198 -0.0578
20410W        W37258   9.847   4.132   0.683  0.3764  0.1769 -0.0588
20411W        W37259   0.279   4.973  16.114 -0.3019  0.2763 -0.1897
20412W        W37260  10.269  12.418   5.359 -0.0639  0.3195  0.1187
20413W        W37261  15.557   7.192   0.661  0.1283 -0.2952  0.1956
20414W        W37262  13.686   4.558  14.014  0.0490  0.0000  0.1286
20415W        W37263  11.699   1.168   1.986  0.4008 -0.3751 -0.4469
20416W        W37264  11.852  14.791  16.164 -0.0173 -0.0831 -0.0925
20417W        W37265  16.858  17.779  14.871  0.0408  0.1170 -0.1319
20418W        W37266   2.202   5.148  14.099  0.0889 -0.1122  0.3828
20419W        W37267  10.372  13.681  13.916  0.1013  0.0232  0.0578
20420W        W37268  15.972  14.911  14.060  0.1036 -0.1225  0.3092
20421W        W37269   6.481  17.722  13.883  0.0612  0.3799 -0.0461
20422W        W37270  16.710  14.223   3.322 -0.3203  0.0187 -0.0113
20423W        W37271   6.616   0.700   5.431 -0.1627 -0.0885  0.2201
20424W        W37272   2.594   7.324   1.846  0.0189  0.0039  0.2749
20425W        W37273  14.741   2.655   3.431 -0.1592  0.3580 -0.0348
20426W        W37274  12.405   1.080   4.146  0.0716 -0.1382  0.4190
20427W        W37275   2.085   8.882   4.074 -0.0712  0.4150  0.0262
20428W        W37276   6.361   3.037   3.837 -0.1576 -0.1623 -0.0614
20429W        W37277  13.846  17.404  15.301 -0.2455  0.0722  0.0694
20430W        W37278  13.929   1.445   3.764 -0.1583 -0.0945  0.1608
20431W        W37279   7.146  15.697  11.454  0.2853  0.2080  0.1734
20432W        W37280  10.872   7.221   1.431 -0.3037 -0.0748  0.3684
20433W        W37281   3.461  13.022  12.407  0.1721  0.1456  0.0283
20434W        W37282  10.172  17.827  12.755  0.0336  0.0266  0.0754
20435W        W37283  11.725   7.464   2.686  0.1745  0.2170 -0.0554
20436W        W37284   4.280   6.159   0.869  0.0511 -0.0531 -0.0234
20437W        W37285   5.097   6.106  12.079 -0.0556 -0.1801  0.0829
20438W        W37286   7.591   5.083  12.661  0.0344  0.3390  0.0914
20439W        W37287  15.483   9.853  11.862  0.0047  0.0533 -0.1512
20440W        W37288  17.839   9.287  12.314 -0.0197  0.0021 -0.0750
20441W        W37289   9.945  13.299  15.795 -0.1129  0.0973  0.2317
20442W        W37290   8.092  10.366   3.253 -0.1382  0.0248  0.3678
20443W        W37291   3.362   9.616  12.844 -0.2155  0.0973 -0.1295
20444W        W37292   2.601  12.266  14.951  0.3749  0.2349 -0.0036
20445W        W37293  11.382  14.722   0.173  0.0476  0.0788 -0.0176
20446W        W37294  16.006   2.988   4.059  0.1856 -0.0776 -0.0403
20447W        W37295   7.107   3.933  13.870  0.2971 -0.0476 -0.1133
20448W        W37296   7.677   5.348   4.758 -0.1258 -0.1585  0.1205
20449W        W37297   2.608   6.192  12.459 -0.1349  0.1338  0.0077
20450W        W37298  11.486   2.174   3.294 -0.2175 -0.0878 -0.0012
20451W        W37299   0.360   7.098  16.030  0.1434  0.0084  0.0355
20452W        W37300  17.226   0.456  12.510  0.0073  0.0626 -0.2700
20453W        W37301   6.693   8.662   0.771 -0.0480 -0.2306  0.0958
20454W        W37302   8.943  16.046   2.955 -0.2055 -0.1048  0.3631
20455W        W37303   1.321  17.042   0.912  0.0376 -0.0461  0.2587
20456W        W37304  15.610  14.073  15.868 -0.1943  0.2313  0.2091
20457W        W37305  11.013   9.189  11.860  0.1882 -0.1323 -0.2632
20458W        W37306   2.647  14.904  10.618 -0.0002 -0.0775  0.1118
20459W        W37307   0.989   9.733  11.577  0.1230  0.1196 -0.2686
20460W        W37308   9.823   1.423   4.095 -0.0722  0.1258  0.0749
20461W        W37309  15.752  15.247   4.129 -0.1276 -0.0825 -0.3853
20462W        W37310   0.310  10.754  13.292  0.0094 -0.1496  0.0637
20463W        W37311   3.635  17.158  10.380  0.0595 -0.1636  0.0600
20464W        W37312  16.274   1.898  12.640  0.3387 -0.0268 -0.1907
20465W        W37313   8.827   9.510   5.074 -0.1214 -0.1593  0.1460
20466W        W37314  14.416   0.029   4.997 -0.1051 -0.0202  0.2729
20467W        W37315   5.672   2.581  15.823  0.0134  0.1072 -0.0511
20468W        W37316   5.317  15.759  14.984  0.0409  0.1162  0.0671
20469W        W37317   8.269   3.372  16.048 -0.0726  0.2055 -0.0483
20470W        W37318   0.941   5.582   0.065  0.2145  0.1871 -0.2348
20471W        W37319   8.272  11.683   4.497  0.0782  0.1624  0.0768
20472W        W37320  10.426   9.883   4.229  0.0692  0.2528  0.1830
20473W        W37321  10.920   6.769   3.330 -0.0797  0.3273 -0.0890
20474W        W37322   8.939  17.300  12.216  0.0150 -0.0893 -0.4416
20475W        W37323  15.068   6.070  12.098  0.3092 -0.1964  0.0461
20476W        W37324   2.071  11.889   2.038 -0.0012 -0.1224  0.5052
20477W        W37325  14.827   9.884   1.946 -0.2657  0.1647  0.2016
20478W        W37326   8.074   1.358  15.477 -0.1609  0.1305  0.0784
20479W        W37327   3.862   8.952  13.486  0.1615  0.1191 -0.0713
20480W        W37328  10.259  17.639  13.885  0.1435 -0.1582  0.0570
20481W        W37329  16.290   8.010  14.116 -0.1293 -0.0929 -0.0579
20482W        W37330   3.942   5.078  12.842 -0.3748  0.3449 -0.0507
20483W        W37331   6.612  16.047   4.042 -0.1120  0.2634  0.1451
20484W        W37332   2.494   1.228   3.067  0.0756  0.1916  0.1516
20485W        W37333  11.204   9.352   4.891  0.0544  0.2292  0.3040
20486W        W37334  12.516   0.223  15.293 -0.2886 -0.0484  0.0733
20487W        W37335  10.277  15.023   1.309  0.0728 -0.2028  0.2882
20488W        W37336   6.716  17.491   0.647  0.0197  0.0648 -0.0159
20489W        W37337   2.648   8.344   3.418  0.1121 -0.1965  0.1217
20490W        W37338  14.744  14.253  11.564  0.5752  0.0672  0.0143
20491W        W37339   3.758  13.621  14.208 -0.0088 -0.4366 -0.0015
20492W        W37340  15.156  15.153   1.472  0.0743  0.0251  0.3807
20493W        W37341  12.281   2.554  12.266 -0.2324 -0.1243 -0.0511
20494W        W37342   9.007   3.601  13.197  0.1994  0.0005 -0.1337
20495W        W37343  13.150  16.794  12.923  0.0788  0.3106  0.1733
20496W        W37344  12.472   0.261  13.195  0.0645  0.2102 -0.0716
20497W        W37345   1.116  13.396  16.351 -0.0101 -0.1167  0.0739
20498W        W37346   3.834   7.856  12.130  0.1162 -0.0522  0.2814
20499W        W37347  10.989  16.218   4.132  0.0238 -0.1368 -0.1712
20500W        W37348  16.177  14.198  14.014 -0.0738  0.1621 -0.0401
20501W        W37349   0.413  16.287  13.775  0.0242 -0.1098 -0.2471
20502W        W37350   7.067  11.631   3.516 -0.0009 -0.2800 -0.1212
20503W        W37351   4.588   9.640   4.322 -0.0404 -0.0932 -0.2836
20504W        W37352   8.222  17.538   1.712  0.0020 -0.2433  0.0534
20505W        W37353  15.049  11.618   2.877  0.0497  0.1342  0.1254
20506W        W37354  12.886   8.056  12.078 -0.1671 -0.0903  0.3111
20507W        W37355  11.101   5.907   2.938  0.0250 -0.3421  0.2811
20508W        W37356   2.794   7.045  10.526 -0.1290 -0.0213 -0.0099
20509W        W37357  13.327  12.629  14.156  0.2048  0.1410 -0.0362
20510W        W37358  13.063   8.930   1.136  0.1621  0.0459  0.1726
20511W        W37359   1.457   5.386  13.769 -0.2895 -0.1871  0.0684
20512W        W37360  11.999  14.508  14.146 -0.2416 -0.2119 -0.1395
20513W        W37361   0.032   1.416  13.796  0.4271  0.2338 -0.3662
20514W        W37362  10.963  10.469  13.882 -0.1303  0.4443  0.0121
20515W        W37363   2.242   1.274  15.972 -0.2238 -0.2883 -0.2579
20516W        W37364   4.763  15.088   2.299  0.1564  0.0376  0.0607
20517W        W37365  14.090   4.618  12.260 -0.2721 -0.0436 -0.1086
20518W        W37366  15.257   1.833  13.732 -0.1089  0.0781  0.0455
20519W        W37367   8.553   6.014   5.571  0.1715  0.0773 -0.3037
20520W        W37368   1.709  14.871   1.682  0.0391 -0.1060  0.0310
20521W        W37369   9.872   2.506  11.490  0.1526 -0.1496 -0.1898
20522W        W37370   4.026   7.441   6.531  0.1099 -0.0722 -0.0433
20523W        W37371   1.049   9.579  12.424  0.1343  0.1520  0.3488
20524W        W37372  13.566  11.978  10.676  0.1559 -0.0309 -0.0424
20525W        W37373   8.605   3.792  13.463 -0.2100 -0.1476  0.0171
20526W        W37374  17.360  12.285   3.211  0.1373 -0.0447 -0.0203
20527W        W37375  10.576   4.298   1.519 -0.1798  0.0180 -0.1209
20528W        W37376   1.635   1.015  14.960 -0.0823  0.1800 -0.0866
20529W        W37377   0.121  12.398   3.558  0.1694  0.1616 -0.0951
20530W        W37378   4.741   8.306  15.329 -0.1157 -0.0717 -0.1998
20531W        W37379  10.789   4.093   4.530 -0.1047 -0.2916 -0.0098
20532W        W37380   3.457   2.044   4.230 -0.1267 -0.3498 -0.0147
20533W        W37381   3.088  13.170   1.105 -0.0982  0.1981  0.0562
20534W        W37382   2.609   6.126   0.361 -0.1832  0.1258  0.1281
20535W        W37383   9.566   3.272  15.709  0.1203 -0.1314  0.2316
20536W        W37384  11.733   0.534  11.187  0.3996  0.0811  0.0501
20537W        W37385   7.240  15.287   0.632 -0.0919 -0.1232 -0.1265
20538W        W37386  17.508   7.070   3.537 -0.0560  0.3476  0.1069
20539W        W37387   2.605  15.841  16.278 -0.4394 -0.0667 -0.1782
20540W        W37388  16.130   0.427  13.399 -0.0548  0.3313 -0.0097
20541W        W37389  15.049  13.496  13.609  0.0887  0.0078 -0.1570
20542W        W37390   8.602   2.211   3.701 -0.4468  0.0536 -0.0161
20543W        W37391   8.705  11.223   2.380 -0.2217  0.0755 -0.4844
20544W        W37392  14.284   8.317   0.106 -0.0435 -0.3471 -0.0598
20545W        W37393  14.069  12.170   4.339 -0.1614  0.0247 -0.2582
20546W        W37394  17.280  14.229   4.925  0.1034 -0.2422 -0.0260
20547W        W37395   1.391  12.984  14.555  0.1672 -0.2720  0.2161
20548W        W37396   4.174   9.107  12.720 -0.4568  0.1544  0.0994
20549W        W37397   3.907  11.567   4.406 -0.1302 -0.3110 -0.2295
20550W        W37398   4.477   2.768   3.386 -0.0498 -0.1340  0.2188
20551W        W37399  10.846  11.988  15.143  0.2020 -0.3861  0.0065
20552W        W37400  17.638  13.883  12.906 -0.0554 -0.3089  0.0909
20553W        W37401   8.665   1.866  13.542 -0.0696  0.1102 -0.3262
20554W        W37402   2.718   0.508   2.830  0.0386  0.1847 -0.1210
20555W        W37403   5.580  12.448   0.114  0.2162  0.0115  0.2253
20556W        W37404   0.462  14.910  13.666  0.1771  0.2587  0.3441
20557W        W37405  13.665   6.503   5.239  0.1640  0.1896 -0.2084
20558W        W37406   6.833   8.705   3.915 -0.1495 -0.5626 -0.0679
20559W        W37407  11.924   3.291   0.996  0.2039  0.1084  0.0448
20560W        W37408   0.027   6.746   3.624  0.2394 -0.1467 -0.1785
20561W        W37409  15.990   2.285   0.061  0.1547  0.0750  0.0367
20562W        W37410   3.099  10.634   1.210  0.0373 -0.0227  0.0506
20563W        W37411  11.132   5.068  16.229 -0.0648 -0.1104 -0.0692
20564W        W37412   4.361  11.240   1.977  0.1846 -0.0416  0.0659
20565W        W37413   8.521   4.275   2.154  0.1479 -0.2575 -0.0357
20566W        W37414   4.494  14.601   4.384  0.0277 -0.0741  0.0359
20567W        W37415  16.641   5.846  14.870 -0.2459  0.1160 -0.3290
20568W        W37416   3.156  16.266  15.089  0.1622  0.2286 -0.0931
20569W        W37417   9.285   3.673  15.521  0.0682 -0.0440  0.2325
20570W        W37418  16.236  12.637  14.079  0.0926  0.2485 -0.1036
20571W        W37419   0.011   7.342  16.311  0.0280  0.3216  0.2711
20572W        W37420   0.893  13.348  14.438 -0.1719 -0.0410  0.2061
20573W        W37421   0.777  17.768   4.812 -0.0459  0.0398 -0.0214
20574W        W37422  13.442   1.314  11.629  0.2726  0.4419  0.0856
20575W        W37423   8.118   1.937  14.334  0.0947 -0.3389 -0.2131
20576W        W37424   8.671  12.775   0.046 -0.0323  0.0290 -0.1430
20577W        W37425   0.411  17.089  14.868 -0.0336  0.0518  0.2233
20578W        W37426   7.820   0.054   2.786  0.1120 -0.1223 -0.0857
20579W        W37427  12.325  12.992   2.642  0.3501  0.0277 -0.3407
20580W        W37428  13.052   2.612   4.476 -0.2452  0.1049 -0.0496
20581W        W37429  13.202   3.964  12.840  0.0487  0.0221 -0.1380
20582W        W37430   1.450  11.377  15.855  0.0537  0.2372 -0.0085
20583W        W37431  14.729   1.221   3.026 -0.1862  0.0009 -0.0619
20584W        W37432  16.711  10.286   3.434 -0.0648 -0.0456  0.0176
20585W        W37433   0.455   6.123   3.941  0.0600  0.2053 -0.0642
20586W        W37434  12.832   0.146   1.790  0.1231  0.1372  0.0119
20587W        W37435   2.468  13.293  11.494  0.1334 -0.0656  0.2243
20588W        W37436   8.701   8.303   0.229  0.1486 -0.0268  0.2434
20589W        W37437  12.079  16.236  16.389 -0.0041  0.0191 -0.1768
20590W        W37438   8.682   7.476  11.853  0.0909 -0.1201 -0.0126
20591W        W37439   6.787   3.152   1.618  0.0178  0.1449 -0.0933
20592W        W37440  11.011  17.695  13.314 -0.0331  0.2013  0.3049
20593W        W37441  16.170  12.569  15.746  0.0538  0.0104 -0.2190
20594W        W37442  11.668   3.451   0.562  0.1034 -0.0319 -0.2972
20595W        W37443   7.671  10.264  12.552  0.0435  0.3375  0.3236
20596W        W37444   5.107   6.719   5.153  0.1543 -0.2519 -0.0994
20597W        W37445   0.997   6.267  11.121  0.0279  0.0816 -0.4445
20598W        W37446   8.774   3.898   0.869 -0.1118 -0.0816  0.2044
20599W        W37447   6.596  10.211  15.283 -0.5160 -0.2185 -0.1495
20600W        W37448  13.595  16.510  16.423  0.1841  0.2134 -0.2478
20601W        W37449   3.824  15.820  14.828 -0.1484  0.2552  0.1112
20602W        W37450   8.397   1.333   3.021 -0.0693 -0.2235 -0.1594
20603W        W37451   8.330   1.132   4.612 -0.2878  0.0223 -0.0920
20604W        W37452  14.728   2.185  13.195  0.1195  0.2293  0.0288
20605W        W37453   9.128  16.036   0.972 -0.4172 -0.2194 -0.0344
20606W        W37454   2.038   6.651   2.997 -0.2837 -0.1889 -0.3479
20607W        W37455  12.792  14.880  13.656  0.2955  0.1356 -0.0069
20608W        W37456   1.615  15.881   4.087 -0.1877 -0.2377 -0.0203
20609W        W37457   9.902  10.491  13.291  0.1152 -0.3694 -0.1280
20610W        W37458  11.671   0.130  14.066  0.1706  0.2808  0.1681
20611W        W37459   5.458  12.157  15.525 -0.1118 -0.1597  0.0548
20612W        W37460   2.997  16.802  12.891  0.2643 -0.2364 -0.0471
20613W        W37461   0.045   4.926  11.308  0.0677 -0.4475 -0.2385
20614W        W37462  11.356  11.615  15.231  0.1347  0.0373  0.1930
20615W        W37463  13.124   1.242   0.261 -0.0453  0.0987 -0.1788
20616W        W37464   6.667   5.792   0.796  0.0625  0.0022  0.2507
20617W        W37465  13.641  11.375   1.035 -0.1449 -0.1209  0.1952
20618W        W37466  11.936  17.708   3.389 -0.1663  0.0684 -0.0848
20619W        W37467  16.377  10.559  13.588 -0.1614 -0.1776  0.3640
20620W        W37468  13.244  13.781  15.168 -0.1836  0.0046 -0.1078
20621W        W37469   4.077   2.173  11.229 -0.3084  0.0506 -0.0693
20622W        W37470   8.467   9.411   3.497  0.0123  0.2192 -0.2966
20623W        W37471  16.378  12.977   1.319  0.1404  0.0247 -0.0927
20624W        W37472   0.643   1.443  12.774  0.1370 -0.1776 -0.0221
20625W        W37473  13.447  17.466  11.805  0.0158  0.0212 -0.2289
20626W        W37474   4.029   1.753  12.758 -0.1139  0.0109 -0.0362
20627W        W37475   3.040   7.062  14.582  0.0417 -0.2017  0.1774
20628W        W37476  16.355  16.069  11.246 -0.1596 -0.0632 -0.0681
20629W        W37477   7.503  15.146   3.736  0.0700 -0.1052  0.0417
20630W        W37478   8.556  13.874  13.976  0.0236  0.0944 -0.1061
20631W        W37479   6.127  10.927  13.640  0.0074  0.0481 -0.0477
20632W        W37480   9.886   5.701  12.802 -0.5126  0.0598  0.0435
20633W        W37481   1.810  14.279   5.283  0.0281  0.1850 -0.0874
20634W        W37482  12.508  17.365  14.154  0.0482 -0.0734 -0.0741
20635W        W37483   3.995   3.304  16.467  0.3796  0.1312 -0.2915
20636W        W37484   0.534  12.266   1.886 -0.0972  0.0636  0.0014
20637W        W37485  11.687   2.641  12.316  0.4233 -0.1316  0.1523
20638W        W37486  13.326  16.451   3.898 -0.2165  0.1525  0.1758
20639W        W37487  11.647  11.115   0.984  0.1536 -0.0794 -0.0263
20640W        W37488  11.557   3.776   0.994 -0.1589 -0.0248  0.0278
20641W        W37489   9.123   1.396   4.398  0.3688  0.1787  0.3117
20642W        W37490   4.836  16.385  14.547 -0.1195  0.1441 -0.0003
20643W        W37491  15.233   7.604  12.338  0.1497  0.0151 -0.1687
20644W        W37492   3.769  10.433   0.163  0.0499 -0.0155  0.1912
20645W        W37493   7.851   9.797  15.171  0.0889 -0.3001 -0.2507
20646W        W37494   5.669  11.780  15.312  0.0488 -0.0355 -0.1003
20647W        W37495  10.810   7.930   3.617  0.1036  0.1199  0.1220
20648W        W37496   5.258  15.334   1.559 -0.1969 -0.0175 -0.1547
20649W        W37497   9.129   2.378  13.511  0.1610  0.2590 -0.2170
20650W        W37498  10.572   6.136   1.435 -0.0281  0.0000  0.0746
20651W        W37499  13.610  14.710   3.232  0.0944 -0.4110 -0.2289
20652W        W37500  14.584  14.080   2.271 -0.0274  0.0342 -0.0687
20653W        W37501   7.394  10.543  14.946  0.1954  0.1557 -0.3583
20654W        W37502   2.553   3.633   0.828 -0.0093  0.0725 -0.1573
20655W        W37503   1.534   1.074   6.061 -0.0883 -0.0857 -0.0401
20656W        W37504   7.645   8.996  14.575 -0.2355  0.0701  0.1011
20657W        W37505   0.210   3.165   0.935  0.3927  0.1592  0.3315
20658W        W37506   7.104  15.739   4.305 -0.1091 -0.0217  0.0110
20659W        W37507   8.259   1.550   2.143 -0.0374  0.2747  0.0166
20660W        W37508  15.227  11.768  15.327 -0.0363 -0.3515 -0.1899
20661W        W37509   8.844   2.760  15.400  0.1098  0.0983 -0.1252
20662W        W37510  17.850  17.082  10.805  0.0393  0.0956  0.4021
20663W        W37511   1.582   1.368   4.583 -0.1293 -0.0744  0.1897
20664W        W37512   9.309   3.623  12.810  0.2754 -0.1187 -0.0672
20665W        W37513  11.697   3.256   6.031 -0.0751  0.1948 -0.1171
20666W        W37514   1.001   7.708   2.575  0.1407 -0.0552 -0.0040
20667W        W37515   1.486  11.434  15.205  0.1142 -0.0274 -0.1208
20668W        W37516   6.938   9.365  12.946 -0.0278  0.4027 -0.0276
20669W        W37517   3.538   0.853   0.612 -0.1410  0.0061  0.1004
20670W        W37518   6.669  15.670  11.569 -0.0590  0.1028 -0.1718
20671W        W37519   5.054  17.213   0.106 -0.3167 -0.5904  0.2137
20672W        W37520  17.019  13.987  15.769  0.0429  0.3673 -0.0389
20673W        W37521   5.253   0.481  12.846  0.0468 -0.0603 -0.2998
20674W        W37522  12.019   2.221   3.348 -0.2174  0.1493 -0.1812
20675W        W37523  13.363  10.491   2.395  0.1557 -0.0767 -0.1150
20676W        W37524   1.620   0.366   4.821  0.0025 -0.1364  0.1079
20677W        W37525   1.997  14.963   2.030 -0.1344  0.1059  0.1147
20678W        W37526   1.173   5.011   5.285 -0.2705 -0.1849 -0.0354
20679W        W37527   3.484   2.882  10.551 -0.1213  0.0694  0.0403
20680W        W37528   2.752   4.251  13.759  0.0374 -0.0970 -0.0731
20681W        W37529  13.903  13.887   5.779  0.1052  0.1674  0.1118
20682W        W37530   5.799  10.459   2.661  0.2810  0.0298 -0.1025
20683W        W37531   4.270   6.221   2.423 -0.0926 -0.0788 -0.1173
20684W        W37532   4.338  16.815   4.258 -0.1254 -0.2170 -0.0596
20685W        W37533   2.313   0.615   0.913  0.0310 -0.1373 -0.1342
20686W        W37534   7.310   9.955   2.868  0.0208  0.0115  0.0724
20687W        W37535   7.443  10.930   4.337 -0.4728 -0.0377 -0.0257
20688W        W37536  10.361  17.408  11.521  0.0058 -0.1592 -0.1623
20689W        W37537  11.681  15.740  14.774 -0.0933 -0.1062 -0.2833
20690W        W37538   4.444  10.408  13.301 -0.0606  0.2038  0.4731
20691W        W37539  17.404   7.270   0.930  0.1752  0.0437 -0.0946
20692W        W37540  16.550  13.676  13.183  0.0638  0.0921  0.0383
20693W        W37541  12.142   8.339   2.700  0.0325 -0.1709  0.3563
20694W        W37542  14.418   4.956  15.546 -0.1441 -0.0587 -0.1688
20695W        W37543   3.462   3.851   2.075  0.2304  0.2350  0.0761
20696W        W37544  14.008   5.288  15.034 -0.0235  0.3832  0.1920
20697W        W37545   8.679  14.324  13.155 -0.0434 -0.3294 -0.1115
20698W        W37546   4.125  12.283   0.529  0.0273 -0.0672 -0.0786
20699W        W37547   9.432   7.434   3.041 -0.1861 -0.0663  0.1258
20700W        W37548  15.475  15.758  11.408  0.2995  0.1947 -0.1188
20701W        W37549  16.180  16.237   4.716 -0.2320 -0.1396  0.0525
20702W        W37550  14.759  16.196  11.370 -0.2318  0.1386 -0.0123
20703W        W37551   7.307   7.692  15.476  0.0590 -0.0226 -0.1229
20704W        W37552  15.465   3.056  10.338  0.2656  0.1712 -0.3596
20705W        W37553  13.629  16.450  14.586 -0.0866  0.0928  0.0799
20706W        W37554  14.388  12.339  14.235  0.0528 -0.0222  0.0906
20707W        W37555  16.058   7.500  11.888 -0.0434 -0.3686 -0.0306
20708W        W37556   7.483  12.264   0.090  0.0698 -0.1009 -0.2875
20709W        W37557   6.826  17.120   3.600  0.0699 -0.1987 -0.0807
20710W        W37558   3.488  12.833   5.190 -0.1578  0.1591 -0.0248
20711W        W37559   5.633  14.372   2.286 -0.0314  0.0063 -0.2319
20712W        W37560   7.729  17.654  13.576 -0.0172  0.2812 -0.1820
20713W        W37561  12.516  17.261  12.814 -0.1292  0.3957  0.0986
20714W        W37562   2.463  11.908  11.301  0.1323 -0.1513 -0.1660
20715W        W37563   7.462   4.276  12.370 -0.0657 -0.0461 -0.0491
20716W        W37564  15.167   4.890  15.917 -0.4366 -0.2574  0.0696
20717W        W37565  14.614  17.629  15.268 -0.2079  0.2484  0.3738
20718W        W37566   1.417  16.529  15.913 -0.0336 -0.2371  0.3370
20719W        W37567   1.827   7.097   2.370 -0.1838  0.4154  0.2711
20720W        W37568   9.195  17.012  14.633 -0.1103  0.1661 -0.2741
20721W        W37569   9.273  14.392   1.989 -0.0171  0.2917  0.3088
20722W        W37570   2.888  14.029  14.788 -0.2092 -0.0394 -0.3487
20723W        W37571  16.487   8.502   1.968  0.3179 -0.1229 -0.1403
20724W        W37572   4.114  11.374  11.806  0.1887 -0.0168  0.0494
20725W        W37573   8.953  16.839   1.814 -0.0224 -0.0062 -0.1120
20726W        W37574   7.562   1.951   1.780  0.3769  0.2975 -0.3980
20727W        W37575  12.416  13.910   3.135  0.0621  0.1300 -0.0604
20728W        W37576  14.149   1.929  14.054  0.1880 -0.1139  0.0854
20729W        W37577  16.625   9.356  15.066 -0.3863  0.0148 -0.0516
20730W        W37578   5.840  17.695  15.157 -0.0129 -0.5114  0.0113
20731W        W37579  12.980   5.224  12.817  0.1123  0.0796 -0.2516
20732W        W37580  12.592  10.043  15.008 -0.2877  0.2927  0.1091
20733W        W37581  16.818  15.853  13.434 -0.0847 -0.3746 -0.0983
20734W        W37582   0.190   8.181  14.583 -0.0871  0.1709  0.1614
20735W        W37583  10.704  15.630   2.516  0.1325  0.3195 -0.0657
20736W        W37584   1.552   0.469   4.261  0.1278  0.2929 -0.1256
20737W        W37585  14.503   7.951  11.262  0.1102  0.2128  0.0498
20738W        W37586   0.632  14.698  11.750 -0.1717 -0.0593 -0.0268
20739W        W37587   5.492   6.823  13.523  0.2700 -0.0920  0.2598
20740W        W37588  10.740   8.415  14.892  0.1752  0.0186  0.2190
20741W        W37589   6.015  10.410  15.954  0.0558 -0.1482  0.1713
20742W        W37590   5.287  16.173   0.854 -0.2119  0.0943 -0.0296
20743W        W37591   6.886   2.116  15.170  0.1504 -0.0230 -0.2427
20744W        W37592  10.710  15.983  13.711  0.1491  0.2553 -0.0208
20745W        W37593  10.985   9.225  15.889 -0.1490  0.1542 -0.1777
20746W        W37594  13.307  15.189   1.150  0.0375  0.3735 -0.1153
20747W        W37595  10.995  17.588   2.177 -0.0682  0.1226 -0.0839
20748W        W37596  12.667   8.787   0.607  0.2270  0.1641  0.1499
20749W        W37597  14.595   3.259   0.115  0.2595  0.0440  0.1694
20750W        W37598   8.376   0.877  12.488  0.1362  0.0128 -0.1814
20751W        W37599   1.627   7.125  15.694 -0.2435 -0.0294  0.3208
20752W        W37600   7.978   4.512   1.710 -0.0710 -0.2234  0.4343
20753W        W37601  14.813  13.517   2.054  0.1807  0.0218  0.0093
20754W        W37602   0.182   2.436  14.782 -0.1667 -0.2510  0.2769
20755W        W37603  13.392  10.822   2.787 -0.1019 -0.0213  0.0856
20756W        W37604   2.565  13.992   3.884  0.1911 -0.0775  0.2126
20757W        W37605  15.756   4.634   3.440 -0.0668  0.1373 -0.1725
20758W        W37606   1.054   0.089  15.952 -0.2708 -0.0362  0.0987
20759W        W37607  12.780   7.817  13.326  0.0577 -0.0649  0.0053
20760W        W37608   5.838  10.098  14.916 -0.1094  0.1558  0.0403
20761W        W37609  14.103  14.591  10.131 -0.0129 -0.1055  0.0132
20762W        W37610  15.781   8.681   5.255 -0.1954 -0.1049  0.0770
20763W        W37611  16.998  12.380   0.911 -0.3856  0.1052  0.1287
20764W        W37612  15.060   3.253   1.108 -0.0010  0.0265  0.2172
20765W        W37613   4.146  13.832  10.460 -0.0277 -0.1705 -0.2500
20766W        W37614  15.503   0.622  12.810  0.0973  0.0924 -0.2525
20767W        W37615  14.061   1.315   2.262  0.1765  0.0050 -0.0233
20768W        W37616   3.137  11.575  15.159 -0.0811  0.3862 -0.0745
20769W        W37617   2.153  17.743  15.441  0.1521  0.1806  0.1428
20770W        W37618  11.564   2.640   4.765 -0.2600  0.0817 -0.0990
20771W        W37619   8.399   4.848  12.141 -0.1719  0.0075 -0.1884
20772W        W37620   0.108   8.766  14.354 -0.2974 -0.2125 -0.3498
20773W        W37621   4.784  12.403  11.400 -0.1013  0.3836  0.1862
20774W        W37622  16.942  10.958  15.479 -0.2155 -0.0047 -0.1516
20775W        W37623   7.278  11.050  14.949 -0.1644 -0.2483 -0.0245
20776W        W37624   2.399  13.520  13.543  0.0064  0.1057  0.0787
20777W        W37625  16.856   7.793   0.285  0.1762  0.0317  0.1100
20778W        W37626   7.955  17.209   2.101 -0.0930  0.0565  0.0526
20779W        W37627  10.464  15.200   4.415  0.0498  0.1069  0.1119
20780W        W37628  12.822  17.520  13.818 -0.1345 -0.1868  0.2086
20781W        W37629   7.328   6.339   0.061  0.0654  0.2517 -0.3324
20782W        W37630   3.514  15.454   4.928 -0.1065  0.0613  0.1787
20783W        W37631  11.991   6.929  14.120  0.0025 -0.0528  0.1249
20784W        W37632  12.025  15.490  11.714 -0.3364  0.2033 -0.1928
20785W        W37633  14.231   5.006   2.741 -0.2221  0.0693 -0.0536
20786W        W37634   5.748  10.915  12.572  0.0497  0.0208 -0.1030
20787W        W37635  16.088   6.512  15.715 -0.1480  0.1965  0.1154
20788W        W37636  12.888   9.179   2.135 -0.0722  0.2704  0.0690
20789W        W37637   6.277   3.389   1.222  0.1159  0.2365  0.1190
20790W        W37638  13.837  16.043  11.287 -0.0643 -0.0111 -0.0025
20791W        W37639   8.455   4.675   0.152  0.0055 -0.1580  0.1187
20792W        W37640   5.853  17.402   3.311  0.1323  0.1046  0.3692
20793W        W37641   8.485   5.829   0.558 -0.0963  0.1924 -0.3341
20794W        W37642  11.459   6.420   5.927  0.0666  0.0457 -0.2478
20795W        W37643  12.097  12.441  16.246  0.1334  0.1283 -0.0129
20796W        W37644  10.565   0.890  12.758 -0.1719  0.2835  0.4257
20797W        W37645   7.317   4.070   5.353  0.0925 -0.0541 -0.0279
20798W        W37646   7.979   9.402  13.248 -0.0817  0.0769  0.2062
20799W        W37647   1.981   0.160   3.024  0.2748  0.1916 -0.0878
20800W        W37648   1.918  12.074   4.919 -0.1964 -0.0281  0.0205
20801W        W37649   4.034  16.240   0.783  0.1109 -0.0459  0.1583
20802W        W37650   9.347   2.984   2.105  0.2599  0.3260  0.1929
20803W        W37651   4.458   3.318   1.495  0.0447  0.1737  0.0125
20804W        W37652  16.365   4.502   5.514  0.0625  0.0027 -0.0481
20805W        W37653   2.564  17.451  15.109 -0.2006  0.2228  0.0370
20806W        W37654  17.190  11.795  14.344 -0.2302  0.1370 -0.2215
20807W        W37655   8.018  13.051   4.556  0.4602 -0.1225  0.1114
20808W        W37656   4.988  10.732   2.977  0.0535 -0.0406 -0.0323
20809W        W37657   4.867   3.172   5.169 -0.1921 -0.1778  0.0243
20810W        W37658  13.706   5.504  13.850  0.0675  0.0443  0.0336
20811W        W37659   1.834  16.583  13.624  0.1686 -0.1040  0.0101
20812W        W37660  16.207  11.159  11.775 -0.0032 -0.0661  0.4183
20813W        W37661   0.102  15.801  12.241  0.3302  0.4851  0.0805
20814W        W37662  13.250  17.062   0.767  0.0169 -0.3626  0.0221
20815W        W37663   0.465   8.551   4.796  0.3167 -0.0973 -0.1163
20816W        W37664  14.265   6.819  13.179  0.0577 -0.4618 -0.1602
20817W        W37665  16.289   0.332   0.565 -0.0823  0.0696 -0.1184
20818W        W37666   2.593   3.588   0.309  0.0363  0.1797  0.0742
20819W        W37667  12.176  15.918  16.000 -0.3402  0.4278  0.1710
20820W        W37668  14.769  17.478  12.097 -0.2359 -0.1966  0.3761
20821W        W37669  10.047  12.223  15.890 -0.1892 -0.2270 -0.1720
20822W        W37670  17.579   0.766   1.078 -0.1001 -0.0733 -0.0160
20823W        W37671   1.165  12.469   0.806  0.0144  0.2254  0.1738
20824W        W37672   3.719   2.915   0.180  0.1168 -0.0406 -0.0071
20825W        W37673   0.940   6.538  12.085  0.0429  0.0623 -0.0467
20826W        W37674  11.389   5.414   3.095 -0.0482 -0.1968  0.0213
20827W        W37675  10.031  11.635  16.189  0.0613 -0.1288 -0.0266
20828W        W37676   5.955   8.387  11.992 -0.0437  0.0943 -0.1343
20829W        W37677   6.601   5.095  14.439 -0.0247 -0.0285 -0.1159
20830W        W37678  15.757   4.608  14.205 -0.0816  0.2116  0.0142
20831W        W37679   6.639   2.477   2.880  0.4358 -0.1573 -0.0261
20832W        W37680   0.448   6.366  16.400  0.0568  0.4467  0.0502
20833W        W37681   3.636  14.562   1.173  0.0973  0.1600  0.0274
20834W        W37682  15.449   0.969  11.950 -0.0384  0.0826 -0.3530
20835W        W37683  15.929   2.822   2.341 -0.0249  0.1074 -0.0030
20836W        W37684  10.540  17.066  12.156 -0.0611  0.1059  0.2197
20837W        W37685   7.776   3.789   0.069  0.0661  0.2435 -0.0535
20838W        W37686   4.042  16.812  14.680  0.0102 -0.1541 -0.1312
20839W        W37687   9.101   7.909   0.268  0.0047 -0.0827  0.2632
20840W        W37688  12.936   9.690  13.161 -0.0812  0.1780 -0.0651
20841W        W37689  15.668   0.734   2.814 -0.0627 -0.0092  0.1393
20842W        W37690  11.293  10.680  14.788  0.2220 -0.1810  0.0382
20843W        W37691  12.935   4.309  14.688 -0.1049  0.0053  0.0857
20844W        W37692   2.623   0.509  15.532 -0.1290 -0.3112 -0.0067
20845W        W37693  11.678   2.957  16.243  0.1313 -0.1676  0.1000
20846W        W37694   9.255   5.400  12.486 -0.0786  0.1409  0.2575
20847W        W37695  12.328  14.805  13.949 -0.0725  0.1422 -0.0363
20848W        W37696   9.796  14.218   1.006 -0.1521  0.0388  0.0980
20849W        W37697   9.071  12.205   5.088  0.1029  0.0611 -0.0148
20850W        W37698   1.872  11.189   2.014 -0.0915  0.3653 -0.1078
20851W        W37699   5.401   1.350   1.452 -0.0870 -0.1556 -0.0369
20852W        W37700  12.109   6.105   4.164 -0.0012 -0.1181 -0.1360
20853W        W37701   7.406  16.155  13.251 -0.0958  0.0456  0.0962
20854W        W37702  17.733  13.393  12.573 -0.1053  0.3839 -0.1342
20855W        W37703  11.014   2.466  12.370  0.0075 -0.0650 -0.0309
20856W        W37704   3.404  17.485  13.794 -0.0549 -0.0647 -0.0916
20857W        W37705   4.084  11.321   1.358  0.0018  0.0746  0.2936
20858W        W37706   3.360  11.186   2.168  0.2541  0.1251 -0.0266
20859W        W37707   4.969   8.175   4.383  0.1110  0.0338 -0.1413
20860W        W37708   0.049  12.207  13.082  0.0579 -0.0416 -0.0402
20861W        W37709  16.663   3.000   0.926  0.0140  0.1144  0.1215
20862W        W37710   6.432  13.959  14.150 -0.0941 -0.1137  0.0844
20863W        W37711  17.691   1.520  14.727 -0.1926 -0.1761  0.1245
20864W        W37712   4.652   2.287  16.377  0.1444  0.0098  0.0509
20865W        W37713  15.468  13.226  15.640 -0.2208  0.0321 -0.1883
20866W        W37714  17.836  10.870  12.922  0.0566  0.3039 -0.1170
20867W        W37715  17.280   2.269  15.825  0.1547  0.0704  0.1315
20868W        W37716   8.851   0.284   1.260 -0.1908 -0.0281 -0.2418
20869W        W37717   2.629   8.960   4.070 -0.2724 -0.0992  0.1444
20870W        W37718   1.828   9.731   0.824  0.0031  0.0858 -0.3730
20871W        W37719   2.485   9.178  13.870  0.0887  0.0432  0.0666
20872W        W37720   4.773   4.345   3.571  0.1785 -0.0539 -0.0561
20873W        W37721   4.622   7.970   0.382  0.1126 -0.0563  0.3954
20874W        W37722   6.053  13.553  15.942  0.1573  0.1281  0.0214
20875W        W37723  14.561   4.385   5.739  0.0249 -0.1190  0.3833
20876W        W37724  15.840  10.213  12.494 -0.3582  0.0573  0.2075
20877W        W37725   5.113  14.386   1.882  0.1975 -0.3026 -0.0794
20878W        W37726   4.181  14.496   1.298  0.1900  0.1123 -0.3644
20879W        W37727  12.000  16.775   3.038 -0.0189 -0.0059  0.0307
20880W        W37728   1.521   5.516  11.749  0.2198  0.1713  0.1975
20881W        W37729   9.273   4.269   0.214  0.1176 -0.1701 -0.2399
20882W        W37730   8.900  12.193  13.387 -0.5056  0.0757 -0.2824
20883W        W37731   9.971   3.196   5.215 -0.1526  0.1312 -0.2505
20884W        W37732   5.021  10.300  12.614  0.0116 -0.3148  0.1484
20885W        W37733  12.890   8.198  16.305 -0.0754  0.1136 -0.2144
20886W        W37734  16.303   3.235   3.110 -0.0513  0.4450  0.0358
20887W        W37735   8.761   7.334  13.080  0.1557  0.1238 -0.1859
20888W        W37736   7.705   8.510  12.565 -0.3648 -0.1373  0.1451
20889W        W37737   4.054   5.238   4.491 -0.1105 -0.2254  0.1571
20890W        W37738   1.950   1.875  13.018 -0.2996 -0.0582  0.2969
20891W        W37739  11.995   5.176  11.263  0.2301 -0.1082 -0.2453
20892W        W37740   8.023   2.374  15.325  0.0918 -0.3101 -0.4046
20893W        W37741  13.702  15.481  14.288  0.1306  0.3334 -0.0118
20894W        W37742  15.114   2.812  14.015 -0.0625  0.0373  0.1553
20895W        W37743   5.505   1.328   2.034  0.0527  0.1204 -0.1055
20896W        W37744  16.476   1.079  16.460 -0.0871 -0.3337 -0.0221
20897W        W37745   2.791  14.269   2.452  0.2200 -0.1148 -0.0783
20898W        W37746   8.749  12.500  15.099  0.1140  0.0400 -0.1072
20899W        W37747   5.255  10.824   2.075  0.2231  0.1426  0.1542
20900W        W37748  17.820   4.361  12.697 -0.0908  0.0471 -0.2586
20901W        W37749   8.928   2.818  13.726  0.1211 -0.1942  0.1039
20902W        W37750   4.510   4.695  16.464  0.1464 -0.2370 -0.0347
20903W        W37751   0.194   5.400  13.872  0.3224 -0.0907  0.1008
20904W        W37752  12.062  15.236  13.271 -0.1154  0.1186 -0.1633
20905W        W37753   8.584  16.473   4.615 -0.0825  0.1916  0.3111
20906W        W37754   3.222   4.276   1.888  0.0164  0.1081  0.2821
20907W        W37755   4.397   0.304   3.324  0.2559 -0.1076  0.0507
20908W        W37756  15.808   8.523   0.748  0.0369  0.2582 -0.3408
20909W        W37757  13.903  10.379   4.977  0.1861  0.2593  0.0983
20910W        W37758   5.967   8.026  14.185 -0.0152  0.1369 -0.2066
20911W        W37759   0.970  14.549  12.799 -0.2353 -0.0242 -0.0349
20912W        W37760  16.358  17.445   1.921 -0.2037 -0.3249  0.0052
20913W        W37761  14.459  15.533   3.381  0.1134  0.1934 -0.1379
20914W        W37762  15.006   8.529   3.934 -0.1223  0.2722 -0.0997
20915W        W37763   7.240   3.827   3.036 -0.3324  0.0113  0.0336
20916W        W37764   7.448  13.796  15.225  0.0248 -0.1210  0.1798
20917W        W37765   0.345   7.888   2.760 -0.2031 -0.0463 -0.1695
20918W        W37766   4.435  10.137  14.266  0.1265 -0.1095  0.0502
20919W        W37767   6.544   2.483  13.088 -0.2748 -0.0448 -0.1222
20920W        W37768  13.963   6.668   0.134 -0.2709 -0.2011 -0.2198
20921W        W37769   4.311  10.510   3.877  0.0149 -0.0606 -0.0484
20922W        W37770   2.497   5.189  12.044  0.1811  0.0524 -0.0864
20923W        W37771   4.481   2.845  14.764 -0.0878 -0.3403  0.1314
20924W        W37772   5.057   9.848   2.336 -0.0962 -0.0604  0.0028
20925W        W37773   0.293   1.533  13.105  0.2961 -0.0966 -0.0685
20926W        W37774   6.009   4.656  15.252 -0.1763  0.1828 -0.0983
20927W        W37775   3.947   2.492   2.609 -0.1475 -0.2890  0.1129
20928W        W37776  11.719   3.293  13.143 -0.1409 -0.3487  0.2192
20929W        W37777   6.001  14.812  15.278  0.0563  0.0162 -0.3407
20930W        W37778   5.347   9.091   2.908  0.1191  0.0043 -0.0155
20931W        W37779   7.042  13.363   3.720  0.1232 -0.2627  0.3939
20932W        W37780   2.463   1.999  12.065  0.2844  0.1616  0.0453
20933W        W37781  15.170   1.562   3.757  0.0023  0.0133  0.2633
20934W        W37782  16.438   9.555  14.071  0.1865  0.1824  0.1554
20935W        W37783   5.929   5.732  13.032  0.0651  0.0043 -0.3821
20936W        W37784   9.151  15.867  12.354 -0.3323  0.0735 -0.0011
20937W        W37785   5.956  17.604   2.858  0.0539  0.1043 -0.3807
20938W        W37786  13.171  13.039  11.441  0.0585 -0.3052  0.0845
20939W        W37787   4.533   1.287  16.143  0.0713  0.2772  0.0567
20940W        W37788   3.393  17.870  12.063 -0.2932  0.1657 -0.2104
20941W        W37789  13.927  12.761   4.719  0.2103  0.0857  0.0696
20942W        W37790  16.207   3.769   1.870  0.1294  0.2064 -0.3766
20943W        W37791   0.406  16.697  12.163  0.3167  0.1873 -0.1808
20944W        W37792   9.089  11.490   3.857 -0.3491  0.1721 -0.2884
20945W        W37793  15.734   3.664   0.464 -0.1802 -0.2139  0.2758
20946W        W37794   9.955  10.783  15.925 -0.1744  0.0933  0.0609
20947W        W37795  15.724  13.169   4.569  0.0549 -0.1281 -0.1254
20948W        W37796  13.678   5.010   4.954 -0.0456  0.1949  0.0222
20949W        W37797  16.968   0.130   2.282  0.1316 -0.1248  0.2433
20950W        W37798   3.687  12.580   0.587  0.1339 -0.2936  0.0851
20951W        W37799  11.867   3.803   1.419 -0.4430 -0.1656 -0.1194
20952W        W37800   2.069  14.445  14.321  0.2333  0.0487  0.0055
20953W        W37801  11.935   4.079  14.659  0.1407  0.1525 -0.0526
20954W        W37802  10.409   7.258  16.081 -0.0921  0.0394  0.3101
20955W        W37803   6.987  17.300   2.939 -0.0018 -0.1929  0.2332
20956W        W37804  16.838   9.541  14.466 -0.1688 -0.1073  0.1997
20957W        W37805   1.196  14.247  12.396  0.3821 -0.0934 -0.0742
20958W        W37806   5.797   7.668   0.840  0.0218 -0.2943  0.1656
20959W        W37807  16.322  17.418  13.753  0.1331 -0.0613  0.1286
20960W        W37808   7.702   8.809  15.790  0.2447 -0.0178 -0.3295
20961W        W37809   7.869  17.869   1.850 -0.1437 -0.2172 -0.0532
20962W        W37810  16.005   2.145   3.037 -0.0390  0.0865  0.2470
20963W        W37811  13.638   8.222   4.627  0.0816 -0.0169 -0.1960
20964W        W37812   5.259   4.421   2.523  0.1681  0.1824  0.3469
20965W        W37813   3.496  16.248  14.577  0.0086 -0.0463  0.2694
20966W        W37814  13.837  14.404  14.350 -0.0321 -0.2699  0.0966
20967W        W37815  12.417  10.811   5.551  0.3174 -0.0184 -0.2463
20968W        W37816   4.430  10.402   1.207 -0.1759  0.0388  0.0300
20969W        W37817  15.656  13.845  15.376  0.3937  0.0669  0.2520
20970W        W37818   4.522   4.198  11.671  0.3259 -0.3114 -0.2482
20971W        W37819  17.211   6.430  12.510 -0.1109  0.2426 -0.0235
20972W        W37820  17.437   6.945  12.018  0.3425 -0.2988 -0.0446
20973W        W37821  10.354   3.966   0.662 -0.0587 -0.2506 -0.1272
20974W        W37822  11.347   6.435  13.784 -0.1303 -0.1336 -0.0572
20975W        W37823   1.728   7.828  14.522 -0.1895 -0.1042 -0.2320
20976W        W37824  14.048  12.962   3.313  0.2764  0.4513  0.4962
20977W        W37825   3.089  15.798  15.937 -0.2403 -0.1292 -0.3023
20978W        W37826  12.799   9.942  11.415  0.0327  0.2041  0.4666
20979W        W37827  15.397  14.664   3.309 -0.0032  0.0048  0.0854
20980W        W37828   0.387  12.695   4.370  0.0493 -0.0480 -0.1723
20981W        W37829  17.699   8.742  15.343  0.2220  0.2878  0.2509
20982W        W37830   7.519  16.802  15.974  0.1210 -0.1849  0.4967
20983W        W37831   4.861  16.803   0.507 -0.0749  0.0824  0.0701
20984W        W37832  10.425   4.598  12.051  0.2741 -0.0028  0.0667
20985W        W37833   8.548   2.565  11.914 -0.1097 -0.0098 -0.0612
20986W        W37834   6.084   9.062  14.981  0.0169 -0.0234  0.1157
20987W        W37835  15.086   7.589  11.766  0.0426 -0.0622 -0.0372
20988W        W37836   9.023   1.146  13.660  0.1517 -0.1323 -0.3092
20989W        W37837  17.265   9.377  12.346  0.3228 -0.3499  0.3671
20990W        W37838  17.852  17.222   0.637 -0.0087  0.2274 -0.0881
20991W        W37839  16.838  16.791  11.721 -0.2560 -0.1502  0.1188
20992W        W37840  14.449   2.851  11.832  0.2117  0.1285  0.2648
20993W        W37841  16.575  12.833  15.708  0.0795  0.3306  0.2498
20994W        W37842  12.741   1.847  14.812  0.1451 -0.3241  0.1261
20995W        W37843   3.207   0.472   1.794 -0.3323 -0.2362 -0.0574
20996W        W37844  10.145  11.705  13.487 -0.2388 -0.0925 -0.2154
20997W        W37845  12.035  11.379  13.052 -0.0273 -0.1552  0.1785
20998W        W37846   9.042   2.337   3.529  0.1201 -0.2127  0.0060
20999W        W37847  15.469  13.946  14.142 -0.1946 -0.0271 -0.1016
21000W        W37848   3.798  17.093  13.816 -0.2385  0.0369  0.0789
21001W        W37849   2.612   8.609  11.881 -0.2272  0.1069  0.0229
21002W        W37850   3.433  13.289   5.110  0.2217 -0.1214  0.0467
21003W        W37851  16.856   3.398   2.565  0.1093 -0.0084 -0.2773
21004W        W37852   8.388   2.928  14.635  0.0054  0.0422 -0.0488
21005W        W37853  12.033   2.526   0.027 -0.0667  0.2094  0.0846
21006W        W37854   1.929  10.707   3.617 -0.2946 -0.0254 -0.1983
21007W        W37855   6.537  12.455  14.527 -0.0099  0.3886 -0.0325
21008W        W37856   0.596  16.119  15.393 -0.1100  0.4182  0.3674
21009W        W37857  14.812   6.795  13.333 -0.2915 -0.0120  0.1255
21010W        W37858  16.828   0.490   4.831  0.0175 -0.0404  0.1589
21011W        W37859   0.905   5.855   0.454  0.0789  0.0517 -0.4148
21012W        W37860   1.790   0.315   2.488 -0.0849 -0.1901  0.0434
21013W        W37861  11.450   5.815   3.397 -0.1286 -0.0241 -0.0714
21014W        W37862   4.657  17.291  11.248 -0.0038  0.1681 -0.0726
21015W        W37863  14.596   6.754  14.803  0.2813  0.0041 -0.2789
21016W        W37864   5.108   0.660  14.353 -0.0093  0.0645  0.0026
21017W        W37865   8.314   4.176   3.633  0.0906  0.0481 -0.2367
21018W        W37866  10.540   2.328   3.029 -0.2105 -0.0330 -0.3121
21019W        W37867   3.938   5.883   3.752  0.0329 -0.2140  0.1709
21020W        W37868   0.255   6.950   1.625 -0.0947  0.0307 -0.0054
21021W        W37869   9.565   3.296  13.253 -0.2479  0.0403  0.0234
21022W        W37870   6.947   9.581   0.886 -0.2846  0.0849 -0.0701
21023W        W37871   5.301   7.603  13.058 -0.1321  0.0552  0.1589
21024W        W37872   0.030   4.697  13.829  0.0287 -0.2615 -0.1203
21025W        W37873  14.833   1.602   3.376 -0.4278 -0.2058 -0.0661
21026W        W37874   3.454   6.049  11.798 -0.1646 -0.2047 -0.0053
21027W        W37875   9.696   0.189  12.527  0.1109 -0.1006  0.0417
21028W        W37876  14.216  13.142  10.784  0.0252 -0.3749 -0.1401
21029W        W37877  12.144  12.207  12.586 -0.0126  0.0043  0.1526
21030W        W37878   6.665  13.527  13.989  0.0255  0.1750  0.0542
21031W        W37879  10.428  17.640  10.278 -0.1940  0.0415 -0.2681
21032W        W37880   4.064   5.952   2.868  0.1962  0.4032  0.1259
21033W        W37881   0.271  15.132   2.099 -0.1148  0.1439  0.2475
21034W        W37882  17.565   1.658   4.362  0.0721 -0.1917 -0.0336
21035W        W37883   0.787  10.977  11.084 -0.0193 -0.2105 -0.1473
21036W        W37884  11.357   5.414  13.295 -0.0055 -0.0181  0.3809
21037W        W37885   4.175  10.857  15.624 -0.1978  0.1997 -0.2896
21038W        W37886   4.245   5.737  14.945 -0.0609  0.2540 -0.3413
21039W        W37887   3.950   0.822  11.718  0.3453  0.0039 -0.1236
21040W        W37888  12.723   3.444   0.515 -0.2940 -0.2466  0.2355
21041W        W37889  14.962  14.949   3.487 -0.0102 -0.1125 -0.1034
21042W        W37890  17.271   0.029   0.504 -0.3874 -0.1456  0.1351
21043W        W37891   9.701  10.354  15.964  0.1140 -0.0160  0.0951
21044W        W37892  14.881  17.876  11.198  0.1777  0.0308 -0.1000
21045W        W37893  14.500  14.625   3.870 -0.1842 -0.2302 -0.5797
21046W        W37894  14.268   8.020  14.088  0.0110  0.1825 -0.1992
21047W        W37895  13.229  15.003   3.599 -0.1897 -0.1098 -0.3304
21048W        W37896   5.210  12.362   1.574 -0.0563  0.0808 -0.0803
21049W        W37897   6.004  16.914   1.641  0.1737 -0.2535  0.0633
21050W        W37898   0.913   8.781  11.697  0.0350 -0.1250  0.0093
21051W        W37899  16.870  11.885  13.971 -0.0745  0.0492  0.0128
21052W        W37900  16.274   2.910   3.587  0.2367  0.2004 -0.1493
21053W        W37901  14.962   8.901  15.064  0.1700 -0.2139 -0.3080
21054W        W37902   2.733   9.421  14.906  0.3734  0.2815  0.2513
21055W        W37903   3.416  11.319  11.248  0.1126 -0.0988 -0.0491
21056W        W37904   6.850  10.787   4.877  0.1388 -0.0856 -0.0748
21057W        W37905   4.704  16.354   3.088 -0.3256  0.0619  0.3019
21058W        W37906   8.474  17.112  14.269  0.0147 -0.3206  0.0911
21059W        W37907   2.545  10.622   1.072 -0.1251  0.2641  0.2006
21060W        W37908  12.792  11.816  16.433 -0.3201 -0.1298 -0.0766
21061W        W37909   7.458  10.579   0.616 -0.3012 -0.2392  0.0009
21062W        W37910  16.022  16.054   3.690  0.1685  0.0605 -0.0056
21063W        W37911   1.544   0.819   5.040  0.2337  0.1100  0.0888
21064W        W37912  17.133   0.598   1.351  0.1315 -0.2913 -0.1433
21065W        W37913  11.965  13.073   3.490  0.3323 -0.2380  0.1804
21066W        W37914  12.259  14.600   2.276  0.1167 -0.1209 -0.1841
21067W        W37915   1.809   9.429  13.678 -0.3103 -0.1741  0.2225
21068W        W37916  15.884   2.036   4.985 -0.1087 -0.1669 -0.1509
21069W        W37917   2.226  16.074   3.333 -0.1911  0.2990  0.0671
21070W        W37918  11.053   7.072  14.245  0.1858  0.2502 -0.0769
21071W        W37919  15.738  10.566   1.570  0.0634 -0.3882  0.0039
21072W        W37920  14.516  14.285  15.286 -0.2498  0.2669  0.0264
21073W        W37921  15.152   6.611  10.672  0.3969  0.0461 -0.0755
21074W        W37922   1.319  15.788   1.481 -0.1086  0.4781 -0.0330
21075W        W37923   5.661   1.797   4.126 -0.0794 -0.3423 -0.1566
21076W        W37924   8.906   5.459  11.635  0.0143  0.1353  0.1472
21077W        W37925   2.568   5.943   4.485  0.3069  0.2326 -0.3625
21078W        W37926   0.167   1.913  14.681  0.1062 -0.0597  0.1583
21079W        W37927  15.677  10.698  15.828  0.1108  0.0464  0.0083
21080W        W37928   8.337  15.010   4.816 -0.0185 -0.2235  0.2626
21081W        W37929  12.693   4.140   4.012 -0.3420  0.1244  0.2420
21082W        W37930  12.214  17.379  14.812 -0.2341 -0.0308  0.1132
21083W        W37931  17.844   6.391  10.451 -0.0034 -0.1646  0.1638
21084W        W37932   9.605  11.702  13.352  0.1549  0.1131 -0.0294
21085W        W37933   7.678   3.747   2.192  0.1060 -0.0018  0.0498
21086W        W37934   4.302   6.305  16.408  0.0608 -0.1163 -0.0384
21087W        W37935   5.123   1.595   2.166  0.1032 -0.0187 -0.1338
21088W        W37936  13.086  10.773  12.319 -0.0034  0.0216 -0.0372
21089W        W37937  14.485   3.597   3.974 -0.0584  0.1447  0.1172
21090W        W37938  15.466  16.944   2.138  0.0100 -0.1202 -0.1785
21091W        W37939  15.397   9.841  13.353  0.0285  0.0261  0.1979
21092W        W37940   2.162   3.870  11.879  0.0851  0.0250 -0.0265
21093W        W37941  16.259  13.261  14.969 -0.0441 -0.0846  0.4337
21094W        W37942   9.787  13.849   3.777  0.1339 -0.3532 -0.0541
21095W        W37943   9.755  17.428  13.815  0.1722 -0.1557  0.1297
21096W        W37944   3.773   4.303  13.602 -0.2539 -0.2022  0.2891
21097W        W37945   1.575   0.455   2.997  0.0214 -0.0963  0.0230
21098W        W37946   8.514  11.437  15.411  0.0169 -0.0874 -0.1357
21099W        W37947   1.602   5.398  11.166  0.1206  0.0673 -0.1454
21100W        W37948   3.120   0.929   0.093  0.0152 -0.1916 -0.2952
21101W        W37949  11.157  10.465  10.621  0.0049  0.0789 -0.0104
21102W        W37950  10.666   2.125  14.827 -0.2849  0.0515 -0.1137
21103W        W37951   5.956   4.196  14.012 -0.0470 -0.3360  0.0001
21104W        W37952   6.993  17.042   4.059 -0.3401  0.0839  0.1305
21105W        W37953  17.278   4.596   0.839  0.0343 -0.1442 -0.0706
21106W        W37954   2.913  16.649  11.879  0.1172 -0.1509  0.1196
21107W        W37955   6.239   6.239   0.865 -0.0954  0.2708 -0.1587
21108W        W37956   9.826  15.610  13.997 -0.1779 -0.1403  0.0676
21109W        W37957   0.383  17.883  12.586  0.0965 -0.1336 -0.1300
21110W        W37958   8.764  14.794   3.835  0.1459  0.0726 -0.0400
21111W        W37959  10.438   8.506   1.633  0.0702  0.1080 -0.0917
21112W        W37960   3.623   9.954  14.525  0.0098 -0.2199 -0.0598
21113W        W37961  12.905  15.409   4.664 -0.1985 -0.1234  0.1881
21114W        W37962   0.337   3.128   1.427 -0.0773  0.1820 -0.1624
21115W        W37963  13.744   7.618  11.917  0.1226 -0.0794  0.0725
21116W        W37964  14.966  15.088   5.433 -0.0809 -0.0805 -0.0013
21117W        W37965   4.301   1.870  15.364  0.3136  0.2295  0.1212
21118W        W37966   6.047  17.449   4.568  0.0553  0.0463 -0.0290
21119W        W37967   7.308   5.882   4.191  0.0583 -0.1243  0.3593
21120W        W37968  16.501  10.156   0.942 -0.0140  0.0298  0.2387
21121W        W37969  10.488   7.519   3.650  0.2069 -0.1002 -0.0285
21122W        W37970   5.326  17.847  12.627 -0.2597 -0.0880 -0.1052
21123W        W37971  16.885  13.099  11.120 -0.0891  0.1459 -0.1063
21124W        W37972   8.974   0.519  14.447  0.0490  0.0338 -0.0567
21125W        W37973   5.549   6.764  15.873 -0.3244 -0.1342  0.0624
21126W        W37974   8.036  14.440   3.344 -0.0702  0.2884  0.1315
21127W        W37975  17.450   7.928  14.334 -0.0584  0.0560 -0.1672
21128W        W37976  15.528   7.735   0.247 -0.3109 -0.3183  0.4768
21129W        W37977   5.530  16.957   0.094  0.0781 -0.0588 -0.1695
21130W        W37978  15.500   8.832  16.337  0.1291 -0.2225 -0.2852
21131W        W37979   1.851   9.342  12.346  0.0025 -0.1003 -0.0428
21132W        W37980  14.848   9.311  16.378 -0.0451  0.0568 -0.0267
21133W        W37981   1.507  13.145   1.918 -0.1200 -0.0920  0.3087
21134W        W37982  16.603   8.831  11.931  0.1352 -0.2692  0.1175
21135W        W37983   9.034   7.612  14.927  0.1476  0.0814 -0.2349
21136W        W37984   9.866  16.065   3.528  0.1028  0.2162  0.3020
21137W        W37985   5.771  12.491   2.025  0.0107  0.0247 -0.0891
21138W        W37986   5.561  16.808  14.742  0.3032 -0.1246 -0.1592
21139W        W37987   5.811  16.452  11.350 -0.1728  0.4080 -0.0560
21140W        W37988   5.052   3.460   0.031  0.0212 -0.1315 -0.0568
21141W        W37989  17.663   4.278   0.751 -0.0255 -0.2450  0.1679
21142W        W37990  13.650  14.159   4.860  0.0776 -0.0936  0.0654
21143W        W37991   1.581   0.814   2.190 -0.0922 -0.1478  0.0606
21144W        W37992   0.680   8.956   3.212  0.1183 -0.2283  0.0247
21145W        W37993  13.339  15.596   4.370 -0.1824  0.0661  0.0295
21146W        W37994  13.030   5.757   4.963  0.3383  0.1567  0.1164
21147W        W37995  15.908   8.399  14.981  0.0054 -0.1783 -0.1008
21148W        W37996  15.309   3.891   1.858 -0.1837  0.1633  0.1321
21149W        W37997   2.195  16.572  13.237  0.1911 -0.3725 -0.1292
21150W        W37998  12.378   4.716   5.153  0.1149  0.1130 -0.4431
21151W        W37999   3.934   8.957  15.210  0.0949  0.2240  0.1883
21152W        W38000   8.810   2.692  16.309 -0.1250 -0.0427  0.3478
21153W        W38001  12.065   1.007  14.740  0.1003 -0.1304 -0.0351
21154W        W38002   6.292   3.802  11.865  0.1142  0.0312 -0.3044
21155W        W38003  13.946  12.180  13.901  0.2124 -0.1055  0.0685
21156W        W38004  13.435  13.716   4.998 -0.1044 -0.0226  0.1989
21157W        W38005   6.753  13.367   0.084  0.0818  0.1767  0.2516
21158W        W38006  16.670  14.277  11.773  0.1767  0.0389  0.1045
21159W        W38007  10.134   7.194  12.214 -0.2547 -0.2501  0.0839
21160W        W38008  13.462  16.060  11.678 -0.0837  0.0067 -0.0108
21161W        W38009  10.240   7.250   0.780  0.1856 -0.1025  0.1402
21162W        W38010   2.963   7.455   1.546  0.0150  0.1218 -0.0892
21163W        W38011   2.952  16.837   5.075  0.1397  0.3113  0.1434
21164W        W38012   8.620  14.266   5.192 -0.0195  0.2981  0.2749
21165W        W38013  10.598  13.034  16.267  0.1621 -0.2707  0.0891
21166W        W38014   5.690   0.317  12.699 -0.1180 -0.2495 -0.1363
21167W        W38015   1.737   1.844  11.947  0.1082  0.2897  0.1315
21168W        W38016   9.356   3.953   1.687 -0.2246 -0.2528  0.1101
21169W        W38017  11.224  13.574   4.648 -0.1197 -0.0795  0.2191
21170W        W38018  15.125   1.702  15.599  0.0723 -0.1437  0.0221
21171W        W38019   2.244   5.238  15.397 -0.0089 -0.0734 -0.2605
21172W        W38020   0.214   3.227  12.087 -0.0335  0.0702 -0.0076
21173W        W38021  10.827  10.456  14.765  0.0119  0.3688 -0.3151
21174W        W38022  14.805  13.580  11.977 -0.1091  0.1064  0.1330
21175W        W38023   8.463   2.349  13.395 -0.1294 -0.0967  0.1008
21176W        W38024   6.179  14.170   4.349 -0.0641  0.3424 -0.1239
21177W        W38025  12.176   7.160  15.843  0.2086 -0.1727 -0.0317
21178W        W38026  16.960   0.154   4.274  0.2203 -0.0224  0.2817
21179W        W38027   2.796  10.533   6.219  0.1070 -0.1770  0.1524
21180W        W38028   3.005   4.891  14.394  0.1279  0.0090 -0.0616
21181W        W38029  11.918  15.699  13.450 -0.0606 -0.0644 -0.0110
21182W        W38030   7.308   1.430   0.214  0.1872  0.0022  0.0450
21183W        W38031  13.603  11.565   3.096 -0.0523 -0.2280  0.2752
21184W        W38032  16.608  13.415   1.665  0.2024 -0.0661  0.0909
21185W        W38033  10.193  10.730  14.197  0.0920 -0.1607 -0.0456
21186W        W38034   0.787   3.714   2.131 -0.0084 -0.0086 -0.0758
21187W        W38035   4.145   7.285  13.796  0.1912  0.1952  0.3599
21188W        W38036  15.301   3.602  13.323  0.0091  0.0802 -0.1190
21189W        W38037  11.090   5.509   0.966  0.1119  0.0206  0.0845
21190W        W38038   2.327  11.294  12.565 -0.0639  0.1464 -0.0091
21191W        W38039   5.324   4.210   0.369  0.0843 -0.1475  0.2058
21192W        W38040  11.009  16.958  11.739  0.2768 -0.1528  0.1591
21193W        W38041  17.713   1.305   6.125 -0.1140 -0.2028 -0.0148
21194W        W38042   9.051  15.059   5.332 -0.2244  0.0336  0.0611
21195W        W38043   6.084   9.856   2.277  0.1050 -0.2747  0.1172
21196W        W38044   8.560   8.693  15.726 -0.0834 -0.0452  0.0574
21197W        W38045  16.911  16.879   2.973 -0.0780 -0.0982 -0.0321
21198W        W38046  13.071  10.799   1.436  0.1837  0.0192  0.0172
21199W        W38047   4.399   7.184  16.324 -0.2453 -0.1033  0.1631
21200W        W38048   6.852  11.832   3.072  0.1428  0.1731  0.0045
21201W        W38049   0.622  17.043   4.415 -0.0786 -0.0470 -0.1942
21202W        W38050   8.428   8.379   3.867 -0.2144 -0.0993 -0.2201
21203W        W38051  10.402  15.636  11.723 -0.3486  0.3184  0.3590
21204W        W38052   0.624   2.538   4.835 -0.1492 -0.2311 -0.0016
21205W        W38053  14.942   1.093   2.470 -0.0770 -0.0123  0.3231
21206W        W38054  17.070   2.713  14.944  0.1408 -0.1070 -0.2526
21207W        W38055  12.825  11.462   1.563  0.3548 -0.1413  0.0126
21208W        W38056   5.870   2.456  14.597  0.0852  0.1950 -0.1003
21209W        W38057   1.756   4.981  16.411 -0.1505 -0.4129  0.0593
21210W        W38058   1.952   2.427  13.179  0.0455 -0.0059 -0.0813
21211W        W38059  16.146   1.805   0.227  0.0519 -0.2748 -0.2585
21212W        W38060   6.740  15.279   0.432 -0.2633 -0.0668 -0.1373
21213W        W38061  10.230  13.900   2.953  0.0568  0.0908  0.1415
21214W        W38062  15.163   2.682   0.058  0.0483  0.0540  0.1823
21215W        W38063   0.817   8.411   0.267 -0.2955 -0.1701  0.0079
21216W        W38064  11.697   8.508  12.267  0.1046 -0.2329 -0.1698
21217W        W38065   7.941   4.657   3.199 -0.1055  0.1808 -0.0143
21218W        W38066  11.858   2.264  11.395 -0.0956  0.4459 -0.0731
21219W        W38067   0.483   1.618  15.023  0.0452  0.0883  0.2592
21220W        W38068   3.558   2.180  14.013 -0.1112  0.1830 -0.0345
21221W        W38069   4.174  10.837  16.159  0.1747 -0.1116 -0.1734
21222W        W38070  13.357  10.137  11.525 -0.0175  0.0078 -0.2776
21223W        W38071   8.186  17.096  13.483 -0.1427 -0.1801 -0.0401
21224W        W38072  13.711   5.592  12.292  0.0819  0.0897  0.1889
21225W        W38073   5.100   1.839   4.332  0.2348  0.2563 -0.1121
21226W        W38074  16.104   9.413   1.124 -0.0735  0.3359 -0.2197
21227W        W38075  15.286  17.836  16.060  0.0443 -0.0058  0.4180
21228W        W38076  14.523   6.346   0.573  0.3650  0.1437 -0.1783
21229W        W38077   5.201   5.805  14.578 -0.2853 -0.0198 -0.5158
21230W        W38078  11.496  11.117   6.389 -0.2909 -0.1037 -0.0900
21231W        W38079   1.691   3.293   0.464  0.1513  0.0146 -0.0997
21232W        W38080   3.906   9.732   5.865  0.0790  0.2032  0.4499
21233W        W38081  15.492   1.733  10.956  0.2281  0.1523  0.1159
21234W        W38082   8.917   7.100   1.066 -0.2457 -0.0736 -0.0185
21235W        W38083   0.754   5.603   4.744 -0.0456 -0.1552 -0.0808
21236W        W38084   4.618   9.937   0.020 -0.1907  0.0818  0.1210
21237W        W38085  14.195   5.192  12.904 -0.1970 -0.0053 -0.1549
21238W        W38086  16.666   7.514   3.982 -0.1835  0.1224  0.1693
21239W        W38087  16.473   8.972  15.433 -0.1278 -0.0543  0.0221
21240W        W38088   5.320  17.681  14.368 -0.0010  0.0238 -0.0815
21241W        W38089   0.696  14.999   1.877 -0.0172 -0.4258 -0.1693
21242W        W38090   7.820  13.125   0.798 -0.1174  0.1521  0.2622
21243W        W38091  15.093  15.806  11.853 -0.0444 -0.2484  0.0584
21244W        W38092   0.677   6.007   0.989  0.3077 -0.2471  0.2331
21245W        W38093   3.191   9.659   0.199 -0.0191 -0.0904 -0.2289
21246W        W38094  15.763   5.308  12.000  0.0618  0.1740  0.2500
21247W        W38095  10.146  13.621  13.447 -0.1383  0.0623 -0.1042
21248W        W38096  12.390  13.626  14.344 -0.2736  0.1312  0.1832
21249W        W38097  10.761  10.646  12.400  0.0728 -0.2210  0.3266
21250W        W38098  17.181  13.094  14.478  0.3380 -0.0928 -0.0653
21251W        W38099   1.671   3.934  15.686  0.0206 -0.1853 -0.4639
21252W        W38100  11.688   0.129  14.918 -0.2857  0.1151  0.0827
21253W        W38101   9.754   8.724  13.198 -0.2293  0.1979 -0.0092
21254W        W38102  10.655  17.164   3.209 -0.0030 -0.2235 -0.3228
21255W        W38103   0.737  11.199   1.760  0.0315 -0.1432 -0.3469
21256W        W38104   0.692  17.390   3.499  0.1315  0.0974  0.2999
21257W        W38105   0.332  10.538   2.781  0.3605 -0.0972  0.2270
21258W        W38106   9.810  17.085   5.223  0.1381 -0.3340 -0.3372
21259W        W38107   8.506   0.153  15.216 -0.1900 -0.3494  0.0115
21260W        W38108   3.659   4.104  11.223  0.0639 -0.1273 -0.1681
21261W        W38109   9.419   7.930  13.526  0.2108 -0.1269 -0.2091
21262W        W38110  16.240  12.734   0.448 -0.2899  0.0220 -0.0398
21263W        W38111   5.630  14.848  13.252 -0.1542 -0.0891 -0.1006
21264W        W38112  17.568  17.462  16.056 -0.0739 -0.0969 -0.1075
21265W        W38113   0.409   6.086   2.113  0.1900  0.1047 -0.2044
21266W        W38114   6.379   7.089   2.209  0.3176  0.0536 -0.1756
21267W        W38115   6.198  17.431  14.642 -0.0351 -0.0387  0.0842
21268W        W38116   1.189   7.325   3.799 -0.0511 -0.0873 -0.0027
21269W        W38117   6.841   7.625  11.383 -0.2371  0.3650 -0.2379
21270W        W38118   6.233  15.654  12.412  0.1512  0.0253 -0.2397
21271W        W38119   6.547   2.132   5.096  0.0216 -0.1340 -0.1448
21272W        W38120   4.426  12.614  14.180 -0.1092  0.0623 -0.1211
21273W        W38121  17.284  14.035  14.850 -0.1966 -0.2096 -0.0310
21274W        W38122   3.159  12.474   3.237  0.1075  0.1473 -0.0681
21275W        W38123   1.158  16.709  13.465  0.0793 -0.0318 -0.0621
21276W        W38124   3.032  16.090   5.006 -0.2017  0.4169 -0.0951
21277W        W38125   8.830   2.450  15.824  0.4923  0.1299 -0.0966
21278W        W38126   3.570   1.522  15.542 -0.2503  0.3559 -0.1367
21279W        W38127  16.604   7.974  11.289  0.2010 -0.0719 -0.1037
21280W        W38128   7.559   2.657   5.444 -0.0494 -0.3463  0.0354
21281W        W38129  12.535   9.053   4.317  0.0371  0.3101  0.0854
21282W        W38130  13.459   3.143  11.870 -0.0588 -0.1138 -0.2134
21283W        W38131  13.609  17.324   1.828 -0.2090  0.0301  0.3662
21284W        W38132   2.707  16.719  14.426  0.1217  0.0539 -0.2345
21285W        W38133   0.791   0.335   3.970  0.1070 -0.4103 -0.0755
21286W        W38134   0.551  12.826   1.954 -0.0244  0.2498 -0.1768
21287W        W38135   1.489  16.813   2.076 -0.0364  0.1161  0.0329
21288W        W38136   4.755  17.846   3.500 -0.0264 -0.3583  0.1298
21289W        W38137   8.934   9.841  14.947 -0.0027  0.0628 -0.1457
21290W        W38138   4.000   7.949   3.194 -0.1017  0.1386 -0.5491
21291W        W38139  12.235   0.102  15.822  0.1281  0.2519 -0.0281
21292W        W38140  14.304   8.188  16.059  0.1369  0.0438 -0.2067
21293W        W38141   9.457   4.585   0.557 -0.0902 -0.1242  0.1496
21294W        W38142   1.810  15.545  15.861 -0.0011 -0.0659 -0.0959
21295W        W38143   2.073   2.341  11.999 -0.0157 -0.0952 -0.3821
21296W        W38144   0.185   3.026   2.368 -0.4475 -0.2716  0.0862
21297W        W38145   4.604   6.608  11.344 -0.1105  0.0907  0.1286
21298W        W38146   1.514  14.730  15.736 -0.1930  0.2089 -0.0430
21299W        W38147   6.375   1.953  14.218  0.1230  0.1428 -0.0970
21300W        W38148   5.239   4.623   0.830  0.0636  0.0518 -0.4498
21301W        W38149  16.022   6.027  13.196 -0.1757 -0.1585 -0.3550
21302W        W38150   6.761   6.847  16.349  0.2621  0.0856 -0.0875
21303W        W38151  11.733   0.859  15.628  0.0955 -0.1408 -0.1694
21304W        W38152   4.569   2.761   0.203 -0.2216  0.1150 -0.1208
21305W        W38153   1.843   5.671   5.549  0.0736 -0.1877  0.1068
21306W        W38154   6.132   6.634  13.521 -0.1084 -0.0076 -0.1738
21307W        W38155   2.598  15.513   5.575  0.1349  0.3688  0.1254
21308W        W38156  17.519   8.751   2.903 -0.2963  0.1250  0.1797
21309W        W38157  13.558  11.709   3.677  0.2206 -0.4255 -0.0111
21310W        W38158   6.036  15.779   2.693 -0.3302 -0.1009  0.1235
21311W        W38159   2.869   2.362   4.254  0.0373  0.0439 -0.2059
21312W        W38160  17.246  12.898  15.152  0.1918 -0.1587  0.1979
21313W        W38161  15.660   3.436  13.018 -0.0297  0.0223  0.0840
21314W        W38162   6.592   0.258   1.345  0.1577  0.0884 -0.0002
21315W        W38163   1.414  11.030  11.313 -0.0813 -0.2922 -0.0381
21316W        W38164   1.266   5.025  15.327 -0.0411 -0.1739 -0.0392
21317W        W38165  17.659  12.500  12.329 -0.2939  0.0289  0.0838
21318W        W38166  13.372  10.623  14.525  0.2251  0.0515  0.3437
21319W        W38167  10.872   4.163   0.042 -0.1135 -0.0660  0.2518
21320W        W38168  14.832  12.510   4.244  0.0397 -0.0354  0.0030
21321W        W38169  12.606   0.843   2.977 -0.0799  0.2022  0.1319
21322W        W38170   7.471   3.243   4.050  0.3709 -0.2575  0.1925
21323W        W38171  14.885  13.466   3.384 -0.0518  0.2335 -0.1941
21324W        W38172  16.810   5.291  13.813 -0.0122  0.1951 -0.1193
21325W        W38173  14.064  12.707  15.953  0.2441 -0.4097 -0.0603
21326W        W38174  14.815   1.396  15.873 -0.3484  0.1822 -0.1502
21327W        W38175   0.117   8.030   3.176  0.2554  0.1017 -0.2396
21328W        W38176  11.680  16.090  12.745 -0.0265 -0.2589 -0.0834
21329W        W38177   7.786   0.739  13.635 -0.1904 -0.0994 -0.0314
21330W        W38178   0.567   3.262   3.071  0.3768 -0.1213  0.0614
21331W        W38179  16.202   5.811   5.460  0.0427 -0.1694 -0.0854
21332W        W38180  10.748  14.554  12.219  0.1265  0.0714  0.0663
21333W        W38181  10.945   0.172   4.739  0.0531  0.1581 -0.0474
21334W        W38182  15.478   4.550   0.144 -0.1144  0.3079 -0.2576
21335W        W38183   0.579   0.423  13.808 -0.0130  0.5061  0.0455
21336W        W38184  14.393  17.535   2.676  0.3192 -0.2063 -0.3776
21337W        W38185   9.794   4.174   3.528 -0.2517  0.4714 -0.3495
21338W        W38186   0.552   6.356  12.314 -0.0385  0.0756  0.0225
21339W        W38187   9.257   6.662  14.647 -0.0145 -0.2552 -0.1652
21340W        W38188   4.739  11.339   2.364 -0.0594 -0.0432 -0.0691
21341W        W38189   8.644  14.163   2.782  0.3121 -0.0456 -0.0525
21342W        W38190   2.306   0.224   2.581  0.0103  0.2314 -0.2082
21343W        W38191   8.344   3.931  12.528 -0.0072  0.1541  0.0524
21344W        W38192   4.944   9.449   2.663 -0.0560  0.1695 -0.2540
21345W        W38193  13.905   4.256   3.739 -0.0587  0.0801  0.1783
21346W        W38194   7.145  13.536   0.315 -0.0800  0.0773  0.1494
21347W        W38195   3.666   9.142   4.855 -0.0418 -0.1562  0.1625
21348W        W38196   3.736   9.909   2.372 -0.3843  0.0234 -0.0824
21349W        W38197   7.166   9.021   2.136 -0.0490  0.3228  0.0680
21350W        W38198   0.787   8.915   0.115 -0.1800 -0.2639 -0.2059
21351W        W38199   5.265   5.460  12.646 -0.1074 -0.0528 -0.2064
21352W        W38200   5.284  10.499   3.995 -0.0259  0.0596 -0.0634
21353W        W38201   0.224   3.229  13.502  0.0084  0.1453 -0.3076
21354W        W38202  10.871   8.661   1.435 -0.0305  0.0029 -0.1210
21355W        W38203   0.161  11.676  10.758  0.4188 -0.2808 -0.3447
21356W        W38204   8.146   6.865   1.173 -0.2921 -0.0681  0.1278
21357W        W38205   0.831   4.805  14.196 -0.2823  0.1313 -0.0702
21358W        W38206   4.906   8.980  14.866 -0.0504  0.0002 -0.2686
21359W        W38207   7.037   3.406  12.496 -0.0189  0.0251 -0.1122
21360W        W38208   8.676  12.290   2.254 -0.2401 -0.0523  0.0872
21361W        W38209  12.869  13.336  16.005  0.0536 -0.2800 -0.2853
21362W        W38210   6.468  10.568  13.629  0.0836  0.1173  0.0312
21363W        W38211   1.423   7.856  16.433  0.0135  0.0415 -0.1013
21364W        W38212  12.088   2.460   0.525 -0.0636  0.2882  0.0599
21365W        W38213   9.648  16.917  15.931 -0.2325 -0.2415 -0.0743
21366W        W38214   2.229   7.686  11.882 -0.0039  0.2397  0.0341
21367W        W38215  15.257   6.754   2.024 -0.0772  0.0454  0.0123
21368W        W38216  17.313   6.415   1.935  0.1426 -0.0926  0.0282
21369W        W38217  16.327  10.320   5.774  0.3431  0.1777 -0.0480
21370W        W38218  13.745  10.358  16.032  0.0199  0.3486 -0.2153
21371W        W38219  10.481  12.577   0.553  0.0286 -0.1133  0.1216
21372W        W38220   2.035  13.094   2.660 -0.1255 -0.0747 -0.3470
21373W        W38221   7.678  14.209  16.440  0.0984  0.1261  0.0595
21374W        W38222  14.144  17.816   0.122 -0.1389 -0.2744 -0.1696
21375W        W38223  10.881   5.327   0.454  0.1824  0.0461  0.0303
21376W        W38224   4.692   3.457   1.045  0.1470 -0.1221 -0.1921
21377W        W38225   6.692  10.093   1.517 -0.1807 -0.2156 -0.1852
21378W        W38226  17.441  16.698  14.930 -0.1041 -0.1250  0.1729
21379W        W38227   7.487  11.334   3.266 -0.0330  0.0855  0.0895
21380W        W38228   9.168   6.360   1.769  0.1484 -0.0023  0.0471
21381W        W38229   4.011   0.733   1.999 -0.2643  0.0820 -0.1039
21382W        W38230  16.558  15.954   4.358  0.1903 -0.1080  0.0378
21383W        W38231   2.180   0.541  11.428 -0.0755  0.0561  0.2439
21384W        W38232   8.057   4.355  13.834 -0.1311 -0.0819  0.1239
21385W        W38233  11.547   4.594   6.219  0.1414  0.1129  0.2326
21386W        W38234   2.524  16.511  12.645  0.1612  0.0655 -0.4011
21387W        W38235  12.339  15.205   2.991  0.1082 -0.0297  0.1893
21388W        W38236   1.515   9.474  15.786  0.3228 -0.3190  0.0021
21389W        W38237   0.875   6.393   4.103  0.0118  0.0790  0.1781
21390W        W38238  15.421   4.214   2.863 -0.2650 -0.2628  0.2612
21391W        W38239  16.616   8.514  16.174  0.0732 -0.2908  0.2307
21392W        W38240   8.876   8.280   4.316  0.3146  0.1867 -0.1416
21393W        W38241  11.479  14.796   3.437 -0.1049 -0.1334 -0.1248
21394W        W38242  13.891   8.823   0.821 -0.3749 -0.1180  0.1921
21395W        W38243  14.443   4.806  12.627 -0.2010 -0.2312 -0.1853
21396W        W38244   4.307   9.071   5.022 -0.0579  0.1320 -0.2267
21397W        W38245   6.053   6.311  11.658  0.0707  0.2799  0.2723
21398W        W38246  15.419   4.596  13.296 -0.1629 -0.2139 -0.1285
21399W        W38247  16.389   8.127   1.428 -0.2014  0.1928 -0.2575
21400W        W38248   8.220  13.449   4.233  0.0314  0.1871 -0.0155
21401W        W38249   6.620   8.413  11.697  0.1430  0.0566  0.0358
21402W        W38250  17.294   0.778  12.891 -0.3794 -0.1549 -0.0204
21403W        W38251   0.208   1.890  13.389  0.0532 -0.1385 -0.0883
21404W        W38252   1.865  15.603  10.811 -0.2003 -0.1549 -0.0508
21405W        W38253   9.294  10.473   4.038 -0.4367 -0.0187 -0.0524
21406W        W38254  17.608  15.663  13.867  0.1161  0.1801 -0.1847
21407W        W38255   2.208   1.002  16.412 -0.3870 -0.1984 -0.3001
21408W        W38256   7.702   3.760   3.083 -0.0365 -0.0062 -0.1446
21409W        W38257  17.866  12.877  15.221 -0.0500  0.0674 -0.0523
21410W        W38258  11.404  16.099   2.136 -0.0147 -0.1919  0.2453
21411W        W38259   4.372   9.829  12.963  0.1201 -0.0929  0.0818
21412W        W38260  11.171  17.632  14.858  0.1438 -0.1434  0.2975
21413W        W38261   8.896  14.008  13.550  0.3715 -0.0966 -0.0951
21414W        W38262   9.303   4.003  14.587 -0.2176  0.0715 -0.0690
21415W        W38263   5.357  15.493  11.312  0.0078  0.2058 -0.0951
21416W        W38264   0.322  16.892   1.717  0.0616  0.1021  0.1231
21417W        W38265  11.087   1.713  12.958 -0.0818 -0.0024  0.3160
21418W        W38266  16.911   0.689   3.619  0.1039 -0.1106  0.3537
21419W        W38267   7.126   5.144  14.568  0.1228  0.4294 -0.1862
21420W        W38268   9.707   0.223   2.242  0.0805 -0.1842 -0.0313
21421W        W38269  14.777   6.065  15.002  0.2946 -0.0314  0.0444
21422W        W38270   9.172   1.994  14.949  0.2331 -0.1578  0.1997
21423W        W38271  16.368  15.031   1.638 -0.0343 -0.1917 -0.3833
21424W        W38272   7.956   8.185  15.225  0.2133 -0.0313  0.2386
21425W        W38273   3.437  17.115  13.490 -0.1706 -0.0033  0.2965
21426W        W38274   5.841   4.999   3.104 -0.0872  0.0468  0.1734
21427W        W38275   9.300   7.479  15.762 -0.0972 -0.1028 -0.2840
21428W        W38276  12.717   9.262  15.624  0.1656  0.0308 -0.3883
21429W        W38277   9.151   7.152  12.045 -0.4575  0.1428 -0.1285
21430W        W38278  10.119   8.953   5.181  0.0062 -0.2175 -0.0713
21431W        W38279   1.051  14.781   2.643 -0.1401 -0.0049  0.0770
21432W        W38280  12.676  17.377   4.365  0.0366  0.0710 -0.0982
21433W        W38281   5.966   1.367   0.177  0.0557 -0.1945 -0.2492
21434W        W38282   5.210   2.117  16.467 -0.1702  0.1021  0.1107
21435W        W38283   1.737   1.761  11.430  0.2318  0.1712 -0.0528
21436W        W38284   2.169   3.960   1.055  0.0009 -0.2279  0.1840
21437W        W38285  17.757  14.332  10.287 -0.0048 -0.0892 -0.0745
21438W        W38286   0.907   5.412  11.184 -0.0097  0.2672 -0.1179
21439W        W38287  14.366  14.051  11.176  0.1610  0.0581 -0.0361
21440W        W38288   8.155  12.582   0.059 -0.0124 -0.0922  0.4202
21441W        W38289   8.183   9.444   4.369  0.0607 -0.1249 -0.2512
21442W        W38290  12.320  16.037  14.133  0.4409 -0.0776 -0.1790
21443W        W38291   8.823   1.431   0.980 -0.0765 -0.1488 -0.1145
21444W        W38292   0.504  11.852  15.716 -0.1150 -0.0594  0.0784
21445W        W38293  15.721   4.706  12.923 -0.1232 -0.3058  0.0079
21446W        W38294   8.327  11.091  12.417 -0.1534  0.3101  0.1779
21447W        W38295  16.476   0.103  16.426  0.0814  0.2285  0.0322
21448W        W38296   4.079  13.052  11.162 -0.4622  0.0050 -0.0336
21449W        W38297  15.406   5.976   3.781  0.1622  0.0326 -0.1322
21450W        W38298  13.086   3.724   0.297  0.1497 -0.1365 -0.1152
21451W        W38299   7.840   3.424   0.399 -0.2808 -0.0324  0.0937
21452W        W38300   0.497   3.663  15.516  0.0129  0.0702 -0.3004
21453W        W38301   2.434  14.567  15.805 -0.0917  0.0933  0.1490
21454W        W38302  17.453   4.072   1.310  0.1060 -0.2047 -0.0135
21455W        W38303  14.592   5.413   0.877  0.1555 -0.2367 -0.2540
21456W        W38304  14.357  11.303  12.163 -0.1167  0.0581 -0.0807
21457W        W38305  11.512   0.892   4.560 -0.4082 -0.2813 -0.1136
21458W        W38306   3.172   7.045  11.887 -0.2366  0.0362 -0.2144
21459W        W38307   8.768   5.013  11.847  0.0042  0.0850 -0.1061
21460W        W38308   1.065  15.371   1.566  0.1452 -0.2667 -0.0012
21461W        W38309   8.965   6.115  16.433 -0.1374 -0.0645 -0.0623
21462W        W38310  14.658  15.438  14.519 -0.0978  0.0578 -0.1374
21463W        W38311   2.348  12.924   0.065 -0.3171  0.3693 -0.3113
21464W        W38312  10.316  11.355  13.925 -0.4191  0.0179 -0.1757
21465W        W38313  10.533  12.401   2.358 -0.1577  0.1745 -0.0548
21466W        W38314  15.045  13.234  10.362  0.0087 -0.2017 -0.0611
21467W        W38315  17.035  10.436   1.114  0.1721  0.0575 -0.0790
21468W        W38316   4.506  11.529   0.242  0.1902 -0.1645 -0.0620
21469W        W38317   9.690  10.641  11.939  0.1190 -0.0156  0.1124
21470W        W38318  16.628   6.947  11.223  0.1332 -0.1351 -0.0796
21471W        W38319  16.989  17.449  14.423 -0.0206  0.2803  0.2308
21472W        W38320  17.499  15.244  13.510 -0.0901 -0.2054 -0.1002
21473W        W38321   8.893  10.001  15.514  0.0338 -0.2473  0.4015
21474W        W38322   5.901   3.378   0.319 -0.0521 -0.1887  0.0369
21475W        W38323   8.267   9.796   1.237  0.0685 -0.2474  0.0973
21476W        W38324   1.366  12.644   1.809  0.1485  0.1105  0.0262
21477W        W38325   9.800   0.675  12.350  0.3108 -0.2609 -0.0547
21478W        W38326   6.701   2.263   2.382  0.0216 -0.1620  0.1917
21479W        W38327  17.584   3.008  15.188  0.0505 -0.4060  0.0104
21480W        W38328   6.760   9.195   1.796  0.3067 -0.0545  0.0033
21481W        W38329   5.167  10.524   5.692 -0.0557 -0.0780 -0.2846
21482W        W38330   7.082  17.688   5.272  0.1561  0.1091 -0.0153
21483W        W38331   0.418   8.803  13.755  0.0104 -0.3210  0.0240
21484W        W38332  12.862  12.317  14.004  0.0500  0.1788  0.0645
21485W        W38333  10.020   0.752  15.987 -0.0483 -0.0811  0.1320
21486W        W38334   3.468  11.498   3.263 -0.1558 -0.0119  0.2640
21487W        W38335  12.131   7.902  12.979  0.3160  0.0998  0.1147
21488W        W38336  11.236   9.523  10.613 -0.1455  0.1277  0.0190
21489W        W38337   2.844   8.887   0.178  0.1786 -0.1805 -0.5172
21490W        W38338   6.765   7.836   2.084 -0.3304  0.2895 -0.2440
21491W        W38339   9.173   7.652   1.748  0.0675  0.0931  0.1027
21492W        W38340  13.533  13.364   0.347  0.1035 -0.0983  0.0912
21493W        W38341   1.008   4.350  11.755  0.0122  0.1497  0.2037
21494W        W38342  17.258   3.572   0.114 -0.0541 -0.2191  0.0311
21495W        W38343  14.673  11.313   2.905 -0.0824 -0.1164  0.2004
21496W        W38344  16.928  12.226  16.450  0.1284  0.3685  0.0162
21497W        W38345  13.912  14.864  15.676  0.1901 -0.0755  0.2283
21498W        W38346  11.958  16.826  16.099  0.2190  0.0551 -0.1301
21499W        W38347  15.396   9.553  14.706 -0.0030 -0.1364 -0.0116
21500W        W38348  16.266   8.105   3.446 -0.1592  0.2373 -0.1815
21501W        W38349  13.418  13.002  14.519 -0.2636  0.1238  0.0331
21502W        W38350  17.360   8.113   4.920  0.2289 -0.1001  0.0004
21503W        W38351  13.664  15.400   0.135  0.2141 -0.0061 -0.0759
21504W        W38352   4.906   1.053  13.459 -0.1096  0.2424 -0.0618
21505W        W38353   6.388   9.785  14.438 -0.2684  0.0968 -0.1394
21506W        W38354  12.579  10.770  12.977  0.1150  0.2029  0.0045
21507W        W38355  16.876  17.489  13.556  0.1791 -0.4792  0.1784
21508W        W38356  12.392   8.645  11.581  0.1952 -0.0453 -0.1559
21509W        W38357  14.903  10.896   0.963 -0.2377  0.0320 -0.2202
21510W        W38358  16.970  17.631   3.384 -0.1296  0.1600  0.1699
21511W        W38359   9.531   0.443  13.435  0.3220  0.2061 -0.1260
21512W        W38360   1.758  17.037   0.167  0.2297  0.0212 -0.0558
21513W        W38361  11.963  13.634  13.860  0.0057  0.1888 -0.1711
21514W        W38362  16.560   0.167  10.823 -0.0928 -0.0006  0.1062
21515W        W38363   6.348   9.837   0.126 -0.4290  0.1907  0.0394
21516W        W38364  16.815   6.395   0.996  0.0021  0.0500  0.0192
21517W        W38365   5.724   5.251   3.491 -0.0006 -0.0342 -0.1850
21518W        W38366  16.367   9.256  14.583 -0.1749 -0.0856 -0.1102
21519W        W38367   9.354   3.725  14.171 -0.3451  0.2574  0.1168
21520W        W38368  15.814   1.595  14.496  0.0062 -0.1624 -0.0136
21521W        W38369   6.642   2.858   1.090  0.1679  0.0142 -0.0261
21522W        W38370   9.806  15.211  15.288 -0.1361 -0.3743 -0.3649
21523W        W38371  11.665   0.976  14.419  0.2333 -0.1856  0.0246
21524W        W38372   4.232  17.681   5.668  0.1626 -0.1818 -0.1870
21525W        W38373   9.738   2.710   5.960 -0.1113  0.2992  0.2247
21526W        W38374   8.185  13.297  14.601 -0.0673 -0.1628  0.0955
21527W        W38375  16.658   1.786  14.651  0.3376  0.0923  0.1046
21528W        W38376  15.083   7.403   2.688 -0.2654  0.1258 -0.1034
21529W        W38377   4.047  15.644  13.369  0.1346 -0.1483  0.0025
21530W        W38378   8.547  16.804   2.526 -0.0355 -0.2820  0.0934
21531W        W38379   9.806   7.043  13.968 -0.1001 -0.2621  0.0435
21532W        W38380   4.237   6.525   5.276  0.0844 -0.1400 -0.1806
21533W        W38381  12.674   9.825   3.853  0.0790 -0.0263 -0.2046
21534W        W38382  16.785  11.850  10.792 -0.0957  0.0214 -0.0623
21535W        W38383   6.730  17.555   2.619  0.0630 -0.2169  0.1325
21536W        W38384   3.515   5.121  13.142  0.0440 -0.0183  0.0247
21537W        W38385   4.050  13.417  10.766  0.3189 -0.2376 -0.3774
21538W        W38386   5.494   3.397  14.632 -0.2071  0.2216 -0.0966
21539W        W38387   7.115   7.132   1.627  0.1715  0.1481 -0.2747
21540W        W38388   3.977   3.013   2.123  0.1043  0.4056  0.3608
21541W        W38389   5.219  10.482   0.748  0.1660 -0.1188  0.0126
21542W        W38390  16.820  12.814   2.463  0.0241  0.2949  0.3019
21543W        W38391   2.108   2.897   0.900 -0.0085  0.1525 -0.0746
21544W        W38392  12.414  11.773   6.452 -0.0257 -0.3231 -0.0847
21545W        W38393   6.721   8.864  11.826 -0.1831 -0.0426  0.0575
21546W        W38394   7.320  11.115  11.489 -0.0631  0.0217  0.1404
21547W        W38395   9.110   1.369  12.592 -0.0255  0.0913 -0.1331
21548W        W38396  14.202   8.737  16.217 -0.0767  0.0606 -0.2380
21549W        W38397  13.731   7.009  11.874  0.0739  0.1731  0.1718
21550W        W38398   0.343  15.400  12.045  0.0156 -0.1757 -0.3312
21551W        W38399  16.570   1.890   4.588 -0.1318  0.3906  0.4397
21552W        W38400   5.562   0.897  12.694 -0.1464 -0.2597 -0.2728
21553W        W38401   3.749  15.811   2.288 -0.0584 -0.0571 -0.1788
21554W        W38402  10.112   0.474  12.740  0.0312 -0.0669  0.2559
21555W        W38403   7.586  11.938  16.134  0.1926 -0.0557 -0.0649
21556W        W38404  15.608  13.128  14.590  0.2877 -0.1163 -0.2920
21557W        W38405  12.823   1.803  14.175 -0.1201  0.1742  0.3110
21558W        W38406   4.880   6.598  13.280  0.0572  0.1973 -0.0812
21559W        W38407  13.781   3.312   2.526 -0.0107  0.2989 -0.1770
21560W        W38408  16.683   3.992  15.080  0.1320 -0.0622  0.0381
21561W        W38409   9.999   7.372  11.661 -0.2796  0.0938  0.2731
21562W        W38410   4.492  13.026   0.159 -0.1772 -0.1134 -0.0273
21563W        W38411  16.770   7.276  14.758  0.0757  0.1280  0.0348
21564W        W38412   3.590   7.632  15.811  0.1380 -0.2331 -0.1039
21565W        W38413   7.633   0.821   2.317 -0.1215  0.0159  0.1497
21566W        W38414  17.606   0.937  11.603  0.1308 -0.1089 -0.0477
21567W        W38415   7.689   9.257   0.110 -0.1871  0.0288 -0.0433
21568W        W38416  13.819  16.815  15.317  0.0504 -0.0455  0.0358
21569W        W38417  14.538  14.222   3.574 -0.0663 -0.2313  0.1256
21570W        W38418  16.247  12.858  15.290 -0.0281 -0.2133 -0.0943
21571W        W38419  14.127   1.245  11.042  0.2401  0.0100  0.0737
21572W        W38420  16.796   2.787   0.363 -0.1519 -0.2023 -0.0561
21573W        W38421   8.293   2.337   1.335 -0.0076  0.2646  0.1972
21574W        W38422  10.930   8.273   5.142  0.1577 -0.0224 -0.2434
21575W        W38423   7.505  16.622  11.957 -0.0846  0.3104  0.1818
21576W        W38424  15.069  15.110   2.223  0.1235  0.1227  0.0265
21577W        W38425   8.142   5.264   5.089 -0.0569 -0.3179 -0.0425
21578W        W38426   9.880   9.418   3.674 -0.1129  0.0870 -0.1274
21579W        W38427   3.710   3.242  14.356  0.0298 -0.0826  0.0432
21580W        W38428   3.101  13.609   4.231  0.0633 -0.0082 -0.3099
21581W        W38429  17.668  14.232  14.414  0.1072 -0.0093 -0.3248
21582W        W38430  10.892   1.526   5.496 -0.0378  0.0827  0.1433
21583W        W38431   4.940  13.403   3.701  0.0225  0.2899  0.1506
21584W        W38432   9.105   4.656  11.684  0.1844  0.0744  0.0208
21585W        W38433  10.754   1.025  14.092  0.0686 -0.1940  0.0879
21586W        W38434   9.908  14.825   3.791  0.0205  0.2675  0.0248
21587W        W38435  15.196  17.250   3.598 -0.1823 -0.0499  0.0349
21588W        W38436   6.234  13.692   4.241  0.0184 -0.1842  0.0908
21589W        W38437  10.820  13.070   3.033 -0.0790 -0.2111  0.2829
21590W        W38438   8.318   6.099  14.764 -0.0774  0.0395  0.0026
21591W        W38439   5.037   6.610   0.123  0.1736 -0.1730 -0.4595
21592W        W38440   7.259   8.141  14.683  0.2466 -0.0088  0.3109
21593W        W38441  11.558   2.456   2.190  0.0751  0.0144  0.2406
21594W        W38442   3.420  10.149   3.197 -0.2016 -0.2088 -0.0389
21595W        W38443  11.181  15.243   2.399 -0.0858  0.1497  0.3118
21596W        W38444   8.880   5.284   4.398  0.3860  0.0464  0.2148
21597W        W38445  10.174   2.688   3.173  0.0479 -0.1274  0.1590
21598W        W38446   5.439   2.924   1.712 -0.1568  0.1165  0.2848
21599W        W38447   6.389   6.903   1.648 -0.3068  0.1708 -0.0418
21600W        W38448  14.505   3.498   4.483  0.1556 -0.1252  0.0340
21601W        W38449   5.530   5.372   2.994 -0.2599  0.1684  0.0086
21602W        W38450   7.327   5.337  12.990  0.1895  0.0309 -0.0426
21603W        W38451  17.127  16.752  10.963  0.0135 -0.2306 -0.2092
21604W        W38452   5.859   7.917   4.758 -0.2892 -0.1303 -0.1954
21605W        W38453  13.135  15.789   2.600 -0.0813  0.0195 -0.0654
21606W        W38454   1.723  17.849  12.960  0.0526  0.0003 -0.1435
21607W        W38455  16.933   1.902  11.953  0.0139 -0.0156  0.1349
21608W        W38456   4.510  15.534   0.667 -0.0833  0.2681  0.3269
21609W        W38457   4.185  17.650  16.002  0.3354 -0.2955  0.0662
21610W        W38458  13.895   6.152   4.552  0.1265  0.3799 -0.0894
21611W        W38459   7.363  13.582  14.706 -0.0732 -0.2633 -0.0638
21612W        W38460   8.026  11.735   2.998  0.0202  0.1676 -0.1431
21613W        W38461   9.062  17.842   2.532 -0.1043 -0.2821  0.2511
21614W        W38462  11.716  11.552  12.673 -0.2643 -0.1954  0.1662
21615W        W38463  10.938   2.574   4.123 -0.1400 -0.4551 -0.0648
21616W        W38464   5.515   2.186  15.543 -0.2412  0.0866 -0.0104
21617W        W38465  15.900  13.284   3.363 -0.2416 -0.1432 -0.2018
21618W        W38466   4.075   7.990   1.153 -0.1274  0.2328  0.3594
21619W        W38467  17.400   5.696   4.540  0.0311 -0.1705 -0.0770
21620W        W38468   0.568   9.015  14.202 -0.0998 -0.0851  0.0979
21621W        W38469   0.184   3.365   4.644 -0.0449 -0.1773 -0.0381
21622W        W38470  17.226  17.360  14.839  0.0421 -0.1185  0.1099
21623W        W38471   6.493  11.923  16.248 -0.1189  0.1157 -0.1210
21624W        W38472   9.782   0.438   5.546  0.3485 -0.2653  0.0583
21625W        W38473  17.031  14.654   3.136  0.1216  0.1201  0.1623
21626W        W38474   6.221   7.151   3.412 -0.1642 -0.2564 -0.0038
21627W        W38475  13.827  10.530  11.806  0.0154 -0.0214  0.1867
21628W        W38476   0.137  16.750   4.937 -0.0852 -0.0401  0.0473
21629W        W38477   8.851   9.440  14.122 -0.0485  0.1146 -0.0636
21630W        W38478   9.055  16.527   3.166 -0.1905 -0.1547  0.2965
21631W        W38479  13.706   2.429  10.442 -0.1054  0.2159 -0.1498
21632W        W38480  17.223  11.166  13.526  0.0216 -0.0964 -0.2468
21633W        W38481  16.695   4.857  13.588 -0.2912 -0.2514 -0.0978
21634W        W38482   6.186  15.976   6.096  0.0223  0.0269 -0.0340
21635W        W38483   7.331   5.634   2.611 -0.3202  0.0763  0.1136
21636W        W38484  10.562  11.943  13.087  0.1169  0.0813  0.1067
21637W        W38485  15.851  15.398  14.857  0.0055 -0.0238  0.0163
21638W        W38486   6.473  13.101   0.433 -0.1093 -0.2922 -0.1823
21639W        W38487  13.230   1.181   1.631 -0.0176  0.2422 -0.1229
21640W        W38488   5.340   0.964   3.816 -0.2124  0.1847 -0.1892
21641W        W38489  14.756   0.982   4.013  0.0783 -0.0772 -0.3224
21642W        W38490  10.842  17.095  12.624 -0.1760 -0.0791 -0.1542
21643W        W38491  13.435   5.332  16.241 -0.0073 -0.1828  0.2721
21644W        W38492  11.578   7.904  15.921 -0.0694  0.2706  0.1921
21645W        W38493   8.674  15.253  12.991 -0.0230 -0.1507  0.2141
21646W        W38494   9.719   4.605   4.723 -0.0618  0.1348 -0.0723
21647W        W38495   6.135  13.321  13.589 -0.1059  0.0432 -0.0085
21648W        W38496   1.087   3.656   2.606  0.1657  0.0845 -0.2415
21649W        W38497  15.990  13.430  13.931  0.0763  0.0887 -0.1802
21650W        W38498   7.170   3.512   1.602 -0.0509  0.3176  0.3188
21651W        W38499  13.391  11.337   4.669 -0.1420  0.2424 -0.0749
21652W        W38500   0.345   3.483  14.806  0.1206 -0.0569  0.1182
21653W        W38501  12.781   0.815   1.480  0.1688  0.0651 -0.0598
21654W        W38502   8.954   5.728  13.380  0.4533  0.2341 -0.3363
21655W        W38503  13.718   7.074  12.874 -0.3614  0.2120 -0.1689
21656W        W38504   3.810  13.837  11.784  0.1804 -0.1127 -0.0964
21657W        W38505  14.273  15.278  13.564  0.0947 -0.1039 -0.0586
21658W        W38506   3.093  14.855  14.807 -0.0507 -0.1943  0.2321
21659W        W38507  17.656   4.869   4.112 -0.0146 -0.2309 -0.0518
21660W        W38508  17.068   2.388   3.024  0.1108 -0.2233  0.0356
21661W        W38509  14.946   6.436  12.971  0.0498  0.1375  0.1570
21662W        W38510   7.706   8.323  10.863  0.2015 -0.1002  0.0421
21663W        W38511   3.657   6.128  13.176 -0.0255  0.1425  0.1050
21664W        W38512  12.981  12.741   0.803  0.0278  0.1902 -0.0339
21665W        W38513   1.623   0.465  14.816 -0.1930 -0.0519 -0.4069
21666W        W38514   3.013   0.841  15.574  0.2230  0.3078  0.0556
21667W        W38515  11.123  15.490   2.783  0.1478 -0.1354 -0.2398
21668W        W38516  10.398  17.318  15.827  0.0390  0.2396  0.3081
21669W        W38517  14.168  13.299   2.867 -0.0465 -0.2723  0.1081
21670W        W38518   7.041  15.976   1.662  0.2564 -0.2241 -0.1867
21671W        W38519   2.152   7.305  14.203  0.0398 -0.0265 -0.1897
21672W        W38520  11.801  14.809  10.322 -0.3012 -0.0481  0.0684
21673W        W38521   2.123   0.759   2.220 -0.2620  0.2331  0.1262
21674W        W38522   5.978   5.710   4.465 -0.0944 -0.0937 -0.4321
21675W        W38523  13.004  15.559   3.034 -0.1930 -0.0953  0.2934
21676W        W38524  12.606  17.841  12.530 -0.0235 -0.0141 -0.0348
21677W        W38525   5.824  15.437   4.104 -0.0762 -0.3818 -0.0595
21678W        W38526   9.219  13.393   1.750 -0.1272  0.0433 -0.1782
21679W        W38527  11.155   8.844  16.328 -0.4057 -0.0229 -0.1389
21680W        W38528   6.019  14.792  15.804  0.2287 -0.1806 -0.0123
21681W        W38529   7.108   3.521  15.245 -0.0159 -0.1081  0.3599
21682W        W38530   3.920   9.285   3.372 -0.1165  0.1646 -0.3594
21683W        W38531  12.766   5.497  10.381 -0.2074  0.1556 -0.0025
21684W        W38532   2.841  16.368   4.156 -0.3052 -0.0347 -0.3276
21685W        W38533   9.773   6.684  15.531 -0.0742 -0.1383  0.2171
21686W        W38534  16.540   5.643   1.093 -0.0804 -0.3515 -0.1586
21687W        W38535   7.474   7.976   1.890 -0.2107  0.4722 -0.2386
21688W        W38536   7.663   8.465  11.784  0.1113  0.3110  0.0790
21689W        W38537  16.642  15.483  12.124 -0.0950 -0.3093  0.1694
21690W        W38538   2.281   7.858   2.483  0.2013  0.2862  0.1344
21691W        W38539   4.619  15.472  11.365 -0.0968  0.2780  0.1158
21692W        W38540  15.521   9.220   3.246  0.0712 -0.0092 -0.0360
21693W        W38541   1.683   0.958  12.008  0.1888 -0.1520 -0.0020
21694W        W38542  17.200   5.564  14.117 -0.3764  0.1138  0.0853
21695W        W38543   7.599  17.577  11.277 -0.0132  0.1414  0.1816
21696W        W38544   3.540   1.212   4.149  0.0754  0.2914  0.0164
21697W        W38545  14.007  13.482  12.046 -0.3103 -0.1111 -0.1010
21698W        W38546  12.240  12.746  13.231 -0.1841 -0.0652 -0.3448
21699W        W38547  16.064  10.744  12.871  0.0817 -0.1967 -0.0535
21700W        W38548  15.025   4.390   0.125  0.2025  0.3048 -0.3630
21701W        W38549  14.509   9.695  13.110  0.2628  0.1429 -0.0694
21702W        W38550   5.756  17.668  11.917 -0.3815 -0.1117  0.2429
21703W        W38551  13.076   1.675  11.247 -0.1121  0.2591  0.2296
21704W        W38552   5.020  14.454   3.357 -0.1404 -0.0310 -0.2957
21705W        W38553   0.408  10.507   2.275 -0.1180 -0.0813 -0.1049
21706W        W38554  13.261   5.455  13.135 -0.0444 -0.2989  0.1727
21707W        W38555   4.948   9.468  15.309  0.0897 -0.0645  0.1959
21708W        W38556   1.647  10.204   1.698  0.0364 -0.5709 -0.0050
21709W        W38557   2.032  11.358  14.365  0.0695 -0.0553  0.1429
21710W        W38558  16.212  10.079  12.883 -0.3328 -0.2800 -0.0068
21711W        W38559   4.804   6.228  16.316 -0.3016  0.3679  0.0248
21712W        W38560  10.686  11.511   1.063  0.0379  0.0070 -0.2005
21713W        W38561  13.060   3.473  12.939  0.1289  0.1325 -0.0952
21714W        W38562  16.464   5.207   1.886 -0.2917 -0.1635  0.0267
21715W        W38563   7.706  11.632   4.561 -0.0342 -0.0830 -0.1170
21716W        W38564  15.354   6.510  11.184  0.3432  0.4822  0.1531
21717W        W38565   3.211   4.436   0.428 -0.1301  0.0728 -0.0382
21718W        W38566  13.548  14.728  12.707  0.1535 -0.0129  0.2626
21719W        W38567  15.659   1.141  14.217  0.1105 -0.0601  0.2519
21720W        W38568   7.945   1.649  13.378 -0.3075 -0.2476 -0.0905
21721W        W38569   7.298  10.412  13.617 -0.0669  0.2707  0.3102
21722W        W38570   3.923  12.893   3.147  0.0888  0.1683  0.1284
21723W        W38571   5.395   8.502  16.278  0.0543  0.1122 -0.1261
21724W        W38572   6.854  15.050   6.160 -0.3211 -0.2651  0.0960
21725W        W38573   5.206   3.087  14.265 -0.1322 -0.3782  0.3821
21726W        W38574  10.826   5.271   4.284 -0.0530  0.1425 -0.1074
21727W        W38575   5.088   2.367  15.556 -0.1755  0.1396 -0.0704
21728W        W38576  12.029  17.240  12.558  0.1812  0.1741 -0.1887
21729W        W38577  16.884   9.319   0.753 -0.0724 -0.1111 -0.0935
21730W        W38578  17.505   0.822   0.001  0.0508 -0.1259 -0.2108
21731W        W38579   0.392   0.901  15.504 -0.1144  0.3611  0.1061
21732W        W38580   4.291   3.021  16.034 -0.0774 -0.0660  0.2551
21733W        W38581   7.682  16.034  16.095  0.2729  0.5380 -0.2729
21734W        W38582   9.111  14.005   4.492 -0.3886  0.0854 -0.0562
21735W        W38583  13.274  14.576  14.925  0.0094  0.0071  0.0630
21736W        W38584  10.718   0.428   2.910 -0.0711  0.1373  0.3341
21737W        W38585  15.206   6.705  15.505  0.4229 -0.3221  0.1486
21738W        W38586  14.859  14.087  12.046 -0.1445 -0.1626  0.1788
21739W        W38587   8.312  14.875   3.657  0.1647 -0.1638 -0.3362
21740W        W38588   3.484  16.633   3.120  0.2670 -0.1177 -0.0469
21741W        W38589   1.255   0.280  14.420  0.0357 -0.3949 -0.3572
21742W        W38590   4.159   0.770  12.693  0.1258 -0.0606  0.2763
21743W        W38591   7.308  17.029  13.068  0.0099 -0.2730 -0.0838
21744W        W38592   8.864   6.874   5.560 -0.0025  0.0688 -0.0220
21745W        W38593   6.134  11.791   1.687 -0.1968  0.0704 -0.3617
21746W        W38594  17.647  11.867  14.468  0.0061  0.2348  0.0252
21747W        W38595   9.792   6.770   0.695 -0.1565  0.1253 -0.1069
21748W        W38596   0.674   1.151  14.475 -0.2112  0.2187  0.2695
21749W        W38597   3.520   5.033  15.006 -0.1457 -0.0818 -0.3444
21750W        W38598  14.918  10.080  13.185 -0.1804  0.1143  0.0236
21751W        W38599  14.503  11.005   0.667 -0.1720  0.1992 -0.0724
21752W        W38600   1.246   0.958  13.742  0.2250  0.0892 -0.0934
21753W        W38601   1.535   8.409  11.159  0.0928  0.0680 -0.1458
21754W        W38602   1.895   4.255  12.207 -0.0405 -0.1035 -0.0668
21755W        W38603   3.338   6.986  10.635  0.3369  0.1312 -0.3163
21756W        W38604   1.429   6.767   1.480  0.1476 -0.0507  0.0356
21757W        W38605   8.165  13.605  15.505  0.0806  0.0904 -0.4548
21758W        W38606   6.403   5.952   2.693  0.0280  0.2555 -0.0202
21759W        W38607  11.157   7.195   4.196 -0.0988  0.2093  0.1031
21760W        W38608   0.916  15.693  14.638 -0.0791 -0.2276  0.0078
21761W        W38609  17.281  13.817   2.295  0.0502 -0.0956 -0.1647
21762W        W38610  13.800   5.268   1.859 -0.2227  0.0292 -0.1209
21763W        W38611   7.691   1.780   5.530  0.2967 -0.2468  0.1551
21764W        W38612  10.516  12.807   0.990  0.1099  0.2674  0.1976
21765W        W38613  15.109  11.972   1.961 -0.0982  0.4809 -0.4298
21766W        W38614   2.258   0.723   3.054 -0.1191  0.0493 -0.1083
21767W        W38615  17.027  14.411  13.615 -0.3165 -0.3213  0.4151
21768W        W38616   3.505   0.715  15.281 -0.0180 -0.1611  0.1265
21769W        W38617   5.517  14.629   0.068 -0.0232 -0.1417  0.1430
21770W        W38618   9.691  14.007   1.886 -0.0129  0.0626 -0.0475
21771W        W38619  11.573  14.013  11.411 -0.1759 -0.1363  0.0832
21772W        W38620   2.850  12.353  12.910  0.0863 -0.0803  0.1557
21773W        W38621   3.496   6.008   2.730  0.2530  0.1317 -0.2542
21774W        W38622  12.437  17.614   2.880  0.0088 -0.0051 -0.2881
21775W        W38623   2.152  10.244   3.311  0.1051 -0.0031 -0.0040
21776W        W38624  17.685  13.973   3.770  0.3291 -0.0688  0.2034
21777W        W38625   2.534  15.767   0.772  0.1292 -0.3539 -0.0057
21778W        W38626   5.810  14.096   3.975 -0.0136 -0.3099  0.3494
21779W        W38627   0.467   9.632   3.330 -0.1463 -0.0668  0.1809
21780W        W38628   5.044   7.700   4.905  0.2160 -0.2001 -0.4010
21781W        W38629   6.646   1.910   1.346  0.1037  0.1691 -0.0923
21782W        W38630   8.963   3.496   1.132  0.1728 -0.2497  0.0698
21783W        W38631   9.805   1.483   0.509 -0.0059  0.0886  0.3433
21784W        W38632  11.027  13.664  16.280 -0.1164  0.0219  0.1928
21785W        W38633  11.992  17.550   1.952  0.1024  0.1149 -0.1176
21786W        W38634   2.480  12.952  11.911 -0.1521 -0.1852 -0.0171
21787W        W38635  15.547   7.487   2.502  0.0298  0.0329  0.1278
21788W        W38636   3.376   1.672   3.868 -0.1008  0.1738 -0.0728
21789W        W38637   5.565   7.405   3.085 -0.0679 -0.0916 -0.0368
21790W        W38638   1.833  15.369  12.501 -0.2288  0.0260  0.1073
21791W        W38639  15.567  13.565   4.338 -0.1947  0.0556 -0.1616
21792W        W38640   1.518  11.764   2.767  0.0397 -0.1269 -0.0486
21793W        W38641   7.525  12.803  12.139 -0.1467 -0.2631  0.1304
21794W        W38642   9.451   2.541   1.834  0.0704 -0.3375  0.1573
21795W        W38643   5.795   9.655   1.241  0.3426 -0.2240  0.0108
21796W        W38644  14.902   4.937  14.977  0.0521  0.0918 -0.0541
21797W        W38645  10.770  15.267  11.595  0.1536  0.0446 -0.2537
21798W        W38646  11.704  10.089  14.988  0.0313  0.2663 -0.0222
21799W        W38647   5.741   5.116  15.157 -0.0418 -0.0250 -0.0955
21800W        W38648   4.445   8.080  15.585  0.1116 -0.0164 -0.0270
21801W        W38649   2.793   4.554   1.793  0.3287 -0.2363 -0.1423
21802W        W38650   6.847   1.697  14.302 -0.2572  0.0609 -0.0186
21803W        W38651  15.598   8.000   0.982 -0.1174  0.1285 -0.0218
21804W        W38652   4.322   0.422   2.316 -0.1212 -0.2104 -0.0471
21805W        W38653  15.035  17.636   4.464 -0.2020 -0.2624 -0.2521
21806W        W38654  13.937  11.432   3.991 -0.0945  0.1461  0.2199
21807W        W38655  16.217  13.040   2.969 -0.2775  0.0276  0.0426
21808W        W38656   0.195   7.493   0.341 -0.0248  0.5275 -0.2122
21809W        W38657  17.786   1.998  11.918 -0.1889  0.2923  0.0395
21810W        W38658   8.079  15.130   5.232 -0.1421  0.2962 -0.0117
21811W        W38659   6.527  10.595  14.617  0.0633  0.0296 -0.1170
21812W        W38660   9.609  13.845   5.050  0.1040  0.1536 -0.1868
21813W        W38661   4.732   8.997  15.392 -0.0345  0.1695  0.1931
21814W        W38662   6.625   6.881   2.572 -0.1864  0.2245  0.0244
21815W        W38663  13.636   9.465   5.045 -0.0906 -0.0416 -0.3467
21816W        W38664   0.556  10.937  12.279  0.2598 -0.2046  0.0582
21817W        W38665  17.596   5.207  12.089  0.0583 -0.0676 -0.1048
21818W        W38666  15.628   1.801   0.337 -0.1047  0.2464  0.1783
21819W        W38667  10.595   4.439   4.839 -0.0235 -0.3374 -0.1076
21820W        W38668   5.881  12.542   2.803 -0.0283 -0.1460  0.2634
21821W        W38669   2.157   5.239   4.102  0.0765  0.1953 -0.2158
21822W        W38670   5.811  11.516   4.027  0.1227  0.2912 -0.2151
21823W        W38671   3.708   2.632  11.477 -0.0624 -0.2801 -0.0526
21824W        W38672   5.344   6.949  14.445  0.1052 -0.2573 -0.0697
21825W        W38673   2.747   9.628  13.590 -0.1313  0.0021 -0.1007
21826W        W38674   3.522  12.320   3.725 -0.2638  0.1655  0.0842
21827W        W38675  11.100  12.441  15.096  0.3085 -0.2658  0.0382
21828W        W38676   6.573  14.296   2.000 -0.3026 -0.2346  0.1684
21829W        W38677   9.525  14.790  15.532 -0.0161  0.0484  0.0485
21830W        W38678   5.750  14.684  14.333 -0.2230  0.1813  0.1013
21831W        W38679  17.581  16.337   4.852 -0.1323 -0.1391 -0.3457
21832W        W38680  13.224  16.900  16.302  0.0741 -0.1471 -0.1846
21833W        W38681  10.552   7.822   5.406 -0.0024 -0.1372  0.0720
21834W        W38682  17.682   2.113  15.486 -0.2710 -0.1309 -0.0269
21835W        W38683   0.002  11.256  12.620 -0.5090 -0.0241  0.0843
21836W        W38684  12.708  12.635   3.427 -0.2290  0.0562 -0.0139
21837W        W38685  12.379  15.873   2.634  0.2649  0.0760 -0.1953
21838W        W38686  10.833  11.624  15.521 -0.1169  0.4218  0.0077
21839W        W38687  10.396   7.779  13.307 -0.0606 -0.3158  0.5266
21840W        W38688   1.902   9.257   3.598 -0.1359 -0.0328 -0.1902
21841W        W38689   5.725  16.310  13.901 -0.1534 -0.3160 -0.2434
21842W        W38690   4.035   2.806  15.629 -0.1167  0.0896  0.0785
21843W        W38691   3.473  16.130  12.404  0.0733  0.3025  0.1405
21844W        W38692   2.339  17.664   5.462  0.1430  0.0794 -0.0352
21845W        W38693   3.222   2.348  16.111  0.2804  0.0234  0.2576
21846W        W38694   2.230   4.285   3.423 -0.3063  0.2172 -0.0307
21847W        W38695   3.449   2.118   6.561  0.1004 -0.0845 -0.4312
21848W        W38696   7.380   9.943   1.519 -0.1310  0.0125  0.1596
21849W        W38697  12.184  15.011  15.738 -0.1134 -0.0297 -0.2841
21850W        W38698   3.459  16.495  15.869 -0.0416  0.0408  0.2148
21851W        W38699   0.768   9.399  16.425 -0.0257 -0.2300 -0.1469
21852W        W38700   3.025  14.587   1.324  0.3007  0.1030 -0.0591
21853W        W38701   0.920   4.919   0.215 -0.0234 -0.0357 -0.2243
21854W        W38702  14.904   1.054  13.937  0.0382 -0.3734  0.0531
21855W        W38703   1.178  16.606  14.327 -0.0781 -0.2148  0.2594
21856W        W38704   7.861  14.036   0.727 -0.1672  0.0319  0.0332
21857W        W38705   3.286  17.415  16.266 -0.1705  0.0500 -0.1628
21858W        W38706  12.537   4.326  16.045  0.3147  0.1150  0.2668
21859W        W38707   8.911  10.383   3.678 -0.1229 -0.2568  0.3595
21860W        W38708  10.413   6.763  11.528  0.0405 -0.0851 -0.0326
21861W        W38709   4.793   3.224  14.455  0.1233  0.0672  0.0407
21862W        W38710  11.331  10.209  13.125  0.1086 -0.0419  0.0570
21863W        W38711   7.162   7.874   5.277  0.0692 -0.1974  0.0071
21864W        W38712  14.528   5.974  12.707 -0.0285  0.1768 -0.1102
21865W        W38713  11.222   3.583   3.516 -0.0034 -0.1463 -0.1696
21866W        W38714   1.157   9.283  11.713 -0.1224  0.1517 -0.0979
21867W        W38715  17.837   2.553  15.264  0.0587 -0.1100  0.0083
21868W        W38716  16.116   7.510  13.062  0.3035  0.0896 -0.0573
21869W        W38717  15.157   5.296   1.643  0.0127 -0.1119  0.0786
21870W        W38718  15.025   6.614  16.389 -0.0105  0.0243 -0.1426
21871W        W38719   8.122  12.511  15.740 -0.1832 -0.4091 -0.1600
21872W        W38720   5.885   5.737   4.985 -0.1686  0.0488 -0.4667
21873W        W38721   7.722  15.512  14.981  0.0349  0.0494  0.1623
21874W        W38722  11.982  16.956  13.442 -0.1012 -0.1623 -0.1704
21875W        W38723  14.397  17.777  11.787 -0.0772  0.0371  0.0396
21876W        W38724   1.728   4.773  13.236 -0.0370  0.0606  0.0834
21877W        W38725  10.247   9.272  11.579  0.2322  0.0961  0.1952
21878W        W38726   4.893  14.403  15.132 -0.2629 -0.1756 -0.0805
21879W        W38727   5.533   6.890  15.373 -0.2147 -0.2928  0.0035
21880W        W38728  15.320   6.936   0.308 -0.0130 -0.1185 -0.0880
21881W        W38729  10.335   2.421  13.918  0.1928  0.1699  0.0591
21882W        W38730  15.313   2.205  15.640 -0.0335 -0.0639  0.1955
21883W        W38731   6.531  14.530  12.253 -0.0012 -0.1534  0.0996
21884W        W38732  15.277   5.820   1.816 -0.1143 -0.3174 -0.1782
21885W        W38733   0.371  14.044   2.627 -0.1950 -0.1219  0.0430
21886W        W38734   5.476   7.287   0.747 -0.1318  0.3258 -0.2589
21887W        W38735   1.727   5.528  14.751 -0.1460 -0.1756  0.1014
21888W        W38736   3.403   4.194   4.956 -0.0700 -0.1100 -0.0295
21889W        W38737   0.293  14.672  12.079  0.1214  0.0666 -0.1635
21890W        W38738   3.461  10.598   4.280  0.1292  0.4430  0.2803
21891W        W38739   0.269  12.913  10.366 -0.0838 -0.0747  0.0191
21892W        W38740   8.170  17.496  14.401 -0.0333 -0.0085 -0.0183
21893W        W38741   8.168  16.915   0.502 -0.2316 -0.0354  0.1388
21894W        W38742  11.550  15.332  13.932  0.1327 -0.0235  0.0903
21895W        W38743  13.689   0.241   3.649  0.0884  0.2484 -0.2383
21896W        W38744   6.349  12.290  10.515  0.2885  0.0507  0.1451
21897W        W38745   9.958  15.050  12.123 -0.1607 -0.0075  0.0193
21898W        W38746  16.930  16.378   1.963  0.0104 -0.0326  0.0031
21899W        W38747  12.036   1.233  12.411 -0.4092 -0.1521 -0.0476
21900W        W38748   3.922   6.988   1.004 -0.1610 -0.2690  0.1926
21901W        W38749   3.004   3.238   2.930  0.1102  0.3241 -0.0751
21902W        W38750   7.212  17.388   4.373  0.1986  0.0445 -0.0167
21903W        W38751   7.722  15.768  12.878 -0.1932  0.1018  0.1794
21904W        W38752   5.802  12.062   2.654 -0.1222 -0.3836  0.1533
21905W        W38753   5.840  15.123   1.626 -0.0090 -0.0259  0.2892
21906W        W38754   3.167   0.474  13.562 -0.0010  0.0352  0.0173
21907W        W38755  16.200  17.339  12.286 -0.0799 -0.1624  0.1304
21908W        W38756  10.342   9.968   1.312  0.0655  0.1186 -0.1466
21909W        W38757  12.660   4.190   0.195 -0.1437  0.0517 -0.3649
21910W        W38758   6.615   2.196   1.861 -0.1831 -0.0521  0.1417
21911W        W38759  11.764  16.219  13.417 -0.2758 -0.2532 -0.0381
21912W        W38760   6.208   5.433  14.577 -0.1499  0.0909  0.3632
21913W        W38761  10.708  15.065   2.650  0.0878  0.0586  0.0543
21914W        W38762  12.309   4.346   1.914 -0.0091 -0.2711 -0.0229
21915W        W38763   3.143   8.731   5.258  0.0114 -0.1754  0.3114
21916W        W38764  13.146  12.209  15.668 -0.0467 -0.2043 -0.1787
21917W        W38765  13.729   1.840   4.483 -0.0638  0.1145  0.0679
21918W        W38766   6.359   7.944  13.893  0.0136  0.2359  0.1378
21919W        W38767  12.198   5.254   0.190  0.0411  0.3039  0.1658
21920W        W38768   0.073   0.797   0.200  0.3256 -0.0109 -0.1274
21921W        W38769   0.499   3.847   2.627 -0.2370 -0.2427 -0.2634
21922W        W38770  14.013  12.302  11.920  0.2233 -0.0149  0.2146
21923W        W38771   9.837   3.230   0.659  0.0928 -0.0208  0.1434
21924W        W38772   9.808  14.298  15.660 -0.1338  0.4255 -0.0663
21925W        W38773   3.044   5.274   2.265  0.0753  0.1470  0.0808
21926W        W38774   5.088  17.578   0.460 -0.2292 -0.0955 -0.0989
21927W        W38775  10.301   1.186  13.088 -0.1079  0.0848 -0.0222
21928W        W38776   0.276   8.012  15.025  0.3342  0.1906  0.0243
21929W        W38777   6.525   8.036  11.204  0.1693  0.3640  0.0713
21930W        W38778   1.823   7.077   1.477  0.1762  0.2465  0.1711
21931W        W38779   2.969  11.555   1.977  0.1181 -0.0064  0.1251
21932W        W38780   2.306   8.310   2.929  0.4602 -0.2526  0.5431
21933W        W38781  10.635   7.114   1.869  0.0287 -0.1049 -0.2389
21934W        W38782   5.365   5.722   2.124 -0.0431  0.1778 -0.2804
21935W        W38783   7.391   2.465  13.918  0.0226 -0.4066 -0.1932
21936W        W38784   8.402   0.707   3.177  0.1187  0.0116 -0.1374
21937W        W38785   7.254   9.709  15.770  0.2930  0.0255  0.1541
21938W        W38786   2.721  16.513   2.578 -0.0846 -0.1842  0.1680
21939W        W38787   9.788  10.272   3.434  0.0161  0.0080  0.1753
21940W        W38788  13.095   0.762  15.525  0.2578 -0.0991 -0.2769
21941W        W38789   8.088   4.151  15.745  0.1599  0.5940  0.0676
21942W        W38790   0.233   6.862  10.426 -0.0394  0.3798  0.1967
21943W        W38791   5.110   4.464   4.914  0.2747  0.0300 -0.1279
21944W        W38792   2.316   8.274  15.735 -0.0791  0.0929  0.2697
21945W        W38793  12.038  17.703  12.325  0.1198 -0.1553 -0.1011
21946W        W38794  17.859  13.725   4.611  0.0235 -0.3508  0.0815
21947W        W38795  17.375   1.258   0.295 -0.0329  0.0639 -0.0197
21948W        W38796   4.546  13.526  12.731  0.2001  0.1942  0.0428
21949W        W38797   2.846   2.228   2.353 -0.1018 -0.3017 -0.0225
21950W        W38798  12.046   6.344   1.013 -0.0130  0.0086  0.4281
21951W        W38799   9.482   0.378   4.076 -0.1180  0.0618 -0.0983
21952W        W38800   1.692  13.743  11.907 -0.0755 -0.5247  0.4126
21953W        W38801   0.243  11.817  13.924 -0.2790 -0.2758  0.1762
21954W        W38802   0.114   9.608   2.193  0.0451 -0.0368  0.0468
21955W        W38803   3.733   6.592  14.130  0.1751 -0.0903  0.1283
21956W        W38804   9.048   5.917   5.596 -0.0445 -0.0901 -0.2219
21957W        W38805  16.466   7.137  13.063 -0.1449  0.0356 -0.0129
21958W        W38806   1.297  13.090  10.842 -0.0087 -0.0668 -0.2444
21959W        W38807   4.451   9.654  15.165  0.1471  0.0139 -0.1215
21960W        W38808  14.464  13.042  15.942  0.0502  0.0555  0.0546
21961W        W38809  15.029   9.744  16.240 -0.1751 -0.1230 -0.3297
21962W        W38810   5.799  11.665  14.150 -0.1658 -0.1240  0.1476
21963W        W38811   5.544   7.913  14.516 -0.4230 -0.3543 -0.0351
21964W        W38812  11.502  10.510  13.936  0.3433  0.0021 -0.0575
21965W        W38813   7.059  12.390   0.833 -0.0870  0.0356  0.1939
21966W        W38814  10.434   3.480   1.285  0.2691 -0.0373  0.0245
21967W        W38815  17.733   7.349   5.215  0.0392 -0.1949 -0.3522
21968W        W38816   3.595   7.913   3.516  0.1838  0.1615 -0.2670
21969W        W38817   1.892   3.918   2.758  0.0298 -0.0276  0.0163
21970W        W38818   4.865  17.194   5.886  0.0907 -0.1417 -0.0250
21971W        W38819  11.030   4.190  15.226 -0.0311  0.1520  0.1418
21972W        W38820  11.511   0.637   0.786 -0.0958  0.0146 -0.1747
21973W        W38821   6.790   1.214  14.266  0.4201  0.0610 -0.2308
21974W        W38822   9.339   6.980   0.664  0.3078  0.0122  0.0835
21975W        W38823  11.695  16.983   3.445 -0.0431 -0.0419 -0.1476
21976W        W38824  10.995  13.937  13.922  0.0509  0.2768  0.0639
21977W        W38825   3.314   1.222   2.270 -0.0988  0.1177  0.1305
21978W        W38826   3.625   8.820   1.327 -0.0027 -0.1677  0.0476
21979W        W38827   7.833  12.453   3.180  0.0246 -0.2531  0.0176
21980W        W38828  14.800   0.724   3.172  0.2517  0.1490  0.1147
21981W        W38829  10.032  13.626   3.362 -0.3840 -0.1955  0.2294
21982W        W38830  17.469   0.383   2.827  0.2280 -0.2495 -0.0180
21983W        W38831   6.940   4.299   4.190 -0.1052 -0.0480 -0.0145
21984W        W38832   9.125   1.761   1.258  0.3089  0.0594 -0.0812
21985W        W38833  10.754   0.749  13.656  0.0683  0.0594  0.1492
21986W        W38834   9.907   4.970  14.830  0.1667  0.3885 -0.0311
21987W        W38835   3.121  13.491  12.111  0.1865 -0.0626  0.0924
21988W        W38836  13.358   0.043  12.091 -0.0571  0.0999 -0.1984
21989W        W38837   4.546   5.858   4.933 -0.0517  0.1893  0.0208
21990W        W38838   9.503   5.268   1.777  0.1233 -0.0603 -0.3011
21991W        W38839   2.089   7.621   5.594 -0.0289  0.2154  0.0971
21992W        W38840   2.734  14.848   4.836  0.0926 -0.1849 -0.0594
21993W        W38841  17.092  17.881  13.077 -0.1034  0.5355  0.0091
21994W        W38842  10.892   2.836   1.466  0.2083 -0.2934  0.0100
21995W        W38843  14.347   1.118  12.886 -0.1400 -0.0725  0.0309
21996W        W38844  10.265   6.922   5.555 -0.1998  0.2375  0.0537
21997W        W38845   8.649  17.595  14.400  0.1026 -0.2077  0.0684
21998W        W38846   3.379  15.123   4.415 -0.3878 -0.1252  0.1692
21999W        W38847   4.686  16.324   4.369  0.1025 -0.0547 -0.0617
22000W        W38848   6.862  16.461   3.467 -0.0013  0.3617 -0.1417
22001W        W38849   2.392  11.845   6.047  0.0138 -0.1274  0.1375
22002W        W38850  13.396  11.993  11.740 -0.0117 -0.0116 -0.3670
22003W        W38851  17.144   3.930  16.170  0.1076  0.2370  0.1419
22004W        W38852  10.681  10.700   4.857  0.0724 -0.1812 -0.0273
22005W        W38853   2.365  10.932  15.277 -0.0804  0.0497 -0.0461
22006W        W38854   8.698  11.209  16.468  0.0503  0.1959  0.2429
22007W        W38855   9.697   3.846  15.046  0.0355  0.1826 -0.1877
22008W        W38856   5.311   9.457   4.885  0.3431  0.0011 -0.2321
22009W        W38857  11.013  15.757  15.536 -0.0674 -0.0517  0.1422
22010W        W38858   8.973  17.597  11.797  0.1450  0.0154 -0.2133
22011W        W38859   6.300   8.000  15.456 -0.2448  0.2050  0.1675
22012W        W38860   7.714  14.756   2.860 -0.1126 -0.0818 -0.0510
22013W        W38861   2.154   6.845   0.575 -0.0812  0.0377 -0.0734
22014W        W38862   6.307  11.010  14.460 -0.0605 -0.0369 -0.0780
22015W        W38863   6.322   0.908  14.071 -0.0307  0.3191 -0.1327
22016W        W38864  13.194  10.585  15.375 -0.3197  0.1110 -0.0651
22017W        W38865   1.653   7.510   1.509  0.2155  0.0032  0.2401
22018W        W38866  11.248  16.774  12.773 -0.2953 -0.1004 -0.1784
22019W        W38867  10.890  13.839  15.294 -0.0724 -0.0824  0.2692
22020W        W38868   5.041  13.894   3.528  0.3955 -0.0128 -0.0239
22021W        W38869  17.192  12.120  15.955 -0.0412 -0.0260  0.3026
22022W        W38870   6.021  14.193  11.593  0.0331  0.0250  0.2386
22023W        W38871  16.173   2.377   4.221 -0.1945 -0.0277 -0.2219
22024W        W38872  16.503   7.894   4.915  0.1428 -0.1081  0.0483
22025W        W38873   5.038   9.538  11.891 -0.0855  0.3040  0.0901
22026W        W38874  15.775  16.413  12.545  0.0699  0.0748  0.1928
22027W        W38875  13.456   2.861  14.245  0.1290 -0.2625 -0.1252
22028W        W38876   4.225  16.797   3.738 -0.0438  0.0095 -0.1602
22029W        W38877  10.738  16.187  15.029  0.0173  0.1209 -0.1428
22030W        W38878  16.759   1.628  15.228  0.1388 -0.0801  0.0622
22031W        W38879  13.603  12.015   4.108 -0.2851  0.1801  0.0715
22032W        W38880   6.014   2.546  16.195 -0.0770  0.2068 -0.1665
22033W        W38881  17.017  11.900   3.010 -0.1362 -0.1861  0.3135
22034W        W38882  15.213  15.785   0.279 -0.0146  0.0692 -0.0430
22035W        W38883   1.461  11.311   3.085  0.0287 -0.2847  0.1737
22036W        W38884   2.946   7.926   4.978 -0.0685 -0.0791  0.0103
22037W        W38885  14.176  10.115  10.996  0.0288 -0.3435  0.1415
22038W        W38886  12.712   2.682  10.385 -0.1228  0.1271 -0.2657
22039W        W38887   3.048  14.744   5.204  0.0898 -0.3575 -0.0331
22040W        W38888  15.044   4.128  12.449  0.1108  0.1254  0.3208
22041W        W38889   0.006   3.054  13.041  0.1294  0.0578  0.0741
22042W        W38890  15.790   5.874  15.803  0.3069  0.1166 -0.1290
22043W        W38891   7.439  12.057  14.584  0.0913 -0.0315  0.0444
22044W        W38892  17.346  16.382  12.877  0.4454 -0.1592  0.3260
22045W        W38893  13.992   2.840   3.942 -0.4707  0.2435  0.0836
22046W        W38894   3.612  12.449  12.321  0.2234 -0.1837 -0.0497
22047W        W38895   0.373   4.489  16.002  0.2501 -0.1094 -0.1785
22048W        W38896  12.875   8.448  13.393 -0.2102  0.0874 -0.2162
22049W        W38897   7.639  16.775   3.767  0.0568 -0.0464  0.1104
22050W        W38898   0.384   3.708  13.783 -0.1150  0.2354 -0.1578
22051W        W38899   1.856   8.475   4.319  0.0739  0.0422 -0.0470
22052W        W38900  10.618   5.573   1.134 -0.0617  0.4408  0.3137
22053W        W38901   8.803   8.273  10.457 -0.0034  0.1285 -0.5511
22054W        W38902  14.907   1.600  14.014 -0.0897  0.2219  0.3949
22055W        W38903   9.410  15.126   0.790  0.0581  0.2580  0.4265
22056W        W38904  17.168  17.252   1.622 -0.1869 -0.0884 -0.1364
22057W        W38905   0.313   1.224   2.172 -0.0208 -0.1253  0.0216
22058W        W38906  15.789  11.666   4.257 -0.0882 -0.1900 -0.0312
22059W        W38907   6.391   4.299  15.742  0.6461 -0.2828 -0.0214
22060W        W38908  11.898   5.312  11.714 -0.0542  0.2657 -0.1378
22061W        W38909   5.344  12.674  15.773 -0.1114  0.1759  0.1584
22062W        W38910   3.114   9.133   2.810 -0.1734 -0.1832 -0.1429
22063W        W38911  12.076   1.596  12.102  0.0297  0.2700  0.1389
22064W        W38912  16.110  11.805   2.879  0.1646  0.3607  0.0363
22065W        W38913   2.561  14.384  10.549 -0.3282 -0.1059 -0.0224
22066W        W38914   5.423   9.707  13.920 -0.2048 -0.0015 -0.1063
22067W        W38915  13.410   5.523   3.138  0.0307 -0.1218 -0.0653
22068W        W38916  14.080   5.736   1.510  0.1342 -0.1601 -0.1251
22069W        W38917  11.173  16.020   5.130  0.1120 -0.1466 -0.0287
22070W        W38918  10.036   4.089  12.666  0.1698 -0.1257  0.0849
22071W        W38919  13.447  14.779  15.677 -0.1499 -0.2500 -0.0518
22072W        W38920  16.303  13.332  16.440  0.2442  0.3097  0.2266
22073W        W38921   3.975   4.861   2.120 -0.2282  0.1741  0.3427
22074W        W38922  15.011   3.651  12.291 -0.0005 -0.1662 -0.0585
22075W        W38923  10.335  13.323   3.657 -0.1145  0.1053  0.0962
22076W        W38924   8.489  15.846   2.808  0.0968  0.0158 -0.0251
22077W        W38925   3.026   4.248   1.441 -0.1878 -0.0547  0.0608
22078W        W38926   9.114  11.569   2.390 -0.1940  0.2605 -0.1195
22079W        W38927  17.876  14.928   5.294  0.1014  0.1229 -0.1245
22080W        W38928   4.476   1.131   3.466  0.1368 -0.1035  0.0541
22081W        W38929   1.299   2.140  12.057  0.2779 -0.0879  0.0262
22082W        W38930   9.544   8.873  11.587 -0.2706  0.0424  0.1511
22083W        W38931  16.059   3.140  12.180 -0.1151 -0.0262  0.0406
22084W        W38932  13.293  12.354   0.790  0.2347  0.0664  0.1579
22085W        W38933   5.446  11.804  11.838  0.0810 -0.0720 -0.4145
22086W        W38934   5.485   7.620  12.542 -0.0322 -0.2450 -0.2470
22087W        W38935  11.328   0.890  15.355  0.1319 -0.2084  0.1003
22088W        W38936  15.929   5.043  13.847 -0.2351  0.1142 -0.1244
22089W        W38937  10.373  11.417  12.924 -0.0233 -0.0424  0.0719
22090W        W38938  13.809  16.143   0.764 -0.2336  0.0467 -0.0766
22091W        W38939   1.518   6.352  13.245 -0.1061 -0.2159  0.0515
22092W        W38940   6.165   1.728  12.526  0.3015 -0.2605  0.3485
22093W        W38941   7.732   8.316   1.526 -0.2457 -0.1122 -0.0582
22094W        W38942   3.947  15.738   4.922  0.1407 -0.0798  0.0687
22095W        W38943  16.404   3.235  14.026  0.0307 -0.0740  0.1165
22096W        W38944   3.826  14.686  10.544  0.1641  0.0969  0.0288
22097W        W38945   0.254  15.768  12.763  0.0957  0.0404  0.1409
22098W        W38946  11.086   4.197   3.543  0.2639  0.1695 -0.2314
22099W        W38947  12.198   6.697   0.254  0.3952 -0.0543 -0.3568
22100W        W38948   6.538  10.399   4.747  0.1300  0.1992 -0.0919
22101W        W38949   8.640   1.040  15.983 -0.1217  0.2116 -0.1945
22102W        W38950   1.788   8.559  13.843 -0.0198  0.1189 -0.2203
22103W        W38951   4.464  17.455   6.059 -0.2196 -0.0687  0.0768
22104W        W38952   5.486  10.043  16.457  0.0237 -0.0322 -0.2919
22105W        W38953   4.355  15.129  13.537 -0.1517  0.0703  0.2787
22106W        W38954  17.366   7.963  15.753 -0.3470  0.0045 -0.0880
22107W        W38955   7.380   0.931   5.096 -0.2702  0.3356  0.0193
22108W        W38956  16.873   5.048   1.651 -0.1742 -0.0867  0.1520
22109W        W38957  12.201   4.719   0.383  0.0041  0.0464  0.0929
22110W        W38958  11.142  15.934   2.550 -0.1840 -0.1606  0.0106
22111W        W38959  14.744  16.713  12.207  0.1051 -0.1054  0.0397
22112W        W38960  14.414  13.331   3.356  0.0740  0.2577 -0.0363
22113W        W38961  10.835  17.567  11.536  0.0676 -0.0812 -0.0263
22114W        W38962   3.301  14.038  15.520 -0.1991  0.1403  0.0039
22115W        W38963   3.488   7.216  14.751 -0.2340  0.4477  0.1022
22116W        W38964  11.001  12.446  12.908 -0.2274 -0.2437 -0.0348
22117W        W38965  11.969   7.162  12.603 -0.1249  0.0373  0.3676
22118W        W38966  14.491  14.979   0.415  0.0834  0.1454  0.0756
22119W        W38967   8.512   4.362   1.617  0.0672  0.1440  0.0336
22120W        W38968   5.155   7.471   3.483 -0.0885  0.0045 -0.1473
22121W        W38969  14.367  11.111  13.063 -0.2173  0.0583 -0.0528
22122W        W38970  16.472  11.169  15.981  0.2985  0.0401 -0.1863
22123W        W38971   3.192   9.237   5.935  0.1272 -0.0973  0.2423
22124W        W38972  16.214   4.431   2.136 -0.0651  0.0711  0.3325
22125W        W38973   5.667  16.066   1.190 -0.0538  0.1422 -0.3135
22126W        W38974   9.032   0.461   2.502  0.0864 -0.2929 -0.3627
22127W        W38975   0.234  13.810   1.094 -0.0685  0.1334 -0.1487
22128W        W38976   9.187   2.050  15.467  0.0029  0.0240 -0.1430
22129W        W38977   8.998   1.327  12.108  0.1888  0.1489 -0.0072
22130W        W38978  17.323   0.417  13.960 -0.1437 -0.0663  0.0168
22131W        W38979  17.737   4.836   0.805  0.2992  0.0704 -0.1117
22132W        W38980  10.195  17.456  14.813  0.0946 -0.2780 -0.0593
22133W        W38981   8.352  14.303   0.844  0.1885 -0.1076 -0.0696
22134W        W38982  12.083   0.511  11.846 -0.0959 -0.2205 -0.0479
22135W        W38983   8.299  13.350  16.150 -0.1485 -0.0326 -0.2154
22136W        W38984   1.733   0.303   0.086 -0.0082  0.0285  0.0595
22137W        W38985  14.182  13.723   0.474  0.1222 -0.0316  0.0106
22138W        W38986   6.907   5.861  13.963  0.2381 -0.0792  0.3841
22139W        W38987   7.421  11.870   4.987 -0.2816  0.0912  0.0004
22140W        W38988  16.582  13.769   2.058 -0.1188  0.1530 -0.0066
22141W        W38989   9.228  15.533   2.464  0.1665 -0.2481  0.1110
22142W        W38990  17.092  10.610   3.490  0.2592  0.2838  0.1026
22143W        W38991   4.571   3.862   0.672 -0.1553  0.0042  0.2793
22144W        W38992   6.490   3.840   4.242  0.2774  0.0323  0.3627
22145W        W38993  15.565  17.319  15.882  0.0078  0.0347 -0.3517
22146W        W38994   6.026  12.833   1.505 -0.0614  0.0690 -0.0076
22147W        W38995   7.159   9.931  11.628 -0.0983 -0.1205  0.0342
22148W        W38996  16.760   5.693  14.145 -0.1216 -0.1114 -0.0331
22149W        W38997   3.357  13.583  15.274 -0.2613  0.0042 -0.2844
22150W        W38998   6.400  15.231   5.481 -0.0963  0.0608  0.2637
22151W        W38999   1.352   1.156   0.307 -0.5947 -0.6468  0.1391
22152W        W39000   7.706  14.764   1.276 -0.0516 -0.1632  0.1803
22153W        W39001  17.819   2.323  11.513  0.0948 -0.1826 -0.1155
22154W        W39002   9.324  10.066   4.272  0.2376  0.2306 -0.0098
22155W        W39003  13.429  12.369  12.065 -0.1351  0.0285 -0.0635
22156W        W39004   4.798   2.745  16.273  0.2301  0.0824  0.1753
22157W        W39005  15.661   2.044  14.329  0.3596  0.0659  0.2062
22158W        W39006  14.225   5.981  13.549 -0.3797  0.2168 -0.3378
22159W        W39007  15.789   1.191  13.648 -0.1172 -0.1185 -0.3023
22160W        W39008  10.391  10.905  12.515 -0.1759  0.0576 -0.0420
22161W        W39009   8.155   8.061   3.546  0.0125 -0.3382 -0.0170
22162W        W39010  17.373   6.297  13.668  0.2161 -0.3101 -0.2663
22163W        W39011   1.161  17.496   3.307  0.2240  0.2183  0.2081
22164W        W39012   2.105  11.850  14.357  0.0384  0.1538 -0.2480
22165W        W39013   9.481  12.835  13.885 -0.1505 -0.0751  0.1903
22166W        W39014  10.168   9.512  15.177  0.4490 -0.1410 -0.0084
22167W        W39015   0.573  15.503   1.840 -0.0992  0.0339  0.0866
22168W        W39016  16.513   2.358  11.890  0.0442  0.1240 -0.1466
22169W        W39017   6.744  13.996   2.362 -0.2428 -0.1272 -0.3638
22170W        W39018  11.009  11.629   1.530 -0.1469  0.1426 -0.1496
22171W        W39019   5.521   3.417  12.027 -0.2102 -0.1979 -0.0463
22172W        W39020  15.855   9.785   4.597  0.1897  0.0288 -0.3081
22173W        W39021  10.277  16.812   3.054  0.1019 -0.1046  0.0113
22174W        W39022  14.751   9.201   2.875 -0.2484 -0.1018 -0.1301
22175W        W39023  11.168  17.252  15.491 -0.2182 -0.1362  0.1134
22176W        W39024   4.668   6.542   4.827 -0.0585 -0.2304  0.0781
22177W        W39025  11.329   8.128   2.780 -0.3539  0.1234  0.0123
22178W        W39026  12.470  16.792  14.850  0.1463  0.1096 -0.1458
22179W        W39027  17.082  13.504   0.840  0.1554 -0.0206  0.2014
22180W        W39028   3.815   7.457  13.402 -0.0555  0.0999  0.4970
22181W        W39029   5.465   7.984  11.186 -0.2104  0.2288  0.2618
22182W        W39030   6.595  13.327  12.764  0.1968  0.0428  0.1241
22183W        W39031  13.297  15.692  15.648  0.2439 -0.0862  0.0173
22184W        W39032   7.170   4.574   2.506  0.3034  0.3254 -0.3582
22185W        W39033   1.691   3.897  15.137  0.0099  0.0790  0.0005
22186W        W39034   7.891   7.309  11.732 -0.2178  0.0232 -0.0746
22187W        W39035   0.656  14.674  13.144  0.2786 -0.1839  0.1027
22188W        W39036   9.790  15.170   4.196 -0.3362 -0.1892 -0.1420
22189W        W39037  11.289   2.530   1.247  0.1453 -0.0934  0.0532
22190W        W39038  11.767   8.079   2.487  0.2502 -0.1433  0.1049
22191W        W39039  13.811   6.429  15.150  0.1767 -0.0771 -0.0317
22192W        W39040  16.962   0.105  13.580 -0.1646  0.1184  0.1412
22193W        W39041  11.787   2.315   5.232  0.3351 -0.4283  0.0432
22194W        W39042  10.206   2.515  16.414 -0.1268 -0.2606  0.1880
22195W        W39043  13.896  10.278   0.370 -0.0195  0.1664  0.0265
22196W        W39044  16.537   5.684  15.321  0.1713  0.0355 -0.2327
22197W        W39045  13.096  11.236   0.398  0.0029 -0.1190  0.1757
22198W        W39046  12.913  17.318  11.821 -0.0050  0.1937 -0.1260
22199W        W39047   1.939  12.584  12.571 -0.1392 -0.1704  0.1500
22200W        W39048   4.508   3.217   0.023 -0.0982 -0.0668 -0.1970
22201W        W39049   9.798  15.843  13.333  0.1015 -0.0994  0.1476
22202W        W39050   4.020  13.870  13.854 -0.0183  0.1078  0.0790
22203W        W39051   7.214  13.575  11.724 -0.0500  0.1027  0.0300
22204W        W39052   1.003   2.734   5.071 -0.1559 -0.2163 -0.0366
22205W        W39053  15.265   7.419   5.221 -0.0617 -0.1097 -0.1695
22206W        W39054  11.650   8.102   3.198 -0.1377  0.0512  0.1419
22207W        W39055  16.850   6.437  13.635 -0.0697  0.3425 -0.3906
22208W        W39056  16.808   7.035  13.427 -0.2334  0.1090  0.0124
22209W        W39057   5.825   5.220  13.879 -0.0791  0.3338  0.0556
22210W        W39058   7.940   0.260  14.510 -0.1799  0.2008 -0.0319
22211W        W39059  17.047  10.056   1.832  0.3095 -0.3373  0.3438
22212W        W39060  17.655   0.393   3.829 -0.1027  0.1002 -0.1055
22213W        W39061   9.176  11.246   0.630 -0.2501  0.0744 -0.1917
22214W        W39062  16.638   4.862  15.582  0.0988  0.3412 -0.0455
22215W        W39063  12.978   7.683  15.820  0.0566 -0.0688 -0.0401
22216W        W39064   6.017   5.541  15.131  0.4990  0.1822 -0.1778
22217W        W39065  10.355   2.211   2.533  0.1320 -0.1914 -0.0932
22218W        W39066   9.505  14.692  13.826 -0.3428  0.0351  0.0067
22219W        W39067  17.101   6.123  14.048 -0.1288 -0.1742 -0.0277
22220W        W39068  14.050  10.533  13.914  0.1426 -0.0573 -0.1762
22221W        W39069  16.776   1.470   4.300 -0.3109 -0.0629  0.2241
22222W        W39070  10.275   8.046  15.743 -0.4141  0.1646 -0.1252
22223W        W39071  10.258   5.048  16.186  0.2315  0.0729  0.2379
22224W        W39072  15.003   9.742   4.025 -0.1476  0.4535  0.2302
22225W        W39073  14.208  10.068   3.470  0.0213 -0.3481 -0.1334
22226W        W39074  10.781   9.474   5.395  0.2282 -0.0587  0.0712
22227W        W39075   0.352  12.489  10.915 -0.1755  0.1501 -0.0490
22228W        W39076  12.619   9.166   3.272  0.2217  0.1472 -0.0606
22229W        W39077   6.723   1.342   4.686 -0.3895  0.1122 -0.0769
22230W        W39078  17.306  14.708  11.114 -0.0853  0.1094 -0.1659
22231W        W39079   5.984  14.456  16.218  0.0687  0.2726 -0.3029
22232W        W39080  15.602   6.312   2.739  0.1473 -0.1159  0.0550
22233W        W39081   2.762   0.842   0.524 -0.1875  0.1626  0.2682
22234W        W39082   7.377   4.664  13.538  0.2691 -0.1391  0.1955
22235W        W39083   8.754  14.803  15.734 -0.2318  0.0196  0.2641
22236W        W39084  10.526  12.909  14.069 -0.1228  0.2662 -0.1824
22237W        W39085   5.625  16.070   5.271 -0.0944 -0.1105  0.0584
22238W        W39086   4.555  10.188   3.534 -0.2592 -0.0676  0.2074
22239W        W39087   8.368  10.026   1.709 -0.1821  0.2303 -0.2025
22240W        W39088  10.330  14.526  13.335 -0.4158  0.0550  0.2723
22241W        W39089   4.735   7.273  13.160  0.1497  0.1599  0.3328
22242W        W39090   8.780   2.620   5.246 -0.0870 -0.1467 -0.0383
22243W        W39091  14.391  12.533   4.553  0.0348  0.2680  0.4489
22244W        W39092   2.619   6.273  13.883 -0.1163  0.2496 -0.1614
22245W        W39093  14.762   8.436  13.580 -0.1880 -0.1768 -0.0991
22246W        W39094   2.524  16.755  15.802 -0.1150 -0.2953  0.0085
22247W        W39095   8.182  15.452   3.589  0.1657 -0.1265  0.1410
22248W        W39096  11.559  13.461   2.362  0.2490 -0.0844  0.1822
22249W        W39097  14.306   6.290  15.007  0.1708 -0.0250 -0.0613
22250W        W39098  10.752   9.530  12.692  0.0398  0.1845 -0.3622
22251W        W39099   3.206   4.780   2.003 -0.3513 -0.2877 -0.0766
22252W        W39100   3.893   3.465  13.639  0.2918 -0.0517 -0.0680
22253W        W39101   0.123  12.161  12.544  0.0707 -0.3833 -0.0940
22254W        W39102  12.081  12.595   2.468 -0.4793 -0.2642 -0.1621
22255W        W39103   6.214   2.389  14.240  0.0652 -0.0822 -0.0297
22256W        W39104   3.884   5.303   2.434 -0.3131  0.2311  0.2126
22257W        W39105   5.906  16.090  15.455 -0.0038  0.3326 -0.2458
22258W        W39106   5.359   2.242   0.479  0.1937 -0.0082  0.0191
22259W        W39107   1.573   9.412   4.004 -0.2305 -0.2451  0.0605
22260W        W39108   1.931   4.733   4.191 -0.1688 -0.2314 -0.0767
22261W        W39109   4.183  12.481   4.207  0.4832  0.0008  0.0049
22262W        W39110   4.368  10.494  15.881 -0.0871 -0.0550 -0.0330
22263W        W39111   6.032   4.567  13.073 -0.3273  0.1560 -0.1508
22264W        W39112  10.048   2.017   1.163 -0.0465  0.2150 -0.2023
22265W        W39113   7.274   3.159  14.256  0.0447 -0.0043 -0.1739
22266W        W39114  10.843  11.574   2.534 -0.1770 -0.2292  0.0585
22267W        W39115  14.460   3.072   2.056  0.2539 -0.2130  0.1986
22268W        W39116  12.718   5.849   4.352  0.2136 -0.0147  0.0351
22269W        W39117   1.322   2.628   0.042 -0.0116  0.0080  0.1106
22270W        W39118  14.284   9.055   4.158  0.2568 -0.0087  0.1337
22271W        W39119   5.234   7.797   2.818  0.0936 -0.3884 -0.2473
22272W        W39120  16.710  15.453   3.017 -0.3751 -0.2682  0.0399
22273W        W39121   5.144   7.262   4.494 -0.1605  0.0617 -0.2203
22274W        W39122   8.019  15.871  15.251 -0.0334 -0.0211  0.2039
22275W        W39123   6.637  16.107   1.918 -0.0337  0.0210 -0.4372
22276W        W39124  12.240   1.418   5.064  0.0084  0.1494 -0.0555
22277W        W39125   4.283   7.766   2.414 -0.3254 -0.0521  0.5165
22278W        W39126   6.841   4.601   2.939  0.0031  0.0405  0.1457
22279W        W39127   6.993   0.717  11.129 -0.1022 -0.1776  0.1723
22280W        W39128   5.046   8.024  13.011  0.1707  0.0136 -0.2831
22281W        W39129  14.840   3.743  15.020  0.0070 -0.0893 -0.2656
22282W        W39130  14.356   4.751   5.537  0.3393 -0.1878  0.0058
22283W        W39131  10.437  11.878  11.690  0.2676 -0.0084  0.0351
22284W        W39132   9.357   8.596  15.316  0.2039  0.0522 -0.0790
22285W        W39133   0.906  15.491  11.246 -0.1679  0.2019  0.0407
22286W        W39134   6.027  10.719   5.060 -0.0678  0.0273  0.0695
22287W        W39135   0.410  14.660   3.729  0.2714  0.2884  0.1017
22288W        W39136  17.850  13.552   4.145  0.2153 -0.1500 -0.3588
22289W        W39137  10.307  16.457  15.499  0.0168  0.3510  0.0808
22290W        W39138  10.528  17.798   2.508  0.2676  0.2550  0.0445
22291W        W39139   0.586   3.448  11.826 -0.2447  0.2316 -0.1690
22292W        W39140  10.575  15.371   3.466  0.0108 -0.4091 -0.1486
22293W        W39141   1.064  17.813  11.825  0.1079 -0.1337 -0.2962
22294W        W39142  14.713   0.046  12.356  0.5303 -0.1250  0.2986
22295W        W39143   8.719  11.345  13.232  0.3577 -0.0078  0.0709
22296W        W39144   3.171  15.822  13.911 -0.4104  0.0373  0.0145
22297W        W39145  13.047   4.888  11.932 -0.1252 -0.1347  0.1583
22298W        W39146   0.140  15.174   0.863 -0.3107 -0.2924 -0.0085
22299W        W39147  17.307   7.966   0.907 -0.1953 -0.3695 -0.1526
22300W        W39148   8.962   9.935  13.197  0.2598 -0.4191  0.0470
22301W        W39149  17.062   4.768   3.379 -0.2160 -0.1434 -0.0007
22302W        W39150   8.010  13.853  12.078  0.1242 -0.1791  0.2174
22303W        W39151   7.746   6.736   4.606  0.2737  0.1018  0.2563
22304W        W39152   4.032  10.877  11.720  0.2557 -0.4526  0.0806
22305W        W39153   6.547  12.293   6.075 -0.0303  0.1914 -0.0065
22306W        W39154   5.725  13.203  12.147  0.1092  0.0633  0.1050
22307W        W39155  15.875  10.611   4.286 -0.2145  0.2513  0.1673
22308W        W39156   0.022  12.386  15.304  0.0623  0.0998 -0.0656
22309W        W39157   0.205   4.558   1.007  0.3498  0.0299  0.0375
22310W        W39158   5.278   2.099  13.451  0.0004  0.0584  0.1120
22311W        W39159  13.020  12.632  14.551 -0.4638  0.1342 -0.4953
22312W        W39160   4.978  11.147   4.477  0.1190  0.0679  0.1935
22313W        W39161   6.174   6.473  13.051 -0.0306  0.2973  0.3385
22314W        W39162  15.267  14.693   4.393  0.2068  0.0242 -0.0941
22315W        W39163   2.527  13.170  14.676  0.4905 -0.0165  0.0760
22316W        W39164   6.513   6.399   4.467  0.1277 -0.1686  0.1052
22317W        W39165  16.298   9.227  13.710 -0.2522  0.0908 -0.1435
22318W        W39166  14.996  16.576   2.014 -0.1660  0.0135  0.1904
22319W        W39167  16.153   6.629  15.190  0.1679 -0.0194  0.5098
22320W        W39168   1.986  13.296   3.317 -0.0869  0.2600  0.1452
22321W        W39169  16.366   5.468  12.563 -0.0941  0.1008 -0.2267
22322W        W39170   1.351  12.631   4.273  0.1196 -0.1691 -0.4021
22323W        W39171   3.783   5.434   1.023 -0.2270  0.0781 -0.1086
22324W        W39172   9.101   4.722  15.583  0.0349 -0.0178  0.0170
22325W        W39173   5.327   5.568  14.108  0.1446  0.1294  0.1628
22326W        W39174   9.365  15.347  11.744 -0.0633  0.2423 -0.0657
22327W        W39175  15.359  11.866  13.566  0.0943 -0.1431 -0.1840
22328W        W39176  12.285  11.743   4.101  0.0414 -0.1623 -0.2174
22329W        W39177   6.221   0.807  15.386 -0.0206  0.0288 -0.1653
22330W        W39178  17.306  14.629   2.004  0.1959 -0.0329 -0.2085
22331W        W39179   1.926   3.787  12.383 -0.0854  0.2983  0.1066
22332W        W39180  12.998  14.203  15.086 -0.1091  0.3874 -0.1482
22333W        W39181  11.630   2.881   0.274  0.1884 -0.0712 -0.1320
22334W        W39182   0.298  12.626  12.376 -0.1171 -0.2121  0.0481
22335W        W39183   3.292   0.155  10.993  0.0725 -0.0002 -0.4655
22336W        W39184   1.635   5.425   2.644 -0.0205  0.0528 -0.1344
22337W        W39185  14.229  16.231   4.054 -0.1999  0.0048  0.1949
22338W        W39186  10.597  10.425  16.450 -0.2048  0.0527 -0.2140
22339W        W39187  13.626  16.057  14.238  0.2502  0.2180  0.0662
22340W        W39188   4.819  17.043  16.079 -0.1452  0.0531 -0.4393
22341W        W39189   7.190   7.965   3.575 -0.1707 -0.0403  0.0697
22342W        W39190   0.601  17.166  12.899  0.0347  0.0396 -0.4170
22343W        W39191   0.072  13.987   1.604  0.0322 -0.2077 -0.1624
22344W        W39192   2.820   2.820  11.828 -0.1749  0.1249  0.2311
22345W        W39193   2.562   8.478  14.909  0.3551  0.0450  0.3606
22346W        W39194   0.543   5.398  14.315  0.0038 -0.0294  0.1846
22347W        W39195  11.569   6.312  15.289  0.0479  0.1112  0.1791
22348W        W39196   9.614  10.879  16.355  0.1143  0.1907  0.0590
22349W        W39197  11.828   0.615   4.035  0.0676 -0.3566  0.0680
22350W        W39198   9.387   8.002  12.107 -0.0304 -0.3557  0.0051
22351W        W39199   8.269  11.193   4.390  0.1429 -0.0517 -0.1560
22352W        W39200   8.281   2.858   0.618 -0.0720  0.0888  0.0907
22353W        W39201   8.190  14.182  13.067  0.1506 -0.1621 -0.1153
22354W        W39202   9.344  16.447  15.822  0.0247 -0.1621 -0.1587
22355W        W39203   3.469  16.736   0.120  0.1959  0.2054  0.1183
22356W        W39204   8.979   7.292   0.539 -0.0691  0.1166  0.2279
22357W        W39205   4.029   1.134   2.859 -0.0524  0.2235  0.2767
22358W        W39206   4.824   4.733  11.309  0.3992 -0.1858 -0.0000
22359W        W39207   4.410   9.220   1.859  0.0297  0.0381 -0.2569
22360W        W39208   7.036   8.523  14.991 -0.3737 -0.2158  0.0136
22361W        W39209  11.788   1.891   1.503 -0.0395 -0.2970  0.3806
22362W        W39210   4.431   9.473  13.694 -0.3228  0.1444  0.1854
22363W        W39211   7.957   9.916   2.066  0.0656  0.0343  0.1090
22364W        W39212   0.578   3.577   4.978 -0.2044 -0.1563 -0.1585
22365W        W39213  13.632  14.726   0.558 -0.0562 -0.0523 -0.2252
22366W        W39214   9.367  16.978   5.447  0.0690  0.1987  0.0937
22367W        W39215   5.217   7.991  15.200  0.1893 -0.1841  0.1670
22368W        W39216   3.240   9.794   3.710 -0.1647  0.0606  0.3003
22369W        W39217   6.080   4.405   3.809  0.2512  0.3006 -0.1186
22370W        W39218   1.848   3.408  13.429 -0.2912 -0.1345  0.3373
22371W        W39219   8.711  13.253   0.015 -0.4280 -0.0909 -0.2846
22372W        W39220  16.313   6.918   2.256 -0.1665 -0.1000 -0.2081
22373W        W39221   0.487  14.443   0.295  0.2217  0.0135  0.0871
22374W        W39222  13.098   2.743   0.683 -0.0326  0.3458 -0.2313
22375W        W39223   1.832  14.382  15.966 -0.1104  0.2666  0.0609
22376W        W39224   1.253   3.189  14.930  0.6384  0.0435 -0.0130
22377W        W39225   6.158  10.607  13.175  0.0119 -0.0079  0.0941
22378W        W39226   3.896  15.339  14.882  0.2557 -0.3602  0.1643
22379W        W39227   2.683  12.556  15.356  0.0259 -0.1582  0.0462
22380W        W39228  17.820   0.449   5.735  0.1645  0.0124 -0.1962
22381W        W39229   1.138  12.164   2.472 -0.2795 -0.0040 -0.0400
22382W        W39230   7.286   5.146   2.002 -0.1535 -0.2369 -0.1466
22383W        W39231   8.113  13.193  15.155 -0.3025  0.1939 -0.3808
22384W        W39232   6.451  14.517   1.574 -0.1323 -0.1218 -0.2490
22385W        W39233  13.291   8.590   0.144  0.1449 -0.1192  0.0718
22386W        W39234   8.904  11.791  14.602  0.0686  0.2776 -0.1351
22387W        W39235  12.009   1.931   0.466  0.2179  0.2131  0.0254
22388W        W39236   2.947  17.146  16.032 -0.0278  0.3778 -0.1705
22389W        W39237   1.180   3.972  13.609  0.1207  0.0756  0.0780
22390W        W39238   4.561  13.859  13.941 -0.1648  0.1421 -0.0469
22391W        W39239  16.872   4.086  13.441 -0.1608 -0.0832  0.1542
22392W        W39240   4.438  16.111  13.472  0.1881 -0.0139 -0.0306
22393W        W39241  15.835   1.311   0.437 -0.1360 -0.2622 -0.0693
22394W        W39242  12.149  10.651   2.191  0.0570 -0.1024  0.3328
22395W        W39243   1.433   7.740  15.315  0.1311 -0.0918 -0.1704
22396W        W39244  16.469   2.284   1.784  0.0703 -0.0820 -0.1338
22397W        W39245   2.755  17.645  15.962 -0.0916 -0.0117 -0.2047
22398W        W39246   2.141   6.113  13.990  0.0456  0.4086  0.0783
22399W        W39247   7.519  13.259   3.843  0.0343 -0.1673  0.1242
22400W        W39248   7.903  11.732  16.466  0.1449  0.2417 -0.0024
22401W        W39249  13.261   4.815   4.738  0.2752  0.0692 -0.2564
22402W        W39250  11.021  14.696  15.087 -0.0164 -0.0677 -0.1245
22403W        W39251  14.343   2.395   1.033 -0.1529 -0.1518  0.0261
22404W        W39252  10.125  12.499  15.314  0.0417  0.3171  0.0771
22405W        W39253  13.474  12.919   4.886 -0.0522 -0.0720  0.0176
22406W        W39254  10.709   6.001   5.959 -0.4324 -0.1518 -0.1473
22407W        W39255  14.030  17.809   1.532 -0.2931  0.3431 -0.1699
22408W        W39256   6.230  13.159   2.833 -0.0004 -0.2802 -0.0653
22409W        W39257   1.693  14.229  13.265  0.2175  0.2240 -0.2192
22410W        W39258   6.446  16.728   3.564  0.3013 -0.1451  0.1137
22411W        W39259  17.562  11.648   0.940  0.1026  0.2451  0.0578
22412W        W39260   5.606   6.278   2.704  0.1518  0.0731  0.2868
22413W        W39261   3.229   5.072   4.676 -0.0059  0.0485 -0.1827
22414W        W39262  10.973  14.005   3.432  0.0875  0.3108  0.2735
22415W        W39263   2.347  11.640   0.649  0.1013 -0.0464 -0.0842
22416W        W39264   7.102  12.800  15.338 -0.0562 -0.0968 -0.2159
22417W        W39265   3.671   9.653   4.628 -0.1932  0.1360  0.1004
22418W        W39266   9.585   2.068   4.707  0.0816  0.1416 -0.0916
22419W        W39267  16.217  13.029   4.652  0.3042  0.1112 -0.2039
22420W        W39268   4.702   8.978   0.392  0.1869  0.1667  0.0171
22421W        W39269   9.435   1.730   3.461  0.1793 -0.0384 -0.1332
22422W        W39270   1.746   1.459  15.200 -0.0815  0.0065 -0.1504
22423W        W39271  12.896  13.071   4.685  0.3286 -0.0613 -0.1562
22424W        W39272  10.961  15.983   4.615  0.0311 -0.0389  0.0955
22425W        W39273   6.282   4.105  14.403 -0.2237  0.0182 -0.0729
22426W        W39274  17.160   4.745  11.377  0.1982  0.0350 -0.1546
22427W        W39275  12.667   9.981   0.892 -0.2556  0.0568 -0.0768
22428W        W39276   0.968  10.194  15.747  0.0943  0.2050 -0.2455
22429W        W39277  14.389  15.821  13.562  0.0581 -0.1439 -0.1166
22430W        W39278  15.688   7.628   4.660 -0.3588  0.2118 -0.3351
22431W        W39279   4.106   9.023   2.531  0.2363 -0.1337 -0.0467
22432W        W39280   5.803   9.313  15.782  0.0234 -0.1067  0.1460
22433W        W39281  14.232   0.260  14.194  0.0448  0.1269 -0.3313
22434W        W39282  14.612  15.074  12.778 -0.0730  0.1168 -0.2472
22435W        W39283   5.109   4.233  13.480 -0.1427  0.3703 -0.1739
22436W        W39284  16.691   2.761   1.817  0.2531 -0.1975  0.0926
22437W        W39285   7.052   1.482   1.584 -0.0485 -0.1897 -0.0429
22438W        W39286   9.418   0.510   0.683 -0.1589  0.0106 -0.0775
22439W        W39287   1.471   9.904   3.852  0.2293  0.0572 -0.1218
22440W        W39288   1.313  10.630   6.033 -0.2956  0.0124 -0.4165
22441W        W39289   6.429  14.947   2.466 -0.1578 -0.1126  0.1042
22442W        W39290   2.092   4.480  10.951  0.0584  0.1220  0.3387
22443W        W39291  15.887   6.993  15.958  0.1937  0.0033 -0.1146
22444W        W39292   3.086   3.492  12.990  0.0687  0.1963 -0.0191
22445W        W39293  10.317  15.509  14.295 -0.0539  0.2392 -0.1864
22446W        W39294  16.425   4.836   0.910 -0.0351  0.0266  0.0289
22447W        W39295   6.762  10.336   5.245  0.0277 -0.0230 -0.3176
22448W        W39296   5.789  10.258  13.260 -0.2598  0.3355  0.2750
22449W        W39297   4.404  16.799  16.068 -0.1559 -0.1190 -0.2653
22450W        W39298  14.090   0.692  11.948  0.0798 -0.0267  0.0324
22451W        W39299   9.410   3.687  16.003 -0.0703 -0.1524 -0.0933
22452W        W39300   8.375  12.722   4.732  0.2745 -0.2032  0.0297
22453W        W39301   2.068   3.177   4.613 -0.1350 -0.1515  0.0191
22454W        W39302   6.764  16.252  14.281 -0.0183  0.2506 -0.2951
22455W        W39303  16.994   1.192  15.241  0.0566  0.1221 -0.1228
22456W        W39304  10.492   2.017  13.310 -0.0991 -0.1892 -0.1601
22457W        W39305   4.632   7.391   5.251 -0.0996 -0.0553  0.0773
22458W        W39306   9.139   3.440  16.365 -0.2946  0.0366  0.1978
22459W        W39307   5.327  13.327   3.991  0.1965 -0.2338  0.1416
22460W        W39308   9.340   8.492   5.447 -0.0861 -0.2934  0.2405
22461W        W39309  17.330  13.008   5.141 -0.0384 -0.0234  0.0276
22462W        W39310  10.996   5.393   2.780  0.0068 -0.2576 -0.0818
22463W        W39311   8.025  16.872   4.914 -0.0884 -0.2649  0.0923
22464W        W39312  16.943   5.291  14.432  0.0098  0.0627 -0.2556
22465W        W39313  15.162   0.836   4.836  0.0260  0.3244  0.2295
22466W        W39314  11.124  16.222   3.199  0.0400 -0.3603 -0.2929
22467W        W39315  10.178   1.967  14.694  0.3335 -0.0972 -0.0626
22468W        W39316   2.436   4.299  13.204  0.1059  0.0109 -0.1948
22469W        W39317  14.648  12.918   0.759 -0.3778 -0.2780  0.1856
22470W        W39318   5.375  12.240  13.509  0.1983  0.2831  0.1488
22471W        W39319   0.301  10.225  11.626 -0.1403 -0.2097  0.2227
22472W        W39320   6.368  15.201   1.611  0.1127 -0.1997 -0.4746
22473W        W39321  12.713   6.059  12.841 -0.2442 -0.2023  0.0296
22474W        W39322  16.522  10.595   5.404 -0.0772  0.1627  0.1617
22475W        W39323   1.120  15.212  11.576  0.0152  0.2769 -0.2299
22476W        W39324  14.084   7.252   2.495 -0.3681  0.1308  0.1117
22477W        W39325   9.059  15.114   2.261 -0.2260 -0.0063  0.0429
22478W        W39326   2.284   0.183  14.393 -0.0546 -0.0811  0.0877
22479W        W39327   7.906   3.292   5.313 -0.0457  0.1855  0.1839
22480W        W39328   0.833  14.056  15.964 -0.2592 -0.0952  0.0315
22481W        W39329  12.572   3.545   4.710 -0.0917 -0.5194  0.0952
22482W        W39330  17.455  15.563   3.061  0.0268  0.2313  0.2541
22483W        W39331   8.296   4.195   4.499  0.0047 -0.1807 -0.0581
22484W        W39332   6.909  14.999   2.963  0.2303 -0.1744  0.4514
22485W        W39333  12.088  13.207   2.249  0.0693 -0.0523  0.2021
22486W        W39334   9.292   4.039   0.648 -0.0902 -0.0119 -0.5077
22487W        W39335  13.675   8.462   2.555 -0.0093 -0.1002  0.0871
22488W        W39336   7.752   3.508   3.595  0.0937  0.0115 -0.1300
22489W        W39337   9.322   8.637  12.895  0.1946 -0.0309 -0.0045
22490W        W39338   1.825   0.921  13.046 -0.0731  0.0084 -0.2322
22491W        W39339   0.811   6.815  15.688 -0.0485 -0.0477  0.2561
22492W        W39340  11.657  15.111  11.619 -0.3365  0.4955 -0.1594
22493W        W39341   0.999  15.405   2.345  0.2488  0.0768  0.0500
22494W        W39342   1.852  15.958   0.407 -0.2166 -0.0758  0.1127
22495W        W39343  12.749   7.039  13.068 -0.0661 -0.0550  0.0600
22496W        W39344  11.883   0.733   1.757 -0.0790 -0.1646 -0.1998
22497W        W39345   7.425  16.925   4.226  0.1257  0.2428  0.0289
22498W        W39346  12.433   0.709   3.463  0.0595 -0.3100  0.3011
22499W        W39347   3.948  10.724  10.945 -0.1076  0.2101  0.3373
22500W        W39348  16.153  11.496  13.159 -0.0141  0.0191 -0.2704
22501W        W39349  15.721  13.199  16.133  0.0966 -0.3549  0.0627
22502W        W39350  11.903  16.765  11.130  0.5022  0.0696 -0.1181
22503W        W39351   3.341   5.415  14.769 -0.0563  0.0724 -0.2436
22504W        W39352   7.954  15.172  14.643  0.3003 -0.0089 -0.0300
22505W        W39353   6.672  11.883   5.349  0.0300 -0.0220 -0.0488
22506W        W39354  11.182  14.878   1.339 -0.2009  0.0650  0.3546
22507W        W39355   6.696   7.719  13.601  0.0057 -0.0797  0.2504
22508W        W39356   4.685  12.172   3.541 -0.0184 -0.1438  0.1516
22509W        W39357  14.020   1.662  15.926 -0.1773  0.2756 -0.0200
22510W        W39358   4.232   8.089   1.587 -0.0231 -0.0138 -0.2168
22511W        W39359  13.114   0.096   2.242  0.0048  0.1131  0.1741
22512W        W39360   9.297  14.749   3.683  0.1303 -0.1034  0.0069
22513W        W39361  15.611  13.501  11.024  0.0690 -0.0290  0.3775
22514W        W39362   5.360  10.800   4.528 -0.0444  0.1908  0.0963
22515W        W39363   5.488  10.975   0.007  0.0297 -0.0353  0.0067
22516W        W39364  17.339   6.120   4.113 -0.2120 -0.0752  0.0347
22517W        W39365  16.713  16.838  15.909  0.2612 -0.2372  0.1388
22518W        W39366  11.723   9.215   2.983  0.0779  0.1635 -0.2445
22519W        W39367  17.591  10.242  13.419  0.1264 -0.2367  0.0231
22520W        W39368   4.102  17.233  12.187 -0.2348 -0.1179 -0.0323
22521W        W39369  17.365   1.190  14.352  0.2413  0.0674 -0.2224
22522W        W39370  15.122  11.671   0.841  0.1933 -0.0276  0.2199
22523W        W39371  14.697   9.232  12.970 -0.2489 -0.1998 -0.0021
22524W        W39372  13.784   0.707   4.980 -0.1080  0.0391  0.1151
22525W        W39373  16.761  11.229  11.666 -0.1490 -0.0788 -0.1135
22526W        W39374   1.552   5.043  11.926 -0.1555 -0.0180 -0.0519
22527W        W39375   0.258  12.262  12.053 -0.1619  0.2125 -0.1145
22528W        W39376  12.273   9.464  15.717  0.0080 -0.0269 -0.2354
22529W        W39377   4.267   3.054  14.325 -0.2249  0.1863 -0.1602
22530W        W39378   0.068   8.969   4.608 -0.2376  0.0416  0.3067
22531W        W39379  14.362   3.278  11.609 -0.1799 -0.2022 -0.3001
22532W        W39380   6.606   9.645   4.442  0.1702 -0.0454  0.0411
22533W        W39381   2.922  11.754   3.054  0.0111 -0.0146 -0.1406
22534W        W39382   7.712  12.605   2.110 -0.0223 -0.0879 -0.3203
22535W        W39383   4.284   5.820   1.443  0.2107  0.0832 -0.3142
22536W        W39384  16.344   2.813   4.704 -0.0132 -0.2429  0.0759
22537W        W39385   6.171  16.707   4.032 -0.0778 -0.0814  0.2300
22538W        W39386   5.157  11.743  15.085 -0.3079  0.0452 -0.1844
22539W        W39387   1.963  12.296  15.773  0.1932  0.0490  0.2679
22540W        W39388   1.999  13.971  14.493 -0.1977  0.0264 -0.0014
22541W        W39389   0.511   8.206   1.923 -0.3328  0.2371  0.2155
22542W        W39390   6.682   9.020  16.243  0.0788 -0.1108 -0.0884
22543W        W39391  15.761  13.297  12.439 -0.2129 -0.0948  0.2555
22544W        W39392  17.433   4.562   0.354  0.1836  0.1135 -0.3591
22545W        W39393  17.435   2.334  14.099 -0.0541  0.1070  0.0958
22546W        W39394  13.009   2.315   1.559 -0.3550  0.3733 -0.0112
22547W        W39395   2.440  14.813  16.273  0.1784  0.0523  0.0214
22548W        W39396   6.511   6.336  12.495 -0.3937 -0.3948  0.0788
22549W        W39397  15.944   2.230  13.356 -0.0309 -0.1872 -0.0447
22550W        W39398  11.341  12.272  14.212 -0.0378 -0.0818  0.1327
22551W        W39399   9.029  10.236  14.634  0.1846 -0.0689 -0.1377
22552W        W39400   9.695   1.287   3.605 -0.0024 -0.3517  0.2319
22553W        W39401  13.385   7.272  12.069  0.4414  0.0568  0.0483
22554W        W39402  11.921   4.240   2.171 -0.3161 -0.0755  0.4415
22555W        W39403   3.162  11.373   3.727  0.1416  0.0582 -0.2548
22556W        W39404   4.404  12.983  15.511 -0.0747 -0.1881 -0.2009
22557W        W39405  10.413   1.411  11.407 -0.1573 -0.2118  0.1681
22558W        W39406  17.800   9.627  13.498  0.0268  0.0036  0.0439
22559W        W39407   9.785  15.278   5.867  0.2063 -0.1968 -0.2745
22560W        W39408   7.256  10.472   2.689  0.2641  0.0521  0.1596
22561W        W39409  13.586   8.051   5.981  0.2218  0.0158 -0.1971
22562W        W39410  14.813  15.649  13.636  0.2501  0.2345  0.1200
22563W        W39411   6.664   2.713  11.769 -0.0718  0.0360 -0.1034
22564W        W39412   9.498   9.121   4.456 -0.0001  0.1648  0.2662
22565W        W39413   8.509  12.988  11.850  0.4077  0.1249  0.0152
22566W        W39414  10.285  15.059  11.478 -0.0560  0.0206 -0.0324
22567W        W39415   9.544   6.378  15.186 -0.0789  0.2066 -0.0471
22568W        W39416   9.981  11.891   3.144 -0.0126 -0.0203  0.1132
22569W        W39417   9.040   1.170   2.866  0.4636  0.1326 -0.2707
22570W        W39418  11.079   6.890   1.758 -0.1369 -0.2669  0.2236
22571W        W39419  10.510   1.875   2.011 -0.0722 -0.1404 -0.1190
22572W        W39420   6.184   9.125   4.491  0.1594  0.2411  0.1223
22573W        W39421  17.475   9.508  11.562 -0.1379  0.1326 -0.3471
22574W        W39422   6.208   8.455   3.817 -0.3616  0.1355 -0.0843
22575W        W39423   4.636   0.691  14.028 -0.1660  0.0451  0.1114
22576W        W39424   6.787   4.698   1.696 -0.0068 -0.1996  0.1241
22577W        W39425  16.964  17.812  12.275 -0.1573 -0.0185 -0.1131
22578W        W39426   9.738  10.800   2.243 -0.0774  0.0161  0.0960
22579W        W39427   6.014   1.521  14.443  0.0327 -0.1348  0.1378
22580W        W39428   3.748   0.400   0.359 -0.1116 -0.0071  0.3252
22581W        W39429  11.060   1.261  13.669 -0.2353  0.3577  0.1647
22582W        W39430   4.717  15.803   0.254  0.0353 -0.0706 -0.1731
22583W        W39431   9.529   5.511  13.345 -0.1504  0.1118  0.1203
22584W        W39432   5.533   2.048   4.541  0.0893 -0.3624  0.2916
22585W        W39433  15.155  11.086   3.740  0.0093  0.3511  0.2159
22586W        W39434  17.760   2.372   3.773 -0.1157 -0.2060  0.0066
22587W        W39435   2.249   3.325  12.155  0.0063  0.0251  0.0735
22588W        W39436  17.035   2.554  16.430  0.2056  0.1222  0.0098
22589W        W39437  10.500  16.679   3.578 -0.2031 -0.0504  0.3694
22590W        W39438  15.653   2.524   2.961  0.2009 -0.0951  0.0276
22591W        W39439   8.807  13.799   1.601  0.2133 -0.1669 -0.1367
22592W        W39440   0.709   6.500   1.975 -0.0193 -0.2301 -0.0831
22593W        W39441   1.531  14.749  11.543  0.1285  0.3525  0.1313
22594W        W39442   6.774   8.887  12.387 -0.2807  0.0632 -0.2104
22595W        W39443   8.154   4.299   4.966 -0.1976 -0.2829  0.0605
22596W        W39444  14.141  17.060  15.690 -0.0082 -0.0742 -0.0979
22597W        W39445  14.654  15.068   1.350  0.1382 -0.0820 -0.4474
22598W        W39446   5.138  11.203   0.324  0.1383 -0.1442  0.1122
22599W        W39447   7.893   2.508  16.106 -0.2004  0.1373 -0.1569
22600W        W39448   6.291  14.552  11.857 -0.2057 -0.0136  0.0523
22601W        W39449   3.221  13.298   4.649 -0.0065 -0.0431  0.0381
22602W        W39450   7.814  10.889   5.067  0.0344  0.2661  0.0435
22603W        W39451   7.933   0.849  12.855  0.0135 -0.3462  0.2175
22604W        W39452   2.274   1.490   0.442 -0.1774 -0.0043  0.1510
22605W        W39453   5.264  10.446  16.282  0.1542  0.0747 -0.1830
22606W        W39454  12.958   7.506  12.956 -0.2625 -0.2985 -0.0192
22607W        W39455   4.672  11.730   5.282 -0.1373 -0.0109  0.1290
22608W        W39456   1.260  16.042   4.460 -0.2078  0.2837 -0.0723
22609W        W39457  17.779   6.788  15.036  0.2693  0.1143 -0.0490
22610W        W39458  11.975  16.596  15.456 -0.1930 -0.0504 -0.0805
22611W        W39459  12.716   8.058  14.192  0.0162  0.0081 -0.1752
22612W        W39460  16.489   5.937   0.100 -0.0044  0.1960 -0.1554
22613W        W39461   2.151   8.017   3.344  0.1044 -0.1707 -0.3050
22614W        W39462   2.682   4.143   3.140  0.2781  0.0227 -0.0486
22615W        W39463   9.954  17.480  16.026 -0.1628  0.2926  0.2127
22616W        W39464   6.025   7.064   4.657  0.2434  0.0357 -0.0504
22617W        W39465   1.536  12.736   6.227  0.1595  0.1629  0.0534
22618W        W39466  14.275  17.544  15.659 -0.1094  0.0478 -0.0681
22619W        W39467  16.754   9.637   0.136 -0.2632  0.0512  0.0181
22620W        W39468   0.429  17.171  15.354  0.1282 -0.2994  0.0688
22621W        W39469   6.607   2.411   1.388  0.1520 -0.0667 -0.1127
22622W        W39470  12.568  10.651  11.629 -0.0005 -0.2050  0.1141
22623W        W39471  10.879   5.201   1.447 -0.0300 -0.2484 -0.0346
22624W        W39472   9.152  17.879  15.905 -0.4069 -0.3112 -0.2250
22625W        W39473  15.379   9.281  13.236  0.2810 -0.1094 -0.0823
22626W        W39474   7.886  15.684   3.927 -0.1679  0.1292  0.2113
22627W        W39475   6.669   0.193   5.338  0.1580 -0.0214 -0.3182
22628W        W39476   7.525   3.764   0.581  0.0262 -0.1616 -0.0416
22629W        W39477   4.324   0.757   3.172  0.1467  0.5120  0.2455
22630W        W39478   7.659   6.313  15.139  0.0006 -0.1123 -0.3468
22631W        W39479   1.924   4.290  13.152  0.1358  0.1696  0.0737
22632W        W39480   2.778  17.012   2.965 -0.2242 -0.1626 -0.1694
22633W        W39481   0.662  16.488  14.182  0.0588  0.0851 -0.2672
22634W        W39482   5.003  16.731   0.020 -0.3037 -0.2464 -0.0589
22635W        W39483   0.237   3.559  10.972 -0.2892  0.0541 -0.0905
22636W        W39484   8.469   9.991   5.744  0.0725  0.0149  0.0110
22637W        W39485   1.531  17.242   3.646 -0.1919  0.1360  0.0221
22638W        W39486   5.516  11.869   4.246 -0.2410  0.1600 -0.0658
22639W        W39487  15.043   6.262   1.783 -0.1002 -0.1469 -0.1553
22640W        W39488   0.945  17.818  14.588  0.0744  0.0636  0.0652
22641W        W39489  12.167  17.777  14.033  0.0514  0.1049 -0.2959
22642W        W39490   7.103   4.522   0.368  0.2710  0.1957 -0.2592
22643W        W39491   1.846   6.592   1.236  0.1103 -0.2838  0.1315
22644W        W39492   1.423  13.045  16.190  0.1871 -0.4566 -0.3007
22645W        W39493   3.134  15.964  14.743  0.0596  0.1368  0.0667
22646W        W39494   7.243   2.779  13.457 -0.0890 -0.0696  0.2132
22647W        W39495   9.555   5.172   3.548  0.0638  0.1260 -0.1869
22648W        W39496   3.355   2.111  14.614 -0.3365  0.1914  0.0765
22649W        W39497   9.048   7.359   2.748 -0.3031 -0.2337 -0.0535
22650W        W39498  12.143   2.208   1.275 -0.3726  0.2743 -0.2871
22651W        W39499   8.177  10.487  13.527  0.3404  0.0852 -0.0665
22652W        W39500   5.014  10.303   1.591  0.1887  0.1364 -0.3232
22653W        W39501  15.912  15.957  13.928  0.1772  0.1604 -0.0189
22654W        W39502   9.297   2.802   3.627  0.0165  0.4065 -0.0355
22655W        W39503   6.228   2.043  14.986 -0.0715 -0.0845 -0.0614
22656W        W39504  10.980  16.382   1.375 -0.0551 -0.1337  0.0189
22657W        W39505  10.332  14.872  13.012 -0.0565  0.0463  0.3529
22658W        W39506   4.085   2.252   3.443  0.5917  0.1365 -0.2467
22659W        W39507  15.096  16.740  16.344  0.3709  0.4221  0.1308
22660W        W39508   7.316   2.669  12.123  0.1729  0.0874 -0.4366
22661W        W39509  12.795  14.200  15.609 -0.2480 -0.1184 -0.2341
22662W        W39510   8.226   0.083   4.594  0.0294 -0.2823  0.3205
22663W        W39511  10.599  12.438   6.109  0.1916 -0.0650  0.0977
22664W        W39512   1.332   6.595  14.497 -0.2415 -0.1597 -0.1357
22665W        W39513   1.579  15.187  14.112 -0.1456  0.0697  0.2193
22666W        W39514   2.338  17.710  11.416 -0.1133  0.0201 -0.1119
22667W        W39515   1.803   8.059  13.553  0.1228 -0.1920  0.2797
22668W        W39516   9.824  16.054  12.456  0.0086  0.2882  0.1443
22669W        W39517   6.651  14.147  15.354 -0.3977 -0.2061 -0.0311
22670W        W39518  17.065   1.482  15.680  0.0822 -0.0431  0.0890
22671W        W39519   8.570  10.630   5.363 -0.0194 -0.0255  0.0525
22672W        W39520  15.163  10.209  14.240 -0.3247  0.2807  0.2541
22673W        W39521  12.436   2.838   2.961  0.2892 -0.0131 -0.1729
22674W        W39522  17.721  11.682   3.994  0.5524  0.4669  0.1386
22675W        W39523  14.330  11.746   4.139 -0.0152 -0.0119  0.1200
22676W        W39524   2.175  16.673  11.415  0.1202  0.0318 -0.0587
22677W        W39525  11.868  12.402  12.990  0.0543  0.2068 -0.0124
22678W        W39526   2.778   6.931   1.429  0.0039 -0.1562  0.0383
22679W        W39527   0.567  12.819   0.240 -0.0364  0.1288  0.1325
22680W        W39528  12.796  14.747  12.736 -0.0438 -0.0488  0.1085
22681W        W39529  12.710   4.681   2.752  0.1360 -0.4493 -0.2466
22682W        W39530   1.931   8.172   0.759  0.0643 -0.2302 -0.1702
22683W        W39531   5.141   7.524  12.225  0.2836 -0.0115  0.3924
22684W        W39532   7.384   2.621   0.017  0.0197  0.0460  0.3344
22685W        W39533   8.554  15.150   2.188 -0.1394 -0.0293  0.2906
22686W        W39534  14.044  15.690  15.784 -0.3178 -0.5073  0.0860
22687W        W39535  14.189  10.825  11.928 -0.1749 -0.0827  0.0553
22688W        W39536   9.884  16.441   6.461 -0.2008 -0.3056  0.2230
22689W        W39537  13.271   2.753   1.313 -0.2666 -0.1529  0.1011
22690W        W39538  13.374   8.130  12.216  0.2758  0.1191 -0.0117
22691W        W39539   2.526   2.177  13.815  0.0249  0.0967  0.0880
22692W        W39540  14.111  16.071   2.329  0.1603  0.3873 -0.0732
22693W        W39541   5.207   5.631  12.161 -0.1995 -0.1234  0.1940
22694W        W39542   1.797   4.546  11.815 -0.0403 -0.1191 -0.2018
22695W        W39543   5.610  13.848  14.036  0.3569 -0.2147 -0.0836
22696W        W39544  12.325   5.582   4.231  0.1218 -0.1048 -0.1759
22697W        W39545   7.726   1.392  12.912 -0.2620 -0.1047  0.1466
22698W        W39546   5.167   1.019  11.885 -0.0831  0.3729  0.0794
22699W        W39547  12.832  16.934   1.037  0.0973 -0.2783 -0.0284
22700W        W39548  13.419  17.518  14.343  0.0095 -0.2113 -0.0920
22701W        W39549   5.200  10.579  14.063  0.1388 -0.1699  0.2004
22702W        W39550  15.140   5.918  14.021  0.0462  0.3355  0.4197
22703W        W39551  13.936   2.825  10.590 -0.1695  0.1857 -0.4559
22704W        W39552   8.113   8.081  12.075 -0.1122  0.3170  0.0626
22705W        W39553  13.459   5.357   5.901  0.4622 -0.1698 -0.0512
22706W        W39554  16.690   6.657   2.385  0.1327  0.1586  0.1764
22707W        W39555   4.714   7.325  12.406  0.1023  0.1975 -0.0404
22708W        W39556   8.230   5.409   3.006 -0.1066  0.0701 -0.0876
22709W        W39557  16.598  10.436   4.843  0.4053  0.0252 -0.5171
22710W        W39558  13.659   4.400   1.376 -0.0367 -0.2062 -0.0923
22711W        W39559  17.209  10.649  15.786 -0.0878  0.0410 -0.0294
22712W        W39560  12.715   4.063  15.061  0.1963 -0.1797 -0.1268
22713W        W39561  15.861   4.143   0.399 -0.1660  0.3355  0.0220
22714W        W39562  17.542  12.877   2.148  0.0176  0.0926 -0.0886
22715W        W39563   7.785   0.855   3.475  0.2835  0.2340  0.0775
22716W        W39564   3.400   0.589  10.724 -0.0582 -0.1332  0.0440
22717W        W39565  11.600  15.539  12.069 -0.0207 -0.1834 -0.0513
22718W        W39566   1.234   8.729   5.799 -0.0557 -0.1749  0.1796
22719W        W39567  15.239  16.144  15.218  0.0118  0.0884 -0.0393
22720W        W39568  13.625  17.230   0.386 -0.3001 -0.0551  0.1662
22721W        W39569  16.109   8.007   4.597 -0.0338 -0.1262  0.1619
22722W        W39570   1.835  14.380  11.396  0.2184 -0.1491  0.0153
22723W        W39571  12.023   6.839  14.591 -0.0057  0.0982  0.2639
22724W        W39572   8.456  16.846   5.131 -0.1488  0.0079 -0.1927
22725W        W39573  15.481  15.093  12.277 -0.0271  0.0794 -0.0146
22726W        W39574  16.344  12.402   4.156 -0.1172 -0.1395  0.1612
22727W        W39575  10.675   6.996   4.254 -0.3627  0.4344 -0.0298
22728W        W39576  15.118   1.647   4.637 -0.3266  0.2441  0.1129
22729W        W39577  11.435   9.940   3.191 -0.0740 -0.2706 -0.2498
22730W        W39578   1.095  15.356  15.782 -0.1939  0.1818  0.3068
22731W        W39579   8.140   9.979  14.379  0.2887 -0.1402  0.0669
22732W        W39580   9.825   7.834  14.904 -0.0942 -0.0556 -0.0632
22733W        W39581   8.046   6.200   1.801  0.2432 -0.2310 -0.2866
22734W        W39582   6.070  16.808  14.009  0.2043  0.0491  0.0147
22735W        W39583  12.746   2.395  11.936 -0.0501 -0.5983 -0.0392
22736W        W39584   6.497  15.328  13.885  0.0709  0.2878 -0.2849
22737W        W39585   7.599   1.065   0.979  0.2531 -0.1076 -0.1315
22738W        W39586  14.423  10.134   0.425  0.2622 -0.4172 -0.2166
22739W        W39587   1.852  17.819   0.603  0.0012 -0.1648 -0.1657
22740W        W39588  15.984  11.552  15.633 -0.2300 -0.0008 -0.1271
22741W        W39589   0.392   1.892  12.216 -0.2380 -0.0341 -0.3166
22742W        W39590   7.216   6.665  14.211  0.1412 -0.2086 -0.2677
22743W        W39591   1.941  10.351  13.135  0.0438 -0.4435  0.2331
22744W        W39592   1.899   4.383   1.135 -0.1465  0.3990  0.3254
22745W        W39593   9.869   5.248   2.679 -0.1117  0.1574  0.1896
22746W        W39594   2.158  16.940  13.667 -0.3243 -0.1410 -0.1036
22747W        W39595  12.255  11.696  15.102  0.2991 -0.1293  0.1760
22748W        W39596  16.608  11.735  12.495  0.1055 -0.3554  0.1713
22749W        W39597   7.675  16.182   0.875  0.0077 -0.2533 -0.2435
22750W        W39598  17.308   9.593   0.952  0.0795 -0.3466 -0.3880
22751W        W39599   4.762  17.884   2.109 -0.1485  0.0924 -0.0817
22752W        W39600  16.668   0.974   1.005 -0.0209 -0.0318  0.0613
22753W        W39601   9.492   9.141   3.913  0.0677  0.1382  0.0439
22754W        W39602   2.130  10.942   4.597  0.4279  0.0686  0.0386
22755W        W39603   4.459  10.376   2.215  0.2125 -0.0642 -0.1025
22756W        W39604  14.814   9.145  11.650  0.2447 -0.2244 -0.1153
22757W        W39605   9.333   1.515   5.902 -0.0183  0.1813  0.0079
22758W        W39606  12.572  13.012  14.422  0.1970 -0.0243 -0.0433
22759W        W39607  14.710   5.803  13.480  0.1869  0.1067 -0.2592
22760W        W39608  10.445  15.412  11.188 -0.0045 -0.1036 -0.0695
22761W        W39609   9.190   3.248   4.383  0.0892  0.1042  0.0848
22762W        W39610  16.036   9.830   0.808 -0.2195 -0.2196 -0.1631
22763W        W39611   0.246   1.753   4.889 -0.0974  0.2827 -0.2017
22764W        W39612   7.804   0.260  13.612  0.2010 -0.1190  0.2440
22765W        W39613  10.602   2.750  14.932  0.1828  0.0709 -0.1086
22766W        W39614   7.413   9.086  15.470  0.1677  0.1659  0.2573
22767W        W39615   4.175   4.904  13.766 -0.2229 -0.0007 -0.0949
22768W        W39616  12.444   8.551   0.199 -0.0042  0.0926 -0.0913
22769W        W39617   1.627  16.187  11.387 -0.1985 -0.1230 -0.1814
22770W        W39618  10.618  11.705   4.774 -0.1370 -0.0164 -0.0403
22771W        W39619   6.144   7.352  16.026  0.1678 -0.1125 -0.1185
22772W        W39620   0.643  15.671  15.645 -0.3583 -0.2408 -0.1431
22773W        W39621  11.172   9.835   4.618  0.0132  0.1845  0.2672
22774W        W39622   8.610  10.458   2.783 -0.0403 -0.1640  0.0915
22775W        W39623  13.960   9.724  14.916 -0.1253  0.3614 -0.0442
22776W        W39624   2.322  11.285  14.867 -0.2005  0.1490 -0.0030
22777W        W39625   8.373  11.991  14.825 -0.1656  0.4955 -0.0721
22778W        W39626   4.544  16.316   1.755 -0.1221 -0.0396 -0.0912
22779W        W39627  16.015   8.940   1.210  0.0348 -0.1444 -0.0571
22780W        W39628   1.810   2.002   2.622  0.0689  0.0746 -0.1292
22781W        W39629   7.131   2.871   0.772  0.2248  0.2194 -0.2272
22782W        W39630   9.775   8.910   2.372  0.3096  0.3113  0.3532
22783W        W39631  14.900   0.636  14.347 -0.0540 -0.0873  0.2043
22784W        W39632  13.464   9.938   4.991 -0.1645 -0.0335 -0.0551
22785W        W39633   6.236   6.350  16.047  0.0486 -0.0418 -0.0698
22786W        W39634  10.043   4.630  11.784  0.1225  0.0645  0.1347
22787W        W39635   7.488  16.593  14.615 -0.0657  0.1098  0.3769
22788W        W39636  11.053  15.208  15.983  0.1116 -0.0239  0.0635
22789W        W39637  14.826   8.368  12.352  0.0519 -0.0086  0.1481
22790W        W39638   7.375   5.673  14.868 -0.0705  0.3856  0.1395
22791W        W39639   7.360   8.867  15.026  0.0832 -0.2420  0.1258
22792W        W39640  16.706   8.857   4.069 -0.2490  0.0191 -0.1772
22793W        W39641   5.951   8.133  13.620 -0.1988 -0.0794  0.2928
22794W        W39642  13.389  12.769  12.312 -0.1118 -0.0824 -0.0218
22795W        W39643   6.940  10.175   3.670  0.3418  0.1207  0.0016
22796W        W39644  13.217   4.125   2.052  0.1429 -0.1981 -0.0130
22797W        W39645   6.500   8.560   4.248  0.0571 -0.2219  0.0265
22798W        W39646   5.118  12.362   5.572 -0.2282  0.1064  0.3881
22799W        W39647  10.558   4.287  15.366  0.3037  0.0020  0.3079
22800W        W39648  12.001  16.845  12.055  0.0310  0.3152 -0.1416
22801W        W39649  10.582  13.324  13.515 -0.2634  0.2549 -0.3543
22802W        W39650   8.868  11.923   2.666 -0.1224 -0.0485 -0.1531
22803W        W39651   5.662  17.083   2.889  0.0472 -0.0508  0.1225
22804W        W39652   0.911   1.143   0.497  0.0274 -0.0438  0.1364
22805W        W39653   2.017   0.626   5.254 -0.2882  0.0714 -0.2037
22806W        W39654   0.521  16.129  14.860 -0.3803 -0.0200 -0.2112
22807W        W39655   2.986   6.325   1.266  0.0965  0.3416 -0.1568
22808W        W39656   3.891   9.687  11.781  0.1908  0.1148  0.1615
22809W        W39657  15.211  15.882  12.796  0.0899  0.2345  0.4488
22810W        W39658   4.299  12.494   1.459 -0.2428 -0.3977 -0.0329
22811W        W39659  15.756  13.765   0.520 -0.0619  0.0361  0.0035
22812W        W39660   6.890   7.726   3.956 -0.4069  0.3846  0.0556
22813W        W39661   5.433  13.762  11.012  0.0340 -0.1665  0.0797
22814W        W39662   9.230   5.994  15.049  0.2346 -0.2007 -0.0842
22815W        W39663  10.781   5.474  13.036  0.0637  0.0776  0.0166
22816W        W39664  12.455   3.673  12.429 -0.1393 -0.2201 -0.2509
22817W        W39665   6.366   3.190  14.091 -0.0109 -0.0066 -0.3792
22818W        W39666  15.037   0.620  13.109 -0.1450 -0.0113 -0.2249
22819W        W39667  14.926  11.144  11.484 -0.0424 -0.0552 -0.1460
22820W        W39668   4.318  14.516  12.236  0.3058  0.4070 -0.2077
22821W        W39669   3.499  14.000  11.351  0.0905  0.1132  0.0651
22822W        W39670   5.702   3.657   3.971 -0.1949 -0.0909  0.0592
22823W        W39671   5.635  14.519   1.035  0.2580 -0.1191 -0.0701
22824W        W39672  12.871   7.134   1.035  0.1191 -0.1254  0.1093
22825W        W39673   1.668   7.323  14.563  0.1201 -0.0618 -0.1764
22826W        W39674  12.113   2.236   2.419 -0.1552  0.2124  0.0448
22827W        W39675  12.232   3.787   4.980  0.1044 -0.4421 -0.1691
22828W        W39676  16.742  11.388   0.684  0.3008 -0.3172 -0.3538
22829W        W39677  17.508   7.060  11.523  0.0042 -0.0140  0.0251
22830W        W39678  13.343  17.007   3.914 -0.0947 -0.3097  0.1060
22831W        W39679   2.070   4.718  11.405 -0.1526  0.1001  0.0266
22832W        W39680   3.046   7.908  12.310  0.2034  0.3103 -0.4140
22833W        W39681   7.416  12.486  13.351  0.0953 -0.1427 -0.0469
22834W        W39682   6.668   5.989   4.972 -0.0649  0.0568 -0.1755
22835W        W39683  17.646  14.044  11.621  0.1402 -0.0016  0.2183
22836W        W39684   1.665   5.906   1.546 -0.0269  0.2292  0.0228
22837W        W39685  14.952  15.458   3.128  0.0070  0.0534 -0.0546
22838W        W39686   7.895   4.057  12.374 -0.0082 -0.1342 -0.0670
22839W        W39687   9.718   8.005   3.606  0.1270 -0.1051  0.2872
22840W        W39688   7.023  12.003  11.739  0.0793  0.0435  0.1969
22841W        W39689   9.830  16.585  16.249  0.1077  0.0353 -0.2320
22842W        W39690   2.915   3.277  15.589 -0.2598 -0.1492 -0.4234
22843W        W39691   5.221   9.250   0.437  0.0594  0.0385  0.0076
22844W        W39692  10.047  14.101   3.448  0.0196 -0.0977  0.2578
22845W        W39693   1.007  14.375  11.902  0.2309  0.0117  0.0575
22846W        W39694  16.492   4.863   0.413 -0.4460  0.2164  0.0775
22847W        W39695   0.421  11.906   1.535  0.0716 -0.1047 -0.1310
22848W        W39696  10.116  14.301  14.138 -0.2693 -0.1427  0.0697
22849W        W39697  14.734  17.653  16.004  0.0256 -0.0488  0.0133
22850W        W39698  13.955   8.865   1.351 -0.0364 -0.0026 -0.1435
22851W        W39699  15.236   6.175  14.604 -0.1071 -0.0329 -0.1498
22852W        W39700   7.003  15.232   1.815 -0.0591 -0.0675 -0.1087
22853W        W39701  10.148  12.421   0.844  0.1970  0.2058 -0.2324
22854W        W39702  12.079  15.452   2.663  0.0863  0.0545  0.2613
22855W        W39703   7.393   8.706   4.027 -0.0403  0.1114  0.1573
22856W        W39704  16.434  17.027  11.462  0.2321 -0.1482 -0.1856
22857W        W39705  17.778   9.159   3.686 -0.0882  0.1102 -0.2675
22858W        W39706   1.533   7.243   1.889  0.0471  0.0517 -0.2655
22859W        W39707   8.507   2.252   1.782  0.1639  0.2161 -0.0633
22860W        W39708  14.676   2.677   0.247 -0.0723  0.0906 -0.1140
22861W        W39709  12.419  12.193  13.148  0.0844  0.0541  0.1538
22862W        W39710   5.990  11.166  14.080  0.1937 -0.1399  0.2061
22863W        W39711   4.343   6.171  11.317  0.2836  0.3290  0.0165
22864W        W39712  10.085  11.022   1.269 -0.0135 -0.3499  0.2466
22865W        W39713  15.566   5.717   0.838 -0.4199  0.1755  0.1223
22866W        W39714   0.580  16.166  12.801  0.2477  0.1061 -0.0726
22867W        W39715   6.686   9.370  12.136 -0.1689  0.1211 -0.1278
22868W        W39716   8.829   0.325   5.312 -0.2157  0.1208 -0.0827
22869W        W39717   2.199   2.467  14.638  0.0547  0.1219  0.2396
22870W        W39718   6.122  14.479   4.823 -0.2425  0.1094 -0.0039
22871W        W39719  14.241   7.684   2.664  0.1744 -0.2112 -0.1685
22872W        W39720   3.344   9.403   2.431  0.3819  0.1711 -0.1023
22873W        W39721   6.009   8.557   4.413  0.3554  0.1309  0.0044
22874W        W39722   5.064   9.304   2.188  0.0204 -0.1066  0.1693
22875W        W39723  16.602  15.810   0.845 -0.2000  0.0850  0.0825
22876W        W39724   0.172  11.378   0.840  0.1983  0.1778 -0.0056
22877W        W39725  16.866   3.897  10.761  0.2337  0.0786 -0.1365
22878W        W39726   6.015   3.196   2.563  0.0936  0.2685  0.2596
22879W        W39727  13.962  17.673  11.390 -0.0270 -0.1238  0.0579
22880W        W39728  15.089  13.125  14.516 -0.0447  0.1471 -0.3554
22881W        W39729  16.911   5.145   2.122 -0.1414  0.0593 -0.3352
22882W        W39730   3.739   9.051  14.741  0.2728  0.2072 -0.1788
22883W        W39731   1.795  11.258   3.503  0.0424 -0.1414  0.0820
22884W        W39732   1.858   4.555   1.640  0.0798 -0.2058 -0.1646
22885W        W39733  10.792   7.647  13.006  0.1468  0.2452 -0.3439
22886W        W39734  16.104  13.510  13.488 -0.1105  0.0526  0.3664
22887W        W39735  10.651  11.052  12.126  0.1005  0.3089 -0.1297
22888W        W39736  17.000   2.501  11.916  0.1793  0.1706  0.1200
22889W        W39737  12.910   1.453  12.334 -0.2812  0.1260  0.0617
22890W        W39738  15.407  17.443   2.605  0.1274  0.2718  0.0851
22891W        W39739   2.299  15.959   2.421  0.2068 -0.1273  0.1381
22892W        W39740   2.641  16.976  13.897 -0.1475  0.2093 -0.2665
22893W        W39741   3.464  15.973   4.899  0.1819  0.1109  0.0589
22894W        W39742  15.810   0.443   0.270  0.2274 -0.2161  0.1533
22895W        W39743   9.294  17.818  12.197  0.2919  0.0762 -0.0283
22896W        W39744   2.104   4.754  12.835  0.0807 -0.1819  0.1493
22897W        W39745  11.823  12.795   4.705  0.1670 -0.2830  0.0353
22898W        W39746   0.975   4.885   2.999  0.2937  0.1260  0.2748
22899W        W39747   1.754   6.647   0.736 -0.0714  0.2893 -0.0110
22900W        W39748  10.339   6.749  14.831  0.1720  0.1982  0.0152
22901W        W39749  14.792  17.179   2.770 -0.1956  0.1925  0.2305
22902W        W39750  15.162   5.339  13.107 -0.1223 -0.1131  0.0497
22903W        W39751  12.222  11.270   2.796  0.0480 -0.1915 -0.0870
22904W        W39752   4.128  13.004   2.674 -0.3048 -0.0784 -0.0307
22905W        W39753  13.963  10.069   0.850  0.0845  0.1819 -0.0146
22906W        W39754  16.097   7.118   5.489  0.0495  0.0893 -0.0813
22907W        W39755   4.180  11.582   0.905 -0.2609 -0.1973 -0.0951
22908W        W39756   1.991   8.936  13.478  0.3277  0.0370  0.0528
22909W        W39757   4.420   7.710  12.597 -0.0982  0.0596  0.1942
22910W        W39758   4.391   3.423  14.709  0.1300 -0.1697 -0.1584
22911W        W39759   4.080  16.012  13.086 -0.1847  0.5022  0.1814
22912W        W39760  10.381   3.673  15.681  0.0740 -0.0642 -0.3425
22913W        W39761   2.975   8.428  12.183 -0.0449 -0.0013  0.0993
22914W        W39762   8.456   0.043  14.064 -0.0026  0.2604 -0.2911
22915W        W39763  10.837  13.090  13.105  0.0181 -0.1413  0.2677
22916W        W39764  15.429   0.535   3.971 -0.0497  0.0482  0.1947
22917W        W39765   9.848   7.405  14.544 -0.2297 -0.3251 -0.3572
22918W        W39766  13.202   4.857  15.301 -0.1658 -0.1935  0.1406
22919W        W39767   4.523  11.543   4.339  0.1721  0.0162 -0.0413
22920W        W39768   6.463  14.875  15.483  0.0612 -0.1563 -0.1514
22921W        W39769  12.150   8.054  15.090 -0.0498 -0.3867  0.0768
22922W        W39770   8.412  10.861   0.183  0.2439  0.2762  0.2057
22923W        W39771   2.496   1.812  13.085 -0.0537  0.0058  0.3069
22924W        W39772  15.114   2.699   5.993 -0.2056  0.1194 -0.0298
22925W        W39773  10.481  11.811   5.257 -0.1646  0.0383 -0.1228
22926W        W39774  13.980   0.164  13.415 -0.1090  0.0681 -0.1163
22927W        W39775   1.848   6.152   0.934  0.1338  0.1030 -0.0625
22928W        W39776  17.505   2.435  16.290 -0.1772 -0.0424 -0.0432
22929W        W39777   7.928  14.181   4.824  0.0481 -0.0837 -0.0814
22930W        W39778   9.751   8.351  15.838  0.1130 -0.1265  0.0187
22931W        W39779  15.508  15.996   3.639 -0.0455  0.2925 -0.3636
22932W        W39780   0.659  11.358  11.927 -0.0060 -0.0603 -0.0605
22933W        W39781   5.042  12.938   0.370  0.1139 -0.2295  0.0497
22934W        W39782  14.397  12.682   3.038 -0.0765 -0.1463  0.0378
22935W        W39783  11.559  11.494   4.581 -0.1526 -0.2470  0.2519
22936W        W39784  10.671  10.601   4.402  0.0785  0.0010  0.0062
22937W        W39785  17.322   8.857   0.517 -0.0539 -0.0685 -0.1155
22938W        W39786   0.385   9.610   0.265 -0.0461 -0.1881  0.0562
22939W        W39787   9.552  15.186   2.524  0.0987  0.0087  0.0828
22940W        W39788  13.171   4.681  13.863 -0.2860  0.3015  0.2011
22941W        W39789  13.227  16.182  14.732  0.3638  0.0101  0.0260
22942W        W39790  17.183   9.986   1.333 -0.1731  0.2320  0.0893
22943W        W39791   1.014   0.724  14.295 -0.0044 -0.2517 -0.0395
22944W        W39792  12.270   2.490   5.043 -0.3099  0.1013  0.1033
22945W        W39793   4.625   5.281  16.386  0.0024 -0.0355  0.2536
22946W        W39794   9.570  12.619  13.331  0.0540  0.3511  0.2028
22947W        W39795   1.592   6.859  14.861  0.1993 -0.0083  0.0590
22948W        W39796   4.269  14.698   0.753  0.0090  0.2932 -0.2734
22949W        W39797   4.036  17.779  12.536  0.2080 -0.0402 -0.0383
22950W        W39798  14.903  10.640  14.487  0.0113  0.1658 -0.0310
22951W        W39799   1.667   2.190   1.601  0.0989  0.2521 -0.0215
22952W        W39800   8.940   8.805   5.504 -0.0153  0.2092 -0.0109
22953W        W39801   8.459   8.244  15.978 -0.1648 -0.1883 -0.3110
22954W        W39802  15.457  11.550  14.343  0.1448 -0.0749  0.0692
22955W        W39803   2.485   5.269   3.558 -0.0382  0.3987  0.1793
22956W        W39804  14.207  12.511   1.425 -0.1079  0.2234  0.0380
22957W        W39805  15.099   6.941  12.856 -0.0237  0.1653 -0.3243
22958W        W39806  17.669   9.302   1.126 -0.2980 -0.0910  0.0977
22959W        W39807   2.393   9.112   3.686  0.0803  0.1272  0.0612
22960W        W39808  11.545   3.837   3.200 -0.0124  0.1035  0.1338
22961W        W39809   2.202  17.063   4.667  0.0292  0.1490  0.0834
22962W        W39810   1.380   7.281  13.320 -0.2928  0.3162  0.1144
22963W        W39811   9.080   9.654  14.517  0.0560  0.1582 -0.1163
22964W        W39812   1.451  16.751   3.307 -0.1450  0.0991 -0.1668
22965W        W39813  14.658  13.900   4.960  0.3002 -0.1061 -0.0176
22966W        W39814   3.827  12.673   1.531 -0.0868  0.1856  0.0675
22967W        W39815   0.922   8.221  13.104  0.0187  0.1053  0.0706
22968W        W39816   0.688   8.610   1.043  0.1146  0.0232  0.3656
22969W        W39817  10.675  10.189  12.113 -0.3652  0.1943 -0.0693
22970W        W39818  14.866   2.154  13.768 -0.2031 -0.1569  0.2848
22971W        W39819   2.558   8.118   3.898  0.2597 -0.3171 -0.1110
22972W        W39820   0.957   3.819   5.198  0.1874  0.1059 -0.4298
22973W        W39821   7.537   3.299   2.872  0.0081 -0.0672  0.2824
22974W        W39822  12.828   6.820   2.459  0.2054 -0.5753 -0.2804
22975W        W39823   7.376  16.345  15.766 -0.1842 -0.0982 -0.0290
22976W        W39824  15.364   5.154  12.280 -0.0538 -0.2736 -0.1844
22977W        W39825  11.833  17.665  13.670  0.0837 -0.2247 -0.2262
22978W        W39826   6.593  17.284  12.664 -0.0510 -0.0519 -0.0143
22979W        W39827   4.129  13.924  12.138  0.2155  0.1290  0.3920
22980W        W39828   4.681  16.499   5.167  0.0647 -0.0951 -0.2558
22981W        W39829  10.509   7.022  14.066 -0.1722  0.1199  0.4230
22982W        W39830  14.798   4.798  14.465 -0.2065 -0.1234 -0.0778
22983W        W39831   0.891  16.339  13.668 -0.0785  0.2492  0.0783
22984W        W39832   6.281  15.207   4.411 -0.1993  0.4040  0.1639
22985W        W39833   3.298  11.474  12.646 -0.1097 -0.1627  0.1767
22986W        W39834   1.821  11.629  16.324  0.0091  0.1320  0.0370
22987W        W39835   5.653   9.751   4.662 -0.2351 -0.0365  0.0826
22988W        W39836  12.888  10.383  13.848 -0.1081  0.1418  0.0153
22989W        W39837  11.275   3.543   2.865  0.0938 -0.0720  0.0013
22990W        W39838   9.830   5.563  11.728 -0.0859  0.1049  0.0922
22991W        W39839   1.521   2.342  10.667  0.1828  0.0503 -0.0284
22992W        W39840  13.944   8.907  13.127 -0.4119 -0.0030 -0.1996
22993W        W39841   8.061   2.704   0.124 -0.1532  0.0175 -0.0553
22994W        W39842  16.697   0.777   1.964  0.1490 -0.1473  0.1016
22995W        W39843  16.644   9.823   3.624 -0.2586 -0.1088 -0.0547
22996W        W39844   5.267  16.466  13.756  0.1525 -0.0221 -0.1411
22997W        W39845   0.728   9.988  15.327  0.0709 -0.1117  0.0619
22998W        W39846  13.893   2.653  13.993  0.2230  0.2456 -0.0065
22999W        W39847   0.968   9.076  12.150 -0.2513 -0.0894 -0.0146
23000W        W39848   4.769   4.913   2.670 -0.1394  0.1497  0.4291
23001W        W39849  10.304  16.500  14.939 -0.0128 -0.1940 -0.3839
23002W        W39850  10.071  11.433   1.734 -0.0369  0.2071  0.0247
23003W        W39851  13.984  16.266   3.589  0.1404  0.0106  0.1612
23004W        W39852  16.077   5.517   3.558  0.1715  0.3519 -0.0688
23005W        W39853   5.711  11.184   0.439 -0.0420 -0.0143  0.4174
23006W        W39854   6.864   1.199   3.918 -0.2014  0.2856 -0.1093
23007W        W39855   3.052   7.857  15.227  0.0093 -0.1101 -0.4325
23008W        W39856  10.781  11.871   3.476 -0.2204 -0.2522  0.1753
23009W        W39857   2.759   0.777   3.697  0.0351 -0.2956  0.0366
23010W        W39858   8.724   1.398   2.567  0.2022  0.1116  0.1554
23011W        W39859   3.301   2.898  16.255 -0.3550  0.0299  0.0841
23012W        W39860  16.742   7.240   0.721 -0.2639 -0.0298 -0.2128
23013W        W39861  10.394   0.053  11.383  0.0876  0.1563  0.0116
23014W        W39862  17.207   6.227   2.457  0.0274  0.3545 -0.1399
23015W        W39863  12.265  10.257   0.905  0.2297  0.1514 -0.0984
23016W        W39864   3.620  15.775   3.729  0.0323  0.1319  0.0761
23017W        W39865  10.069  14.264   2.171 -0.0208  0.1570 -0.2454
23018W        W39866   1.215  17.461  10.384 -0.2955 -0.2109 -0.0781
23019W        W39867  11.174  15.602  14.081  0.0385  0.1626  0.0850
23020W        W39868   2.775  12.629   1.810 -0.1108  0.0943 -0.1689
23021W        W39869   6.739   4.072   3.758 -0.1737  0.0361  0.1721
23022W        W39870  11.766   2.627   4.208 -0.1274 -0.0939  0.3523
23023W        W39871   7.806   9.397   2.762 -0.0342 -0.0448  0.0906
23024W        W39872  11.294  15.012   4.942 -0.0201 -0.2791  0.3152
23025W        W39873   3.434   1.971   0.830 -0.1790  0.0604  0.0477
23026W        W39874  11.730  15.944   1.764 -0.5024  0.1474 -0.1335
23027W        W39875   1.191   2.525   1.520  0.1947  0.0259  0.1137
23028W        W39876   3.110   9.200   0.413  0.1477 -0.2802  0.0906
23029W        W39877   9.103  17.497   2.132 -0.1212 -0.0945 -0.2724
23030W        W39878   5.020   6.893  12.390 -0.0326 -0.1351  0.0202
23031W        W39879  15.368  12.747   4.468  0.2156 -0.4399  0.2137
23032W        W39880  13.145   5.245  14.720  0.1986 -0.3860  0.4290
23033W        W39881  15.341  16.295  16.154  0.3601  0.0407  0.1302
23034W        W39882   5.985   3.021  15.907 -0.1897 -0.2074  0.1097
23035W        W39883  14.978   4.277   2.603  0.2050 -0.1298  0.2772
23036W        W39884   4.343   5.519   0.371  0.0075  0.0176 -0.0881
23037W        W39885   9.058   7.116  12.574  0.1134  0.2839  0.1269
23038W        W39886   0.287   2.192  14.295 -0.0918 -0.0917 -0.1183
23039W        W39887  10.902  14.485  11.056  0.0079  0.0394  0.0672
23040W        W39888  12.282   5.864  14.762 -0.1024  0.0969 -0.0344
23041W        W39889   2.923   6.669  12.254 -0.1205  0.0939 -0.2832
23042W        W39890   1.886  10.915  14.271  0.0289  0.2630 -0.1160
23043W        W39891   6.480   5.130  12.603  0.0948 -0.0902 -0.3620
23044W        W39892   6.890  14.965   4.441 -0.1689  0.0988  0.0047
23045W        W39893  11.363   3.232  15.059  0.2790  0.0876  0.2532
23046W        W39894  17.773   2.836   3.456 -0.2605  0.0616  0.1464
23047W        W39895  11.449   9.770   0.521  0.0809 -0.0722 -0.3282
23048W        W39896   8.837   1.375   3.874  0.1393 -0.2173  0.1562
23049W        W39897  16.767  16.823   4.031 -0.1200 -0.0399  0.0161
23050W        W39898   8.444  17.331  15.976 -0.0501 -0.1998 -0.1207
23051W        W39899   8.775   7.631   0.889  0.1137 -0.4032  0.1697
23052W        W39900   3.608  17.445   0.696 -0.2661  0.0078 -0.0570
23053W        W39901  17.167   5.843   1.624  0.2407  0.0016 -0.1062
23054W        W39902   9.762  14.359   3.059  0.2945  0.0622 -0.2182
23055W        W39903   7.051   0.297  14.670  0.0449  0.1547 -0.3199
23056W        W39904   0.861  15.448   3.940 -0.0795 -0.0813 -0.1855
23057W        W39905   1.882  16.176   2.701  0.1255 -0.1479 -0.1160
23058W        W39906   3.814  16.598   4.560 -0.0861 -0.2465  0.1992
23059W        W39907   2.213  10.125  11.905  0.4921 -0.3124  0.1614
23060W        W39908   1.183   5.255   1.283  0.3840 -0.0303 -0.1499
23061W        W39909   7.617   2.637  15.576  0.0093  0.0908 -0.0612
23062W        W39910   4.182  16.791  11.951  0.2597  0.1351  0.1487
23063W        W39911   1.752   1.251   0.025 -0.1063  0.4662  0.5029
23064W        W39912   9.671   1.991  12.724  0.1138  0.2483  0.1832
23065W        W39913   8.885   5.573  12.854  0.1703  0.3286 -0.1179
23066W        W39914  16.353  12.413  12.338 -0.1927  0.3256 -0.0106
23067W        W39915   5.880  14.700   3.705  0.4863  0.0960  0.1169
23068W        W39916  11.303   7.491  12.232 -0.3939 -0.1260  0.1532
23069W        W39917  16.100  10.925   1.876 -0.0822 -0.0531  0.1475
23070W        W39918   0.240   7.250   4.439 -0.0241 -0.0327  0.0133
23071W        W39919  17.744   8.782   1.497 -0.2176  0.0126  0.2190
23072W        W39920   8.754  14.690   3.308  0.2018 -0.2215 -0.1319
23073W        W39921   1.613  12.940  13.511  0.1514  0.0670 -0.0449
23074W        W39922  11.025   9.727   2.099 -0.0141 -0.4556  0.0873
23075W        W39923   5.122  16.950  14.930 -0.2817  0.2905 -0.2340
23076W        W39924   0.019  15.689  11.711 -0.0232 -0.0871  0.0247
23077W        W39925   5.820  17.325  11.490  0.1208 -0.1326  0.0497
23078W        W39926   6.437  13.979  14.765 -0.0227 -0.3134 -0.1360
23079W        W39927  10.301   5.586   3.890  0.1787  0.0599  0.2934
23080W        W39928   1.013   4.865  15.705  0.3763 -0.0198  0.1906
23081W        W39929  12.127   7.207  14.885  0.2139  0.0382  0.0055
23082W        W39930   7.249  12.026  13.173 -0.1474  0.2149 -0.3469
23083W        W39931  13.055   6.337   3.295  0.0822  0.1487 -0.2853
23084W        W39932  12.680   9.643  15.961  0.0879 -0.2244  0.0510
23085W        W39933  16.237  12.042  13.361 -0.3741 -0.1813  0.0047
23086W        W39934   4.572  13.905  13.074 -0.3163 -0.0247 -0.0515
23087W        W39935   7.219  10.411   4.959  0.0090 -0.0530 -0.1443
23088W        W39936   1.316   1.732  16.056 -0.1393  0.0616 -0.0484
23089W        W39937   2.073   5.039  11.806  0.1312 -0.3982 -0.1037
23090W        W39938  12.716   1.884   3.929 -0.0272  0.0950  0.1763
23091W        W39939   1.427   3.093   5.121 -0.0765  0.0093  0.2446
23092W        W39940   6.864   7.387  14.031  0.1777  0.2485 -0.1564
23093W        W39941   5.857  16.506  14.360 -0.2253 -0.0795  0.0650
23094W        W39942  14.784  11.525   4.418  0.0620 -0.3438 -0.1078
23095W        W39943   3.601  10.093   4.409 -0.4006 -0.0473 -0.2281
23096W        W39944  14.879   0.656   4.459 -0.3820 -0.0178  0.0838
23097W        W39945   9.668   7.215  15.046  0.1599  0.2398  0.0385
23098W        W39946   2.498  16.646   0.713 -0.0752  0.1050  0.1338
23099W        W39947  10.008   7.096  11.241 -0.0097 -0.1224 -0.1028
23100W        W39948  17.746   2.868  12.244 -0.1372  0.3041  0.2763
23101W        W39949   1.838  15.418   4.128 -0.2318  0.1107  0.0778
23102W        W39950   4.024  11.036  12.221  0.0944  0.0379  0.0896
23103W        W39951  17.831  12.594   4.195  0.0444 -0.1129 -0.0885
23104W        W39952  11.603   9.601  11.665  0.0831 -0.0306 -0.0276
23105W        W39953   1.818   7.506  12.648 -0.1541  0.2142 -0.1593
23106W        W39954  12.588   5.239   3.981 -0.1245 -0.2767 -0.0334
23107W        W39955  11.045  17.240   4.016  0.0983  0.0145  0.1077
23108W        W39956   3.812   3.520   5.466 -0.2635 -0.2389 -0.0046
23109W        W39957   5.550   8.975   0.866  0.0405 -0.4194 -0.2442
23110W        W39958   5.351   3.956  14.586  0.0891 -0.0710  0.2004
23111W        W39959   5.771   5.354  16.207 -0.1879 -0.1428 -0.1509
23112W        W39960   1.103  10.725  15.172  0.2384 -0.2991  0.0727
23113W        W39961   6.732  14.420   2.935 -0.2609 -0.2448 -0.2438
23114W        W39962   8.174   6.009  16.130 -0.1174 -0.2181 -0.2452
23115W        W39963   4.094  14.260   5.199  0.3754 -0.2418  0.1127
23116W        W39964  13.869  12.183  12.934 -0.0040  0.1475  0.1933
23117W        W39965  10.436   6.449  12.373  0.0239  0.0592  0.0802
23118W        W39966   9.635   6.376  13.582 -0.0296 -0.2003  0.0330
23119W        W39967  10.553  17.871  12.385  0.0947 -0.3390 -0.1858
23120W        W39968  17.480  10.909  16.153 -0.4563  0.1404  0.4603
23121W        W39969   6.874  12.751   1.203 -0.1296 -0.0191 -0.1466
23122W        W39970  13.555   6.242  13.285 -0.2961  0.1172  0.0903
23123W        W39971  17.776   6.255  12.554 -0.1199 -0.0385 -0.1246
23124W        W39972  14.465  17.438   0.816 -0.0905 -0.1678 -0.0654
23125W        W39973   7.447  17.341  13.909  0.0188 -0.0175  0.1348
23126W        W39974   2.630  17.277   2.534  0.0666 -0.3437 -0.3103
23127W        W39975   2.071   4.169  14.018  0.1739  0.0050  0.0420
23128W        W39976  16.137  11.334   3.205 -0.2146  0.1359 -0.2282
23129W        W39977  13.523  14.586  11.417 -0.0289  0.2599  0.0548
23130W        W39978   1.364  17.521  12.770 -0.1321 -0.0418  0.0305
23131W        W39979  14.031   7.770   4.739  0.2074  0.0452  0.3543
23132W        W39980   4.381  13.360   4.343  0.0636  0.1446 -0.1328
23133W        W39981   6.695   1.694   5.049 -0.0867 -0.0738  0.0820
23134W        W39982   7.907   8.843   1.086  0.0889 -0.2275  0.1192
23135W        W39983   9.020   8.984  15.625  0.0720  0.0281 -0.1425
23136W        W39984  17.655   5.890  13.751 -0.1103 -0.3071  0.0284
23137W        W39985   7.853   3.322  11.882 -0.1269 -0.0775 -0.2347
23138W        W39986  15.187   5.586   3.527 -0.2298  0.3018 -0.0375
23139W        W39987   5.430   1.527   3.742  0.0074  0.1043  0.0277
23140W        W39988   5.293   2.837  15.417 -0.1077 -0.1587  0.2303
23141W        W39989   3.940   5.086  14.682 -0.2145  0.1991 -0.0678
23142W        W39990  17.526   0.597  13.442  0.2241  0.3073  0.1943
23143W        W39991  16.844   1.421  11.772 -0.1684 -0.2068  0.2295
23144W        W39992   8.019  11.662  15.437 -0.3960 -0.0317 -0.2456
23145W        W39993  11.869   5.263  12.602 -0.0609 -0.0779  0.0067
23146W        W39994   8.908  15.828  13.678 -0.0289  0.2726  0.1358
23147W        W39995   6.471  16.924  14.766  0.0560 -0.1692  0.0455
23148W        W39996  10.085   1.920  13.015  0.1049  0.0304  0.0802
23149W        W39997  10.747   9.086   5.058 -0.0631 -0.1425  0.1140
23150W        W39998  10.301   2.762  15.462  0.0914 -0.0055  0.2057
23151W        W39999   9.235   8.652  11.989 -0.0581 -0.2150  0.0536
23152W        W40000  11.080  17.109   1.857 -0.1488  0.1081 -0.1340
23153W        W40001   5.393  10.260   4.543 -0.0843 -0.1300  0.0127
23154W        W40002  15.087   6.699  11.560 -0.0095  0.0643  0.0487
23155W        W40003  16.783   3.803   0.068  0.1398 -0.2850  0.0561
23156W        W40004  12.541   5.773   4.813  0.3415 -0.1975  0.1147
23157W        W40005   8.404  11.598  14.515  0.3640  0.0615 -0.1418
23158W        W40006  14.687   0.467  13.917 -0.0421 -0.1187  0.0243
23159W        W40007  14.198   5.249   1.512 -0.3435 -0.2891 -0.0354
23160W        W40008   5.395  11.441   5.644  0.2791  0.2872  0.1524
23161W        W40009   6.516   1.261   4.241  0.2487  0.0650 -0.1111
23162W        W40010   9.030   3.042   3.238 -0.1212 -0.1239 -0.2343
23163W        W40011   1.324   0.280   3.396  0.0812 -0.0910  0.0413
23164W        W40012  11.913   9.018  13.630 -0.1899  0.0772  0.0280
23165W        W40013   3.076   6.921  15.076  0.1995 -0.0406 -0.1201
23166W        W40014   8.130   6.423  15.115  0.1210  0.0296  0.3056
23167W        W40015  13.079  16.408  16.392 -0.0096 -0.2398  0.2391
23168W        W40016   8.647  11.224   3.686 -0.0277 -0.0126 -0.1057
23169W        W40017   1.510  11.826   0.194 -0.0812  0.0820 -0.0905
23170W        W40018   3.100   7.048  13.506  0.0051  0.2305 -0.0322
23171W        W40019  14.278   9.539   1.360 -0.0678 -0.0620 -0.1712
23172W        W40020  12.140   0.636  15.340  0.1835 -0.1708 -0.3960
23173W        W40021   0.784  10.451   3.730  0.1843 -0.0397 -0.3070
23174W        W40022  11.312   8.163   1.149 -0.0398 -0.0601 -0.1444
23175W        W40023  16.320   7.502  11.356  0.2191 -0.4340  0.2371
23176W        W40024  17.288   7.551  14.727  0.0222  0.1611  0.2163
23177W        W40025   2.411  14.474   3.760 -0.0213  0.1166  0.0953
23178W        W40026   1.978  12.718  13.785  0.1712  0.0386 -0.1408
23179W        W40027   7.896   5.306   1.203 -0.0780  0.0480 -0.0240
23180W        W40028  10.039   3.912  16.368  0.1144 -0.1440  0.0657
23181W        W40029  11.446   0.053   4.792 -0.1924 -0.0984 -0.2357
23182W        W40030   1.578  17.794   2.022 -0.0915 -0.0215  0.3362
23183W        W40031  16.206  17.106  14.768 -0.0749 -0.0381 -0.1262
23184W        W40032  12.941   5.275   3.327  0.2000  0.2706 -0.1654
23185W        W40033   2.551  14.060   0.624 -0.0293 -0.2892  0.1391
23186W        W40034   7.044   4.846  11.852 -0.2169 -0.1245 -0.3440
23187W        W40035   7.159   5.455   4.515  0.1180  0.3027 -0.1360
23188W        W40036   4.391  17.725  12.061  0.0083  0.3784  0.2481
23189W        W40037   4.060  14.288  16.260  0.2516  0.2869  0.3356
23190W        W40038  16.366  13.660   2.546 -0.3748  0.1024  0.2263
23191W        W40039   5.008  12.288  15.469  0.3104 -0.0776 -0.1234
23192W        W40040  11.932   7.662  12.591 -0.2481 -0.0698  0.1472
23193W        W40041   1.945  14.833  12.616 -0.0801 -0.2543  0.1565
23194W        W40042   8.746  15.837   0.629  0.2101 -0.1757  0.0001
23195W        W40043   2.146   3.273   1.268  0.0809  0.0113 -0.0855
23196W        W40044  13.200   0.363  11.775  0.0267  0.0140  0.3241
23197W        W40045  13.523   5.051   2.248 -0.0614 -0.0270  0.0535
23198W        W40046   0.001   3.262  14.084 -0.0431  0.0670  0.0461
23199W        W40047   6.648   6.226   1.145  0.0444  0.0021 -0.0043
23200W        W40048   6.042  16.022   1.845 -0.2693 -0.3628 -0.0691
23201W        W40049  16.294  12.829  16.136  0.1271 -0.0111  0.2554
23202W        W40050  12.332  12.181   6.065 -0.1051  0.2080 -0.1468
23203W        W40051   0.326  13.113  12.548 -0.0084  0.0200  0.2034
23204W        W40052   1.324  11.839   1.463 -0.0571  0.0797  0.5654
23205W        W40053  15.461  12.559   1.487 -0.2973 -0.0605  0.1780
23206W        W40054   1.340   7.840  13.046 -0.0270 -0.1244 -0.1695
23207W        W40055  16.757  11.572  11.999 -0.0311  0.0615  0.1319
23208W        W40056   4.243   1.831   0.338  0.1812 -0.1151 -0.1702
23209W        W40057  14.594   0.667   2.722 -0.3303  0.0653 -0.1887
23210W        W40058   3.562   8.894   2.562 -0.2985 -0.2931 -0.1570
23211W        W40059  14.545  11.144  15.286  0.3278 -0.1170 -0.0340
23212W        W40060   4.613   9.672   3.066 -0.2919 -0.0907  0.1105
23213W        W40061   4.783   3.750  16.197 -0.2324  0.0992 -0.0434
23214W        W40062   2.965   8.454   1.690  0.1040 -0.0486 -0.1544
23215W        W40063  11.310   9.343   6.232  0.1182  0.0986 -0.2180
23216W        W40064   5.447  16.614   3.626 -0.1780  0.0280 -0.3818
23217W        W40065  14.668   6.672  10.439 -0.0446  0.0362 -0.3471
23218W        W40066   6.466  15.268   6.309 -0.1031  0.0590 -0.0091
23219W        W40067   9.171   7.007   4.346  0.6101 -0.5290 -0.0748
23220W        W40068   6.036  13.033   4.010 -0.0436 -0.1194 -0.0191
23221W        W40069   2.532  16.897  13.047 -0.0706 -0.0865  0.2484
23222W        W40070   9.037   5.135   3.976 -0.0169  0.2524 -0.0536
23223W        W40071  13.551   1.574  15.326 -0.0999 -0.1444 -0.2416
23224W        W40072   2.554   7.124   4.099  0.1060  0.1233 -0.1622
23225W        W40073  16.866   3.965   2.574  0.2123  0.0098  0.3560
23226W        W40074  11.439   2.622   3.880 -0.0858  0.1634  0.3089
23227W        W40075  13.381   3.416  14.895  0.1583  0.1382  0.0462
23228W        W40076   0.753  12.541   3.482  0.1970  0.0901  0.1032
23229W        W40077  14.594   9.186   1.153  0.0036  0.0945  0.1293
23230W        W40078   6.408  11.665   4.904 -0.1920 -0.0250  0.3345
23231W        W40079   1.917   0.806   4.630 -0.1899 -0.0505  0.3012
23232W        W40080   9.210   2.468  15.224  0.0189 -0.0843  0.2690
23233W        W40081  10.653   6.471   5.202 -0.3102 -0.3169 -0.0235
23234W        W40082   3.178   9.889  13.261  0.0957  0.2425  0.3754
23235W        W40083   8.271  17.183   1.352  0.1611 -0.4012  0.2360
23236W        W40084   2.821  11.683   4.154 -0.1188 -0.0150  0.2496
23237W        W40085   9.300  16.867   2.830 -0.1021 -0.0116 -0.2568
23238W        W40086   2.830  10.930  11.852  0.1987 -0.0456 -0.0324
23239W        W40087  16.513   9.689   4.090  0.2431 -0.0583  0.1432
23240W        W40088   1.430   0.931  10.463 -0.1473  0.2024  0.0965
23241W        W40089  16.374   4.372   0.656  0.1302  0.0764 -0.0349
23242W        W40090  10.327  11.004   4.650 -0.1186  0.1270 -0.2646
23243W        W40091   7.238  16.723   2.100 -0.2687 -0.1003  0.1400
23244W        W40092   5.392  13.375  13.057  0.1208 -0.0449  0.2088
23245W        W40093  13.298   2.886  16.252 -0.1151  0.2848  0.3116
23246W        W40094  15.146   8.514   0.657  0.1916 -0.1345  0.0929
23247W        W40095   5.335   6.665  14.038  0.4329  0.3611  0.0687
23248W        W40096  10.222   2.271   5.291  0.0544 -0.1526 -0.3105
23249W        W40097  16.753  14.543   0.107 -0.2700  0.0041  0.2833
23250W        W40098  16.112   6.426  14.271  0.1378 -0.2659  0.0941
23251W        W40099  10.729  12.458  16.448 -0.2264 -0.1105 -0.0485
23252W        W40100  15.545  11.383   2.506  0.1301 -0.3341  0.4080
23253W        W40101   3.908  12.069  13.122  0.1367 -0.2745  0.1053
23254W        W40102  10.423   2.648   4.056  0.0496  0.0334  0.2325
23255W        W40103   2.964   7.117  12.563 -0.3352  0.0047  0.1727
23256W        W40104  14.638   2.122   4.332 -0.1850  0.0675  0.2106
23257W        W40105  11.085  11.845  13.036 -0.1065  0.0720  0.1987
23258W        W40106  11.961  15.980  14.467 -0.2269  0.2138  0.1472
23259W        W40107   0.452  16.863   0.749 -0.1325 -0.2009 -0.0476
23260W        W40108   0.322  13.308   3.726  0.0842 -0.0526 -0.0681
23261W        W40109   8.424  15.512  12.631  0.2392 -0.0397 -0.2655
23262W        W40110  11.703   8.130   6.401  0.1896 -0.2177 -0.2392
23263W        W40111  16.395   5.132  15.230 -0.0633 -0.0125  0.3411
23264W        W40112   5.432  16.481  16.383 -0.0905  0.2703 -0.2599
23265W        W40113  15.890  14.482  13.740  0.2036 -0.1800  0.1119
23266W        W40114   6.235   4.463   1.771 -0.1358  0.2982  0.0145
23267W        W40115   2.824  13.641  13.323  0.1680  0.2031  0.2775
23268W        W40116   6.861  12.617   2.562 -0.0132  0.0262 -0.0824
23269W        W40117   9.877  15.149   0.521 -0.3378 -0.0194 -0.0637
23270W        W40118   1.743  12.222  12.337  0.2100  0.2263 -0.0125
23271W        W40119   9.728   6.107  14.234  0.0418 -0.0844  0.2986
23272W        W40120  17.796   8.505  14.888  0.0548 -0.2648  0.1282
23273W        W40121  12.861  17.738   4.707  0.3933 -0.1303 -0.1966
23274W        W40122   2.229  16.011  11.949  0.1871  0.0573 -0.1835
23275W        W40123  10.680   3.143   6.380 -0.2902  0.2307 -0.2786
23276W        W40124   2.483   1.646   1.796  0.1465 -0.1782 -0.1644
23277W        W40125  12.974   6.840   3.493 -0.0337 -0.0786  0.0484
23278W        W40126  17.770  12.634   1.177 -0.0126 -0.1545 -0.2786
23279W        W40127   2.466   9.636  14.044 -0.1290  0.2861 -0.1308
23280W        W40128   6.336  12.633   5.215  0.0016  0.0619  0.2349
23281W        W40129  15.783   0.987  12.647 -0.0267 -0.0391 -0.0179
23282W        W40130  17.852   6.767  12.877 -0.0482 -0.0018  0.0535
23283W        W40131   1.535  17.017  14.340 -0.0364  0.0364 -0.2303
23284W        W40132   3.638   4.818   0.753  0.1732  0.0466  0.1446
23285W        W40133   2.755  17.299   1.994  0.2147  0.1672  0.1652
23286W        W40134  17.681  15.817   4.732 -0.2371  0.0154  0.0756
23287W        W40135   3.973  16.773   1.364 -0.0708 -0.2986 -0.2310
23288W        W40136  14.136  12.438   5.005 -0.0292 -0.1373 -0.0578
23289W        W40137  12.911   3.849   4.383  0.3418  0.0677 -0.0463
23290W        W40138   7.517   2.282  14.493  0.2145  0.2295 -0.0983
23291W        W40139  11.264   1.334  14.333 -0.0112  0.0851 -0.1984
23292W        W40140   6.157  13.962   0.857  0.0310 -0.1649 -0.1270
23293W        W40141  10.127   9.864   3.671  0.0229  0.2430  0.2240
23294W        W40142   4.008   8.733  11.458  0.1903  0.1289 -0.0957
23295W        W40143  12.586  17.666  15.906 -0.2308  0.0877  0.1442
23296W        W40144   8.923  17.807   1.756 -0.0270 -0.1474 -0.3546
23297W        W40145   3.109  11.489   0.117  0.3839 -0.1153  0.1472
23298W        W40146   9.757   2.154  15.859 -0.1076 -0.1848 -0.3033
23299W        W40147  10.662   0.846  11.919 -0.2339  0.1066  0.2640
23300W        W40148   2.017  13.107  14.661  0.1704  0.0370 -0.1647
23301W        W40149   9.696   7.128   1.983  0.0787  0.1578 -0.3620
23302W        W40150   8.907   8.774  16.118 -0.1465  0.3804  0.0561
23303W        W40151  11.182   9.211  14.255  0.0283  0.0848 -0.0939
23304W        W40152   6.974  17.482  13.940  0.0525 -0.1093  0.1619
23305W        W40153  10.037   4.072   1.892 -0.0982  0.2702  0.1262
23306W        W40154   0.481   6.090   0.555 -0.0604 -0.0897 -0.1274
23307W        W40155   9.015  12.385  12.074  0.1007  0.0958 -0.4433
23308W        W40156  12.644   1.264   0.366 -0.0915  0.3792  0.2380
23309W        W40157   8.521   1.998   4.629  0.1261 -0.1157  0.2993
23310W        W40158  14.710  13.723   1.428 -0.1888 -0.1765 -0.0017
23311W        W40159   9.918   7.385   2.997 -0.0597 -0.0057 -0.2070
23312W        W40160   2.365   0.713  14.327 -0.0171 -0.0643 -0.1204
23313W        W40161  12.931   6.492  13.977 -0.0442  0.1504 -0.0827
23314W        W40162  15.102   1.094   4.381 -0.1658 -0.1162  0.0939
23315W        W40163   5.388   8.742   0.240  0.1453 -0.2218 -0.0430
23316W        W40164   5.027   5.920  12.608  0.3845  0.0387  0.1347
23317W        W40165  13.613   3.154   4.048  0.1068 -0.5310 -0.3134
23318W        W40166   7.465   1.196   3.932 -0.1393 -0.2931 -0.2049
23319W        W40167   2.786   7.514   0.088 -0.2038 -0.1148  0.1614
23320W        W40168  17.585  16.070   0.277 -0.2056 -0.0351  0.2645
23321W        W40169  14.176   8.458   1.176 -0.2175  0.0956  0.2120
23322W        W40170   6.438  14.062   2.746  0.2567  0.1136  0.1288
23323W        W40171  14.636   7.923   5.646 -0.0429  0.1339 -0.3350
23324W        W40172   4.974   4.608  15.060 -0.0180 -0.0517  0.0452
23325W        W40173   8.790  15.459   3.035 -0.1325  0.0631 -0.2282
23326W        W40174   3.147  16.376  11.507  0.0168 -0.1262 -0.3308
23327W        W40175  15.402  10.332  12.188 -0.1197 -0.1428  0.1514
23328W        W40176  17.168   8.295  11.369  0.1911 -0.2961  0.4146
23329W        W40177   8.466  13.251   2.387 -0.0151 -0.3163 -0.0753
23330W        W40178   0.298   0.773   5.596 -0.0086 -0.1229 -0.0018
23331W        W40179  15.429  13.439   3.370  0.2301  0.0791  0.0107
23332W        W40180  11.384   9.717  14.874 -0.2028 -0.0967 -0.1356
23333W        W40181   8.474  11.833  14.032  0.0416  0.1161  0.1382
23334W        W40182  16.730  13.271  10.184  0.1101  0.0069  0.3052
23335W        W40183  15.081  10.774  14.049  0.1419  0.0505  0.1320
23336W        W40184   3.063  16.613   0.897  0.4134  0.3182 -0.2081
23337W        W40185  17.162   4.152   0.861  0.1986  0.0366  0.2407
23338W        W40186   6.362  15.045   3.033 -0.1262 -0.2580 -0.0858
23339W        W40187   7.489   5.232  15.088  0.1384 -0.0262 -0.0360
23340W        W40188  10.073  16.906  13.043 -0.2171  0.0459  0.0287
23341W        W40189  11.546   4.764  14.143  0.0793  0.2285  0.1157
23342W        W40190   0.542   3.087   5.234  0.0461 -0.0785 -0.0450
23343W        W40191   3.981  12.397  14.094 -0.1105 -0.1651  0.2749
23344W        W40192  13.465   9.994  15.191  0.1662 -0.0595 -0.0515
23345W        W40193   6.454  11.448  12.578 -0.0122 -0.1841 -0.0139
23346W        W40194   6.200   2.580  14.987  0.0834  0.3129 -0.3955
23347W        W40195  15.704   5.817   2.764 -0.1076  0.0596  0.0964
23348W        W40196   0.816  16.563   3.213 -0.2863 -0.3086 -0.0180
23349W        W40197   4.784  12.894   3.534 -0.1212 -0.2424  0.3127
23350W        W40198  16.970   6.078   0.631 -0.1661 -0.0345  0.1691
23351W        W40199   5.970  16.370  16.467  0.0165  0.0983 -0.0428
23352W        W40200   2.549  17.362  15.604 -0.0456  0.0721  0.0072
23353W        W40201   6.051  16.834   5.193  0.0040  0.0644 -0.0461
23354W        W40202   8.114  16.101  14.124  0.0136  0.0269  0.1784
23355W        W40203   3.776   7.236   1.444  0.1518 -0.1909 -0.3306
23356W        W40204  12.884   8.380   0.401  0.2996  0.0374  0.3910
23357W        W40205   9.055   4.038  16.224  0.1415  0.1127  0.1052
23358W        W40206  12.715  15.954   1.458  0.1397 -0.0703 -0.1894
23359W        W40207  11.713   9.915   3.741  0.4591  0.1407  0.0146
23360W        W40208   9.478   0.491   4.665 -0.0843  0.3114  0.1616
23361W        W40209  12.747  11.541   3.894  0.2685 -0.1406 -0.1787
23362W        W40210   1.852  15.555  15.230  0.1714  0.0453  0.1805
23363W        W40211  10.645   0.329  12.733  0.0299  0.2567  0.0160
23364W        W40212  17.163  16.905  14.559 -0.2105  0.1972  0.0525
23365W        W40213   3.907  10.500   5.276  0.1474  0.1293  0.0847
23366W        W40214   0.629  16.186  11.095  0.1178  0.1274 -0.0251
23367W        W40215   4.687  10.369   5.797 -0.0880 -0.2014  0.2043
23368W        W40216   1.379   7.578   2.869 -0.0327  0.1225 -0.3033
23369W        W40217  14.258  13.077  16.385  0.0479  0.1702 -0.2753
23370W        W40218   5.541  12.946   0.516  0.0386  0.3378  0.1926
23371W        W40219   4.656  15.037   4.150 -0.0404 -0.1402  0.0815
23372W        W40220   2.387  13.148   0.645 -0.1341 -0.1071  0.1143
23373W        W40221   7.788  12.573  11.582 -0.0575 -0.0701  0.1602
23374W        W40222  13.735   8.667  16.380 -0.2070 -0.2405 -0.0994
23375W        W40223  12.296   0.132   4.185  0.2021  0.1837 -0.0444
23376W        W40224   8.320  14.804   4.161  0.1716 -0.1368 -0.2561
23377W        W40225   3.894   1.424   4.566  0.3033 -0.0714  0.0314
23378W        W40226   6.819  13.288   3.047 -0.1053  0.2139  0.4994
23379W        W40227   0.341  14.917   0.452 -0.0651 -0.0333 -0.0543
23380W        W40228  10.488   5.591   1.609  0.2049  0.0543 -0.0086
23381W        W40229  17.038  15.587   2.270 -0.2915 -0.0115 -0.1567
23382W        W40230   4.327  15.035  15.715 -0.1184 -0.0312 -0.1520
23383W        W40231  12.281   2.231  15.511  0.1782 -0.1574 -0.1312
23384W        W40232   6.296   8.366   0.484 -0.1954  0.1502 -0.0060
23385W        W40233   9.068   8.696  10.762  0.2337 -0.0061  0.0155
23386W        W40234  10.700  15.339  16.302 -0.3237  0.1734 -0.1414
23387W        W40235   5.363   4.110   0.849 -0.1216 -0.1692  0.2987
23388W        W40236   7.662  10.767   3.290  0.1176  0.0435  0.2007
23389W        W40237   5.214   5.283  16.226 -0.0198  0.0274  0.2349
23390W        W40238  14.858   0.069   2.138 -0.1503 -0.1845 -0.0240
23391W        W40239   8.385  13.699   0.040 -0.0205 -0.1109  0.0845
23392W        W40240   4.916   8.702   4.814  0.0373 -0.1078 -0.0132
23393W        W40241   0.212  16.156  13.269 -0.0275 -0.0853 -0.2599
23394W        W40242  17.151   9.526   2.000 -0.0475 -0.1436 -0.3850
23395W        W40243  13.569   3.060  15.786  0.2601  0.0279  0.2153
23396W        W40244  17.809  14.135  14.895  0.1966  0.1229 -0.0079
23397W        W40245   7.385   7.198   2.366  0.0482 -0.0789  0.3873
23398W        W40246  13.550   0.770   1.835 -0.0161 -0.1035 -0.1661
23399W        W40247   9.235  15.838   0.390 -0.2801  0.1496  0.0658
23400W        W40248   3.441   5.342   0.662 -0.1547 -0.0389 -0.1645
23401W        W40249   6.895   6.669  12.270  0.1791  0.0007 -0.0061
23402W        W40250   9.039  11.936   4.061 -0.1772  0.1474  0.1293
23403W        W40251   8.634  10.062  11.346  0.0594 -0.0046  0.0164
23404W        W40252   0.021   7.399  13.428  0.3271  0.3095 -0.0825
23405W        W40253  15.488   4.308  10.883  0.2557  0.0725 -0.2191
23406W        W40254   7.209   1.823   3.062 -0.0855  0.0944  0.1001
23407W        W40255  14.577   6.882   2.900  0.0850  0.1057  0.1282
23408W        W40256   0.174  14.203  13.968  0.2449 -0.2612 -0.1591
23409W        W40257  14.416   6.020  14.546 -0.1831  0.1826  0.1075
23410W        W40258  12.131   0.021  11.780  0.2184 -0.1115 -0.2583
23411W        W40259   6.121   0.950  12.193 -0.0993  0.1666  0.3902
23412W        W40260   0.014   0.893   2.024 -0.0141  0.2281  0.0586
23413W        W40261  10.263   6.290   6.143 -0.0407  0.0160 -0.0581
23414W        W40262  16.740   2.470  14.589  0.2760  0.3200  0.0297
23415W        W40263   7.346  15.861  16.416  0.1339 -0.1821 -0.0203
23416W        W40264  14.283  11.941   5.100 -0.2758 -0.0310 -0.1049
23417W        W40265   6.231  11.659  11.132 -0.0018 -0.3277  0.0170
23418W        W40266   8.405   7.382   0.468 -0.0298  0.0056  0.0371
23419W        W40267  14.273   8.335  15.564 -0.0397  0.1392  0.0306
23420W        W40268   4.141   0.723  14.500  0.1292  0.1562 -0.2434
23421W        W40269  17.181   6.125  14.920  0.0600  0.2682 -0.0815
23422W        W40270   2.916   7.519  16.020  0.2430 -0.0978  0.0654
23423W        W40271  12.803  11.193  13.187 -0.0084 -0.1653 -0.1751
23424W        W40272   3.371   9.443  11.814 -0.1164 -0.0400  0.0623
23425W        W40273  16.642  13.215   2.684 -0.0494 -0.0817 -0.0880
23426W        W40274  14.648   4.535   4.088  0.1078 -0.0882 -0.0161
23427W        W40275   9.243  17.639  15.184 -0.0345  0.2973 -0.0911
23428W        W40276  17.399  15.972   0.777  0.3814 -0.0016 -0.1427
23429W        W40277  16.451   7.693  14.603  0.2032  0.1951  0.2448
23430W        W40278   6.119  10.841  11.505 -0.0690 -0.3011 -0.1511
23431W        W40279   7.277  11.455  15.205  0.1608  0.0956  0.0935
23432W        W40280   5.164   5.789   1.678  0.0339  0.1213 -0.2934
23433W        W40281   8.498  11.742  11.441 -0.1167  0.0812 -0.0187
23434W        W40282   4.813   3.240  13.942  0.0787 -0.2889  0.2773
23435W        W40283  15.955   2.785   0.020  0.0809 -0.1384  0.3802
23436W        W40284   4.979  11.552  16.425  0.2469 -0.3309 -0.0773
23437W        W40285   7.055   0.150  15.164 -0.0086  0.0650  0.0534
23438W        W40286   3.647   7.223   3.657 -0.1976  0.2385  0.1636
23439W        W40287   9.809   1.211  15.867  0.1974 -0.1409 -0.0572
23440W        W40288   6.433  17.389  12.229  0.2986  0.3041  0.2259
23441W        W40289   1.884  11.900  15.446 -0.0226  0.0418  0.0399
23442W        W40290   6.863   4.139   4.638 -0.1718  0.2378 -0.1650
23443W        W40291  15.364  17.620  14.469 -0.2274  0.4022 -0.0310
23444W        W40292   8.366   6.084   0.124  0.0337 -0.1393  0.0222
23445W        W40293  14.327   7.561   5.063 -0.1242 -0.0397 -0.1565
23446W        W40294  14.674   9.854   1.258 -0.0389  0.1392 -0.0499
23447W        W40295  13.458   7.605   1.360 -0.0734 -0.1656  0.0550
23448W        W40296   0.479   5.902   3.434  0.3201  0.1659  0.0462
23449W        W40297  14.764   4.149  16.134  0.0185  0.0526 -0.0449
23450W        W40298   5.793  13.895   4.519 -0.2888 -0.1774 -0.1961
23451W        W40299   1.449  16.911  12.031  0.2597  0.1779 -0.1114
23452W        W40300   5.832   1.610   3.510  0.3842 -0.0270  0.2643
23453W        W40301  11.867  16.740   0.106 -0.0943 -0.1502 -0.0509
23454W        W40302   7.803   0.878  15.355  0.2898  0.0271 -0.1060
23455W        W40303  11.839   3.394  13.580  0.2115 -0.1652 -0.5074
23456W        W40304   6.447  12.479   3.291 -0.1528  0.0203  0.1859
23457W        W40305  11.934  10.858   2.598 -0.2435 -0.3933 -0.1559
23458W        W40306   3.132   1.117   5.042  0.3059 -0.2656  0.1771
23459W        W40307   1.029  10.755   1.681  0.2533  0.2998 -0.1760
23460W        W40308   1.192   1.491  12.919  0.1483 -0.3927  0.4384
23461W        W40309  13.124   6.054   0.009  0.2738 -0.3411  0.0392
23462W        W40310  11.233  13.918  11.814  0.1417 -0.1912 -0.0073
23463W        W40311   5.548  10.127  10.814  0.2564 -0.0277  0.1593
23464W        W40312   0.450  10.104   0.193 -0.1982  0.1164 -0.3879
23465W        W40313   8.301  16.065   4.523 -0.0375 -0.0811 -0.0232
23466W        W40314  15.916  14.757   0.875 -0.1871  0.2186  0.2596
23467W        W40315  15.396   5.240  11.655 -0.1196 -0.0564 -0.1485
23468W        W40316   3.858   1.140  14.265  0.3884 -0.3549  0.1468
23469W        W40317   7.094  16.682   5.173  0.0389  0.0366 -0.1621
23470W        W40318  16.359   9.915   1.722  0.3180  0.0786  0.0273
23471W        W40319  12.753   2.020  15.372  0.1270  0.2432 -0.0482
23472W        W40320   7.085  16.082   3.801  0.0779  0.4771  0.1191
23473W        W40321   7.204   9.203  10.947 -0.1119  0.1212 -0.0869
23474W        W40322  10.393   5.585   2.096  0.0541  0.0021  0.2687
23475W        W40323   7.133   7.439   1.194  0.0181  0.0811 -0.1945
23476W        W40324   5.996   4.664  10.640 -0.0763 -0.1999  0.0057
23477W        W40325   0.309   7.391   1.995 -0.1833  0.1421  0.2317
23478W        W40326  17.859   4.873  14.641 -0.1094 -0.0780 -0.0317
23479W        W40327   7.846   1.758   2.414 -0.0445  0.0374 -0.2591
23480W        W40328   4.313   4.070  12.509  0.1621  0.1418 -0.0936
23481W        W40329   6.235   2.650   4.275  0.2262  0.2161  0.0491
23482W        W40330  11.258   3.178  16.077  0.2099  0.0865  0.1109
23483W        W40331   3.118   3.605   0.364  0.0622 -0.1405 -0.0706
23484W        W40332   7.770  12.922   3.564 -0.1301 -0.0919  0.0134
23485W        W40333  11.292   3.585   2.322 -0.0075  0.2147  0.0237
23486W        W40334   3.651  17.488   1.235  0.1532  0.0458  0.0310
23487W        W40335   8.543  16.280   2.439 -0.0251  0.1264  0.0388
23488W        W40336  13.189   3.244   0.535 -0.1652  0.0829 -0.5012
23489W        W40337   6.991   2.933   3.232  0.0688 -0.0136 -0.1575
23490W        W40338  17.455  15.126   0.094 -0.1570 -0.1424  0.0271
23491W        W40339   1.575   8.248  10.654  0.2479  0.2006 -0.1903
23492W        W40340   6.433  17.105   0.399  0.0460  0.3259  0.0747
23493W        W40341   4.847   9.853  14.532 -0.1946 -0.0820 -0.2627
23494W        W40342   7.575  14.682  11.881 -0.0349 -0.2282 -0.0778
23495W        W40343   6.419   4.318   5.631  0.2779 -0.2159 -0.0018
23496W        W40344  10.070  11.601  11.919 -0.1562  0.0298  0.0558
23497W        W40345   6.139   2.826  14.477 -0.0554 -0.0951 -0.0839
23498W        W40346  13.455  13.163   2.205  0.1097  0.1179  0.0710
23499W        W40347  10.532   2.145  15.876  0.1281 -0.2018 -0.0006
23500W        W40348   8.706  13.231  12.277  0.2011  0.2225  0.0020
23501W        W40349   4.761  12.569   6.067  0.0319 -0.0794  0.1186
23502W        W40350   2.069   2.379  15.907  0.1220  0.2078 -0.0481
23503W        W40351   8.516  15.973  13.452 -0.0467 -0.2350  0.0462
23504W        W40352   9.593   6.356  15.950 -0.0359 -0.1836  0.0822
23505W        W40353   4.919   0.980   0.745 -0.1577  0.0313  0.0806
23506W        W40354  11.642   0.465  15.283  0.1306  0.3673  0.1927
23507W        W40355  14.572   1.390   2.392 -0.1612  0.2645  0.0479
23508W        W40356  14.639   7.051  12.384 -0.3581  0.2462 -0.0358
23509W        W40357  14.682  13.203   3.783  0.1511  0.0394  0.2027
23510W        W40358  14.080   9.262  13.690  0.0136 -0.0044  0.0617
23511W        W40359   9.923  15.035   6.277  0.4592 -0.1945  0.0262
23512W        W40360   4.021  15.322   2.933  0.0915  0.1599 -0.1586
23513W        W40361   8.356   9.618  11.449  0.3801  0.0840 -0.0351
23514W        W40362   1.703  14.298   0.440 -0.1649 -0.1259 -0.1117
23515W        W40363   3.041   5.887   0.952 -0.1274 -0.0056 -0.0300
23516W        W40364  12.089  17.288   3.725  0.2859  0.0669 -0.0609
23517W        W40365   1.385   5.525   1.726 -0.0656 -0.5711 -0.2140
23518W        W40366  16.095  10.031   4.217 -0.0209 -0.0277 -0.1068
23519W        W40367   2.185  12.738  15.424 -0.0387  0.1892 -0.0192
23520W        W40368   2.231  15.877   4.693  0.3314  0.1375 -0.0641
23521W        W40369   3.391  17.011  15.105  0.1479 -0.1279 -0.2531
23522W        W40370   2.726  15.619   1.379 -0.5357 -0.1830 -0.1515
23523W        W40371   5.464  13.961   3.181  0.0470  0.1535  0.1490
23524W        W40372   5.516   4.534   2.940 -0.2557  0.1920  0.1819
23525W        W40373   3.292   0.617   2.662  0.1910 -0.0254  0.1660
23526W        W40374  15.716   8.973  12.462  0.1313 -0.2259  0.1074
23527W        W40375  16.212   1.971  12.072  0.0262 -0.3808 -0.2326
23528W        W40376  12.250   6.013  12.383  0.1349 -0.0714 -0.2076
23529W        W40377   6.395   5.195  13.627  0.3000  0.3845 -0.0517
23530W        W40378   8.657  16.569  13.488  0.2922 -0.1358  0.1452
23531W        W40379   1.968  17.819   1.125  0.0713 -0.1048 -0.2775
23532W        W40380   5.999   9.531   5.554  0.1111  0.0135 -0.0534
23533W        W40381  16.912  15.773  11.350  0.0799  0.1552 -0.3505
23534W        W40382  17.048   5.975  12.326  0.0730 -0.1451  0.1857
23535W        W40383   7.448  17.298  15.855 -0.2678 -0.0007  0.1026
23536W        W40384   9.213   9.703  12.699  0.0670 -0.1581 -0.0338
23537W        W40385   3.346   8.006  16.186 -0.3873  0.1531 -0.0790
23538W        W40386   5.986  12.185   6.408  0.1299  0.1899 -0.1086
23539W        W40387   0.385   4.476  12.944 -0.0001  0.0833 -0.2897
23540W        W40388   0.451  11.842   1.010  0.2130  0.0800 -0.1389
23541W        W40389   8.709  16.811  13.011 -0.0013  0.1677  0.4628
23542W        W40390   6.199  17.790   1.367 -0.0122  0.0123 -0.0742
23543W        W40391   4.286   7.528   1.567  0.0840 -0.1524 -0.1419
23544W        W40392   8.426  15.569  11.810 -0.0005  0.0436  0.0344
23545W        W40393  14.234   8.778   4.682  0.2136 -0.0693  0.0868
23546W        W40394   4.595  17.344   0.309  0.2865  0.0974  0.4370
23547W        W40395   2.172   6.598   3.499  0.0722 -0.0764 -0.0465
23548W        W40396   7.798   2.979  16.029  0.2354  0.0530  0.1645
23549W        W40397   6.926  14.323  16.224 -0.2599  0.0704  0.0577
23550W        W40398   9.953   3.093   2.997  0.1806  0.0546  0.1144
23551W        W40399   6.367  10.896   4.750  0.2237 -0.1064  0.2626
23552W        W40400  14.738   8.460   1.805 -0.0604 -0.0009 -0.0831
23553W        W40401   3.660   3.959  14.773 -0.0865  0.2085  0.0939
23554W        W40402  12.705   8.025  11.080 -0.1349  0.0068  0.1106
23555W        W40403  16.398   7.481  15.043  0.0297 -0.1416 -0.3030
23556W        W40404   1.365   1.263  16.151  0.3696  0.1282 -0.0080
23557W        W40405  11.686  11.126  16.176  0.0889  0.1580  0.2332
23558W        W40406   6.592   9.822  11.793  0.1762  0.2649  0.2217
23559W        W40407   0.807  17.431  12.178  0.2242  0.0065  0.2011
23560W        W40408  11.533   3.155   5.522  0.0617 -0.0491 -0.2445
23561W        W40409  14.538   8.477  15.038 -0.0076 -0.2244  0.0956
23562W        W40410  16.109   6.029  12.308  0.1844  0.0915  0.0754
23563W        W40411  16.782   8.834   0.572  0.3245  0.3487 -0.1950
23564W        W40412   6.910  17.797   4.399  0.2143  0.0258 -0.1051
23565W        W40413   2.280   3.269  14.801 -0.1254  0.1325  0.0361
23566W        W40414   9.036  15.724  13.201 -0.3371  0.2700  0.2162
23567W        W40415  12.606   3.884   0.627  0.1371 -0.0026  0.1396
23568W        W40416  10.543   7.749  16.018  0.2183  0.0079 -0.2335
23569W        W40417  15.026   6.112   0.173 -0.1533  0.0300  0.2960
23570W        W40418  15.027  16.698   1.170 -0.2411 -0.0283  0.0920
23571W        W40419  16.167  10.938   3.982 -0.1936 -0.0964 -0.2221
23572W        W40420  17.385  16.130   2.925  0.2184  0.0981 -0.0710
23573W        W40421   7.404   9.572  15.276 -0.2443 -0.1921  0.0143
23574W        W40422  11.066   6.832   5.903 -0.0809  0.0602  0.0175
23575W        W40423  15.246   0.228  14.096  0.0771 -0.0131 -0.0374
23576W        W40424   3.755  12.081   4.124 -0.0459 -0.2004  0.4438
23577W        W40425   2.767   4.153  14.753  0.0919  0.2092  0.4824
23578W        W40426   5.727   0.766  15.253  0.3936 -0.1165 -0.1560
23579W        W40427  10.307   0.343   3.185  0.0884  0.1281 -0.0026
23580W        W40428   4.059   1.509  15.652 -0.2171 -0.3036 -0.0614
23581W        W40429  11.851   2.845   0.778 -0.0629 -0.2248 -0.1456
23582W        W40430  15.878   0.887   4.759 -0.1529  0.2793  0.1410
23583W        W40431   5.280   2.339   1.036 -0.2097  0.1915  0.1228
23584W        W40432  10.909   6.314   1.727 -0.1917  0.0132 -0.0266
23585W        W40433   3.407  11.500  13.774 -0.0958  0.0855  0.1564
23586W        W40434   5.689   5.689   3.726 -0.0063 -0.2640  0.1371
23587W        W40435  12.399  16.470   3.999  0.2660  0.0907 -0.0933
23588W        W40436  13.664   9.453   0.194  0.0221  0.4018  0.1193
23589W        W40437  10.123  12.514  12.730 -0.3627 -0.0492 -0.0043
23590W        W40438  15.237   5.128   3.782 -0.1253 -0.1066 -0.0105
23591W        W40439  12.828  10.605   4.005  0.0486  0.2288  0.0605
23592W        W40440   6.022  16.618  13.150 -0.0843  0.1350 -0.3467
23593W        W40441  16.025   1.661   0.718  0.0797 -0.1459  0.1560
23594W        W40442   5.792  12.338  13.872  0.0731  0.3742  0.1155
23595W        W40443   6.341  15.096  12.402  0.0082 -0.0347  0.1651
23596W        W40444  14.137  10.174  14.742  0.4557  0.2055 -0.0339
23597W        W40445   1.268   1.656   1.952  0.0379 -0.0038 -0.0105
23598W        W40446  14.500  14.467  12.010 -0.3381  0.0516  0.0041
23599W        W40447   8.952   4.426   0.637 -0.1083  0.2514  0.4644
23600W        W40448   6.954   7.110  14.615  0.1169  0.0095 -0.3027
23601W        W40449  12.824   9.541  16.430 -0.0304 -0.1326  0.0545
23602W        W40450  10.251   6.458   1.282 -0.1199 -0.2867  0.0059
23603W        W40451   6.521  16.557   5.288  0.2360 -0.1093 -0.2462
23604W        W40452  14.969   0.271   2.594 -0.2871 -0.2796 -0.0879
23605W        W40453  10.932   5.639  15.110 -0.0571  0.2771  0.3511
23606W        W40454   0.278  17.310  11.918  0.0169  0.2687 -0.1535
23607W        W40455  12.738   4.934  14.866  0.1343  0.0290 -0.0941
23608W        W40456  17.484   0.890  13.940 -0.1976  0.2132  0.2846
23609W        W40457  13.646  12.741  11.865 -0.1206  0.0737  0.1674
23610W        W40458   6.972   2.014  11.649  0.2537 -0.1951  0.0332
23611W        W40459  10.408   2.455  14.540  0.0248  0.0419  0.0763
23612W        W40460   0.240   3.406   2.709 -0.0656 -0.1093  0.1232
23613W        W40461  13.531   8.236  10.391 -0.1935 -0.0110  0.5234
23614W        W40462  12.070   5.741   4.669  0.0597  0.2179 -0.1552
23615W        W40463   6.143   8.801  11.727 -0.0936 -0.0905 -0.0450
23616W        W40464   1.258   9.646  14.384  0.4452 -0.2483 -0.0271
23617W        W40465  15.288  16.622   0.357 -0.0631  0.0360  0.3067
23618W        W40466   4.048   2.845  12.745 -0.0328  0.1142 -0.1148
23619W        W40467  13.047   1.581   1.337 -0.1798  0.1418 -0.1405
23620W        W40468   8.810   2.988   4.125  0.0977 -0.2231 -0.1130
23621W        W40469  13.361   2.825   1.841  0.0225 -0.4486 -0.1822
23622W        W40470   3.427   8.674  11.950  0.0949 -0.0354 -0.1297
23623W        W40471   4.615  13.094  12.439 -0.4179 -0.0014  0.0383
23624W        W40472   6.821  14.306  14.793 -0.1082 -0.0003  0.0235
23625W        W40473   4.224   8.932  15.584  0.0569 -0.0755  0.1195
23626W        W40474   7.124  17.232   0.452 -0.0732 -0.2399 -0.2423
23627W        W40475   5.874   8.396   4.855 -0.0087 -0.0695 -0.1199
23628W        W40476  10.000   7.097   3.486  0.0735  0.1468 -0.0520
23629W        W40477   6.772   5.466   4.863  0.3822  0.0984 -0.2683
23630W        W40478  12.888   1.142  11.859  0.2916 -0.0743  0.1506
23631W        W40479  15.332   1.724  14.723 -0.3573  0.4834 -0.0296
23632W        W40480   5.803   0.398  14.528  0.1316  0.0235 -0.0504
23633W        W40481   2.815  11.310  12.372 -0.1872 -0.1381  0.2493
23634W        W40482   7.557   2.194  12.942 -0.0022  0.0490  0.0797
23635W        W40483   5.882   8.758  12.955 -0.2583  0.0663  0.0824
23636W        W40484  15.844   3.105   0.543  0.1615 -0.2298 -0.3422
23637W        W40485  15.839  16.141   2.092  0.0802 -0.0103 -0.0274
23638W        W40486   4.865   7.233  16.397 -0.0132 -0.0591 -0.0709
23639W        W40487  15.484   3.489   3.526  0.1075  0.0069  0.1382
23640W        W40488  10.891  14.472   1.153  0.1728  0.0552  0.2939
23641W        W40489  14.564  10.404  13.365 -0.0917  0.0437 -0.0299
23642W        W40490  12.325  16.862   1.645  0.2033  0.0575  0.0878
23643W        W40491  11.493   4.334  14.517  0.1495  0.1011  0.0606
23644W        W40492   2.546   7.630   1.234  0.2057  0.0747  0.0034
23645W        W40493  14.698  15.123  16.136  0.0813 -0.1216 -0.1887
23646W        W40494   8.146   8.224   0.127  0.0501 -0.1341  0.2979
23647W        W40495  10.535   0.805   0.551 -0.1131 -0.3207  0.4597
23648W        W40496   4.274   5.644   2.403 -0.0258  0.2131  0.3093
23649W        W40497  14.066  14.686   0.215 -0.1476  0.0369 -0.2736
23650W        W40498  17.799  11.398   2.166 -0.1193 -0.0691 -0.3254
23651W        W40499   2.341  17.819  13.685 -0.0855 -0.1176 -0.1324
23652W        W40500  13.142  17.309   4.330  0.1229 -0.2032 -0.2232
23653W        W40501  11.619  13.485   4.074 -0.2033  0.0185 -0.1609
23654W        W40502   9.440   6.002  15.553  0.0081 -0.2807  0.0644
23655W        W40503  12.352  16.198   2.185  0.0414 -0.3141  0.0713
23656W        W40504  10.450   3.032  10.941 -0.2457 -0.3377 -0.1064
23657W        W40505   8.129   0.775   2.468 -0.1374  0.1244  0.1818
23658W        W40506  10.847   7.961  16.323  0.1343 -0.2814  0.2181
23659W        W40507   6.090  14.522   5.765  0.0606  0.1841  0.0609
23660W        W40508  17.559   4.970  12.588  0.1998 -0.3396 -0.3050
23661W        W40509  14.284   6.008  15.891  0.0854 -0.0195  0.2239
23662W        W40510  13.135   6.827  14.768  0.0548  0.0503 -0.1525
23663W        W40511   9.006   9.383   0.070  0.1227 -0.1008  0.1998
23664W        W40512  13.298  10.229  15.799 -0.0422  0.4125 -0.2476
23665W        W40513   8.061  14.307   2.050 -0.0808  0.2512  0.2476
23666W        W40514  12.842  15.151   0.345  0.0281 -0.1224 -0.0020
23667W        W40515  15.327   3.349   1.715  0.1780  0.2536 -0.1646
23668W        W40516  10.904  13.140   3.601 -0.1256  0.0599 -0.0710
23669W        W40517   3.273   7.370  10.268 -0.0317 -0.2268  0.1362
23670W        W40518   6.408   1.460  14.094 -0.0655 -0.3089 -0.3344
23671W        W40519  16.322   4.094  12.337 -0.3827 -0.1407 -0.1325
23672W        W40520   8.568   7.765  13.375 -0.3594 -0.1822 -0.2603
23673W        W40521  17.592   7.530  11.164  0.0761  0.0010 -0.0237
23674W        W40522   8.330  10.909   5.030 -0.1928 -0.0315 -0.3588
23675W        W40523   7.494   0.403  14.971 -0.0895 -0.2080  0.0088
23676W        W40524  14.396   9.266   3.726  0.1625 -0.1305  0.0837
23677W        W40525  13.849   8.994  12.049 -0.1504 -0.1462  0.0553
23678W        W40526  17.682  17.312   2.384 -0.0215 -0.0980  0.2810
23679W        W40527   2.087   8.428   4.791 -0.0615 -0.0889 -0.1961
23680W        W40528   4.643   1.788  14.967 -0.2336  0.0103 -0.1147
23681W        W40529   8.641  15.821  12.933 -0.0528  0.0419 -0.0412
23682W        W40530   0.688  11.714  15.173  0.0779 -0.0368 -0.0487
23683W        W40531   6.861  11.958  15.925 -0.1404 -0.0010 -0.1495
23684W        W40532   0.888   8.716  13.941  0.0809 -0.1661  0.2212
23685W        W40533   1.981  12.907   1.927  0.2931 -0.4081  0.0831
23686W        W40534  13.445  10.767  15.836  0.3063  0.1849  0.0930
23687W        W40535   9.374   7.554  11.834  0.3413 -0.1442  0.1530
23688W        W40536  13.266  11.776   1.285  0.0161 -0.1341 -0.0058
23689W        W40537  16.287   9.575   4.593  0.1770 -0.0507 -0.0400
23690W        W40538   9.800   1.371   1.061  0.2219 -0.3775 -0.0760
23691W        W40539   4.630   4.508  13.870  0.0469 -0.1530 -0.0918
23692W        W40540  13.767  10.305  11.282 -0.2603  0.1232  0.1125
23693W        W40541   1.641  17.627  15.172 -0.1366 -0.0036  0.1210
23694W        W40542  17.047   1.501   2.219  0.0026  0.0000 -0.0251
23695W        W40543  17.773   5.819  12.790 -0.1854 -0.1116  0.0387
23696W        W40544   4.445   9.374   1.292 -0.0757 -0.0126 -0.0586
23697W        W40545   9.157   1.560  15.565  0.2082  0.0616  0.1274
23698W        W40546   5.705  13.626   4.132  0.1237 -0.0780  0.0983
23699W        W40547   6.052  15.166  12.802 -0.3612  0.1908 -0.2203
23700W        W40548  12.511   5.834   0.796 -0.2139 -0.0494 -0.3493
23701W        W40549  13.495  16.799  11.121 -0.0483 -0.0846  0.0447
23702W        W40550   6.466   9.576   1.034 -0.0165  0.1235  0.0241
23703W        W40551  11.338   7.895  13.992  0.1572 -0.0639 -0.0185
23704W        W40552   3.924   2.103   1.909 -0.0587 -0.0663  0.2163
23705W        W40553   7.837   3.302  12.443  0.2135 -0.2579  0.1313
23706W        W40554  11.427   6.095  11.165  0.1989  0.2342 -0.2806
23707W        W40555  11.638  15.412   4.097 -0.1100 -0.1226  0.1496
23708W        W40556  14.855   4.489  15.813 -0.1294 -0.1226  0.2481
23709W        W40557   9.519   7.038  14.381  0.1168  0.0462 -0.1531
23710W        W40558  13.369   0.725  14.151 -0.2432  0.0418  0.1051
23711W        W40559  14.452   3.713  12.313  0.0612 -0.2546 -0.1283
23712W        W40560   7.242  12.072   3.722 -0.1016 -0.0173 -0.1342
23713W        W40561  11.519  13.659   0.732  0.0113  0.0664 -0.3190
23714W        W40562   6.049   0.802   0.891  0.2036 -0.0147  0.1008
23715W        W40563  11.747   6.288  12.211 -0.0238  0.2250  0.0958
23716W        W40564   4.582  14.176   0.157  0.1258 -0.2414  0.1677
23717W        W40565  13.385  16.892  15.043  0.1590 -0.0282 -0.2151
23718W        W40566   4.604  17.851   0.331  0.0793  0.1178 -0.0079
23719W        W40567   2.467  15.157   1.278  0.0278  0.1112  0.2514
23720W        W40568   9.447  12.933  15.274  0.0668  0.2404 -0.1687
23721W        W40569  13.528  10.546  15.003 -0.1620 -0.1027  0.1049
23722W        W40570  17.633  10.264  15.338 -0.3386  0.1312 -0.0510
23723W        W40571  15.108   3.840  16.332 -0.0854  0.1952 -0.2890
23724W        W40572  17.442  16.383   2.028  0.2995  0.2473 -0.2487
23725W        W40573   5.433   8.532   1.781 -0.0742 -0.1662  0.0261
23726W        W40574  16.210  14.732  16.376  0.0817  0.2969  0.0697
23727W        W40575   1.503  11.413   5.107  0.0319 -0.0540  0.0579
23728W        W40576   0.692   3.025   4.738  0.1797  0.1659 -0.1453
23729W        W40577  12.452   9.675   2.020 -0.2484  0.2348  0.1407
23730W        W40578   8.232  13.462   1.946  0.2624 -0.0088 -0.0662
23731W        W40579   0.675  12.243   1.273  0.3653 -0.0529 -0.0800
23732W        W40580   3.551  17.408   4.945  0.0178 -0.2269  0.0348
23733W        W40581   3.999   9.514  10.840 -0.0466 -0.0900 -0.1705
23734W        W40582  15.598  12.541   0.736  0.2790  0.2489  0.0842
23735W        W40583  15.764   7.681  11.421 -0.3229 -0.2929  0.2652
23736W        W40584   0.723  16.416  12.394  0.3071  0.2273 -0.0196
23737W        W40585  16.626   6.911  16.372 -0.2866 -0.1802  0.1424
23738W        W40586  16.146  14.186  11.604 -0.1351  0.0260 -0.0111
23739W        W40587   2.723  16.085  13.949 -0.0081 -0.2343  0.1752
23740W        W40588   2.787  17.786  13.397 -0.0451 -0.3071  0.0737
23741W        W40589  17.030  14.058  12.213  0.0859 -0.3101  0.0367
23742W        W40590   6.716   4.710   4.330 -0.1210  0.1061 -0.0821
23743W        W40591  13.899   3.797  11.613  0.0006 -0.1418  0.0037
23744W        W40592   2.804   8.821   3.616  0.0119 -0.0645  0.2293
23745W        W40593   2.010  14.779   3.602  0.1641 -0.0838  0.2676
23746W        W40594   8.645   5.619   0.083 -0.1137  0.1322  0.1692
23747W        W40595   9.752   3.283   4.309 -0.2055 -0.0278  0.0487
23748W        W40596   6.216   2.307   2.576 -0.3337  0.1909 -0.0825
23749W        W40597   2.308   6.636  12.169  0.1169  0.2112 -0.0526
23750W        W40598   7.369  10.926   4.865  0.2647 -0.0458 -0.4516
23751W        W40599  10.139   6.629   3.550  0.3740 -0.0139 -0.2058
23752W        W40600   7.173   6.008   5.040  0.0512  0.1422  0.0930
23753W        W40601  12.305   0.119   1.828  0.1092 -0.2338 -0.0309
23754W        W40602   2.120   8.104   0.257 -0.0663 -0.0790  0.3429
23755W        W40603  15.917  15.441  15.813 -0.0404 -0.0294  0.0798
23756W        W40604  16.016   6.571   4.443 -0.0653 -0.0092  0.1388
23757W        W40605   6.771   8.340  15.397  0.0993  0.2593  0.0821
23758W        W40606  11.957  15.983   3.349  0.0959 -0.2615  0.0076
23759W        W40607   6.066  13.673  11.872 -0.2817 -0.0603  0.2468
23760W        W40608   3.928   5.729   0.636 -0.1444  0.1532  0.1867
23761W        W40609   9.224  12.177  14.638  0.2419  0.3309 -0.4706
23762W        W40610  17.886  10.101  14.819  0.0128 -0.2336  0.1168
23763W        W40611   7.144  16.152   0.741 -0.2553 -0.1804  0.0587
23764W        W40612  14.191   8.837  11.410  0.0470  0.1616 -0.2005
23765W        W40613  16.674   9.820  15.374 -0.1009 -0.1724 -0.1083
23766W        W40614  11.188  11.382   1.049 -0.1126  0.0913  0.0834
23767W        W40615   8.183   0.442  13.904 -0.2242  0.1046  0.0411
23768W        W40616   0.606   3.312  11.295 -0.0807  0.2644  0.3295
23769W        W40617   4.492  15.410  11.906 -0.0199  0.0582  0.0574
23770W        W40618  12.967   8.482   0.904 -0.0713  0.0602 -0.2811
23771W        W40619   6.536  14.727   1.011 -0.1837  0.1713 -0.0309
23772W        W40620   2.420   6.395   2.124  0.0002 -0.2158 -0.0431
23773W        W40621  17.615  13.665  15.148 -0.0266  0.2599 -0.1414
23774W        W40622   0.928  11.044   1.273 -0.0750  0.2985  0.0282
23775W        W40623  12.030  14.745  11.680  0.1984  0.0963 -0.2027
23776W        W40624  11.158   4.117   5.561  0.1453  0.0387  0.1599
23777W        W40625   4.700  15.049   3.553 -0.1349 -0.1375 -0.0151
23778W        W40626   6.207   5.115  15.349 -0.0219 -0.0630  0.1531
23779W        W40627  13.585  13.418  15.391 -0.0119  0.1482 -0.0595
23780W        W40628   4.758   7.003  15.876 -0.1542 -0.0958 -0.2199
23781W        W40629   7.945   7.033  16.095  0.0051  0.0427  0.2603
23782W        W40630   6.884  10.191  13.468 -0.3160 -0.1777  0.1481
23783W        W40631   2.436   8.719  13.296 -0.4210 -0.3537 -0.3707
23784W        W40632  13.736  15.418   1.308  0.0531 -0.1979  0.2531
23785W        W40633  15.120  17.570  15.683 -0.4320 -0.0297  0.1147
23786W        W40634  15.906   9.294   2.180  0.0409 -0.1303 -0.0475
23787W        W40635   1.289  10.485  13.902 -0.2769  0.2693 -0.0368
23788W        W40636  13.681   2.022   2.583  0.1656 -0.3258  0.0214
23789W        W40637   5.883   6.004   2.309  0.1621 -0.0497 -0.0959
23790W        W40638  15.599  16.666  11.570 -0.0844  0.0132  0.0603
23791W        W40639  16.313   9.812   0.360 -0.0788  0.1081  0.1689
23792W        W40640  13.898  13.868   1.889 -0.0374  0.0439  0.1947
23793W        W40641  14.553   2.593  15.205  0.0440  0.3118 -0.1241
23794W        W40642   4.034  14.988   4.443  0.2611 -0.3365  0.2369
23795W        W40643   2.071   9.132  15.372 -0.0786  0.4974 -0.0140
23796W        W40644   4.673   3.474  12.228 -0.0637  0.1827 -0.3357
23797W        W40645   2.079  16.649   4.298 -0.0818  0.1734 -0.0113
23798W        W40646   5.605  15.466   2.644  0.0872  0.0908 -0.2041
23799W        W40647   6.990   2.920  13.880 -0.0304 -0.0229  0.0489
23800W        W40648  13.972   9.398   3.570 -0.1003  0.0316 -0.3685
23801W        W40649   1.622  10.647   4.690  0.0790 -0.3018 -0.1877
23802W        W40650   3.135   4.341   3.128  0.2109  0.0578  0.1651
23803W        W40651   6.647  11.872  12.795 -0.4116  0.1578  0.0113
23804W        W40652   2.684   9.840  16.455 -0.0996  0.2114  0.1682
23805W        W40653   1.924   6.661   5.174  0.1908 -0.1160 -0.0137
23806W        W40654   8.625   2.886  12.321 -0.0975 -0.2330 -0.1158
23807W        W40655   2.538   4.985  12.558 -0.1978  0.1325 -0.0005
23808W        W40656   7.792   1.772  15.279 -0.2443  0.2437  0.2787
23809W        W40657   6.290   4.233  12.704 -0.0946  0.1752 -0.0900
23810W        W40658   4.758   2.838   5.600 -0.0760  0.2419 -0.2560
23811W        W40659   2.742  17.380  11.553 -0.0246 -0.1766 -0.0320
23812W        W40660   5.849  12.973   2.500  0.3122 -0.1871  0.3099
23813W        W40661  11.205   0.782  15.909  0.5203  0.0918  0.0318
23814W        W40662  16.404  14.609   3.451  0.0251 -0.4883  0.1631
23815W        W40663  13.912   8.968  12.628  0.1785 -0.0411  0.0028
23816W        W40664   5.235   6.694   2.345 -0.1283  0.0821  0.3456
23817W        W40665   9.154  14.141  16.259 -0.0047  0.0807 -0.1634
23818W        W40666   0.552   2.348  12.602  0.4148 -0.0918  0.1593
23819W        W40667   2.349   8.442   5.601 -0.4409  0.5277  0.0954
23820W        W40668  14.259  15.414  12.600  0.0726  0.3135  0.3550
23821W        W40669   2.077  13.634   4.147 -0.0750  0.1884 -0.1542
23822W        W40670  11.777  11.841  11.624  0.1321  0.0509 -0.0541
23823W        W40671   8.271   7.025  14.596  0.3073  0.1128  0.0462
23824W        W40672   6.254  16.052  15.095 -0.0245 -0.0477 -0.2324
23825W        W40673  14.872   1.791   2.270  0.3840  0.0021 -0.0901
23826W        W40674  11.620  12.348  16.393  0.0515  0.2208  0.1287
23827W        W40675   3.664   8.978  14.277 -0.0584 -0.0244 -0.1431
23828W        W40676  15.638   5.491   3.776 -0.0138  0.2948 -0.1024
23829W        W40677   0.375  12.991  10.871 -0.3623 -0.0716  0.1192
23830W        W40678  12.396   3.980   3.043 -0.3557 -0.0288 -0.0702
23831W        W40679  16.872  15.538   4.629  0.1481 -0.0364 -0.2861
23832W        W40680   5.307  12.241   1.016  0.1627  0.0161  0.1673
23833W        W40681   4.352   4.464   5.638  0.0598 -0.0899 -0.0262
23834W        W40682  10.153   6.952   1.679  0.1150  0.2636  0.2616
23835W        W40683   2.260  15.716   0.187  0.2424  0.2744  0.1059
23836W        W40684   1.695  17.505  11.192  0.1555 -0.0662  0.3211
23837W        W40685   8.742   8.754   3.083  0.1777 -0.0094 -0.0204
23838W        W40686  15.071   1.783   5.081 -0.2094 -0.2099  0.0965
23839W        W40687   1.814  16.642   2.860  0.3951  0.1393  0.1542
23840W        W40688  14.895  17.606   1.025  0.0067  0.1037  0.1898
23841W        W40689   9.025   5.786   3.061  0.3141  0.2098 -0.1956
23842W        W40690   8.520  13.584  11.984  0.3366 -0.0778  0.1791
23843W        W40691   6.806   2.131   3.794  0.1159  0.1171 -0.2466
23844W        W40692  15.048   9.372  12.634 -0.0958  0.0291 -0.1449
23845W        W40693  11.488  14.197   0.365  0.0498  0.2933 -0.3289
23846W        W40694   7.256   8.333  10.382 -0.0559  0.2548  0.2566
23847W        W40695  10.981   3.576  15.934 -0.1145 -0.1216  0.0554
23848W        W40696   1.016   4.109  16.441 -0.1840  0.3340  0.1120
23849W        W40697   3.757  14.875   2.491  0.0702 -0.1097 -0.1208
23850W        W40698   2.055   6.923  14.570 -0.1909  0.0552 -0.0589
23851W        W40699  11.824  14.054   0.731 -0.0471 -0.0740 -0.0271
23852W        W40700   8.280  12.014  15.704 -0.1350  0.1716 -0.0092
23853W        W40701  13.140   4.320  13.458  0.0333  0.1060  0.4578
23854W        W40702  13.310   4.467  11.663 -0.0793  0.0704 -0.0120
23855W        W40703   1.846  11.533   0.501 -0.1589  0.1169 -0.1006
23856W        W40704   0.773  16.002   4.280 -0.3853 -0.1158 -0.2395
23857W        W40705  11.704   3.411   3.524 -0.0345  0.2475  0.0101
23858W        W40706  14.643  11.255  16.278 -0.1363 -0.1510 -0.1489
23859W        W40707   7.740  13.136   2.206 -0.0064  0.0498  0.0480
23860W        W40708   7.320  14.270  11.370 -0.4424  0.2668 -0.0798
23861W        W40709  15.190  14.453  12.819 -0.0334  0.1729  0.1132
23862W        W40710  16.040   4.822  16.125  0.1959 -0.0702 -0.0761
23863W        W40711   6.821   9.749   3.983 -0.0373 -0.0873 -0.1460
23864W        W40712   9.565  11.503  16.250  0.3088 -0.1437 -0.1952
23865W        W40713   5.223  13.470  16.312 -0.4786  0.1813 -0.0721
23866W        W40714   7.784  14.058   6.231 -0.0482  0.1360 -0.1813
23867W        W40715  11.569  11.630   2.935 -0.0080  0.1857  0.0952
23868W        W40716  17.745   6.094   2.008 -0.0975  0.2163 -0.0832
23869W        W40717   4.435   4.905  12.102  0.1355 -0.2389  0.0862
23870W        W40718   7.831   4.580  15.646 -0.1542  0.0997  0.2325
23871W        W40719  10.714   8.911  15.019  0.1411  0.1396  0.0120
23872W        W40720   6.590  10.470   3.965  0.1785 -0.1535  0.1524
23873W        W40721  13.179  12.106  12.481 -0.2654  0.1862 -0.0228
23874W        W40722   1.211  13.740  14.252  0.0765  0.1825  0.0939
23875W        W40723  15.156  11.956  16.398  0.2642  0.0514  0.0248
23876W        W40724   8.348  16.365   0.793 -0.2146 -0.0569 -0.2248
23877W        W40725   3.506  13.894  13.893  0.1034 -0.0581  0.1887
23878W        W40726  13.100   0.589   1.748 -0.0689  0.1632 -0.1677
23879W        W40727   1.289   0.666   0.011  0.4922  0.2808 -0.1803
23880W        W40728  13.935  12.028   4.779  0.0125  0.2358 -0.1536
23881W        W40729   5.962   7.548   4.458  0.0650 -0.2582 -0.0509
23882W        W40730   1.257   6.822   3.870 -0.1511  0.2606  0.0600
23883W        W40731   7.735   4.488   1.280 -0.1883 -0.1900  0.0336
23884W        W40732   6.286  12.693   3.735  0.0234 -0.2527 -0.3077
23885W        W40733  17.789   2.664   2.000 -0.0667 -0.0310 -0.1453
23886W        W40734   3.763   3.049   5.327 -0.0890  0.1008 -0.0795
23887W        W40735   1.362   5.901   0.200  0.1094 -0.2408 -0.1324
23888W        W40736  16.970   5.866   1.158 -0.0641  0.1470 -0.1726
23889W        W40737  11.710   0.730   1.240  0.0929  0.3103  0.1662
23890W        W40738  14.444  10.649  15.534  0.0191 -0.2165  0.2059
23891W        W40739  11.219  10.598  14.324 -0.0897  0.0393 -0.0822
23892W        W40740   4.870  11.978  13.001  0.0706  0.0809 -0.0010
23893W        W40741  12.991   2.869  10.819  0.1281  0.0305 -0.0069
23894W        W40742  11.397  14.248   3.461  0.0584  0.0837  0.0969
23895W        W40743  15.436   0.883  15.822 -0.1371 -0.1501  0.2089
23896W        W40744   0.701   4.368  14.425 -0.1944 -0.1360  0.1673
23897W        W40745  15.130   8.843   3.213 -0.1350  0.0082  0.4675
23898W        W40746  17.728   4.010   4.338 -0.0444  0.1493 -0.2709
23899W        W40747  11.088  13.216  12.229  0.1710 -0.0161  0.2408
23900W        W40748  15.520  14.828  12.679  0.2281 -0.0603  0.1007
23901W        W40749  13.478   2.235   5.295  0.2282 -0.1605 -0.1737
23902W        W40750   1.955   9.886  13.416  0.2415  0.2082 -0.0331
23903W        W40751  10.203   2.102   4.777 -0.0743  0.0812 -0.1831
23904W        W40752  15.853   3.723  15.125  0.2108 -0.2521  0.0383
23905W        W40753  14.797   5.319   0.412 -0.0001  0.2402  0.0977
23906W        W40754   7.367  10.647   1.867 -0.0567  0.0835  0.2685
23907W        W40755   2.342  11.040   5.370  0.0205  0.2293  0.2790
23908W        W40756  14.748   3.735  12.721 -0.0070 -0.3301  0.3261
23909W        W40757  10.491  12.719   5.044 -0.3122  0.0824  0.1822
23910W        W40758  10.046   1.823   2.336 -0.0693 -0.1891  0.2198
23911W        W40759   6.178  10.876   4.083 -0.0397 -0.0201  0.2136
23912W        W40760   0.305  14.604   0.814  0.0063  0.0430  0.0547
23913W        W40761   4.355  15.571  14.882  0.1057 -0.1014 -0.0487
23914W        W40762  11.038   0.971  11.549  0.0876 -0.0012 -0.0940
23915W        W40763   7.918   7.573  16.213  0.1089 -0.0185  0.1787
23916W        W40764  17.825   9.656  15.782  0.1201  0.0716 -0.1524
23917W        W40765   8.090  13.192  12.739 -0.0226  0.1514 -0.1419
23918W        W40766   1.272   7.587   0.530  0.1245  0.2477  0.1653
23919W        W40767  14.797  14.459  14.399  0.2453 -0.0779 -0.1692
23920W        W40768   1.337   1.649   4.957 -0.2877  0.2238  0.0569
23921W        W40769   2.148   9.600   5.599 -0.0876  0.2716  0.2094
23922W        W40770   1.238  10.088   2.385 -0.2430 -0.1575  0.0593
23923W        W40771  17.750  13.149  10.645  0.0481 -0.1934  0.3708
23924W        W40772   8.766   9.430   4.518  0.0652  0.2159 -0.2623
23925W        W40773   1.127   9.376  15.308  0.1083 -0.3772 -0.1505
23926W        W40774   7.463   1.246   1.430  0.1958 -0.2828  0.2358
23927W        W40775   3.823   3.727   0.253  0.3814 -0.2603  0.1167
23928W        W40776  11.341   8.093   3.742 -0.2594  0.1935  0.2617
23929W        W40777  16.272   8.789  14.791  0.0859  0.1894 -0.2429
23930W        W40778   4.203   9.583  12.554  0.1658 -0.0759 -0.0187
23931W        W40779  14.493   3.683  16.325 -0.1176 -0.1306 -0.0085
23932W        W40780  10.511   8.006   2.396 -0.2102 -0.3045 -0.0630
23933W        W40781   5.828   7.235  13.378  0.1509  0.0461  0.2271
23934W        W40782   2.904   8.105   0.719  0.0850  0.1867 -0.2803
23935W        W40783  12.491   2.648  14.149  0.1437  0.2233  0.2823
23936W        W40784  17.381  12.928  10.933  0.0850  0.1580  0.0435
23937W        W40785   4.921  15.277   0.436  0.2401  0.1163  0.0938
23938W        W40786   4.210  12.545  13.121  0.2687 -0.0909 -0.4554
23939W        W40787   6.668   4.718  15.374 -0.0310  0.0924  0.0123
23940W        W40788  13.721  12.257   1.528  0.0855  0.2088  0.3156
23941W        W40789   4.258  17.384   4.178  0.2128  0.1833 -0.0940
23942W        W40790   7.235   3.711   1.139  0.1000 -0.0437  0.2105
23943W        W40791   9.334  13.030   1.415 -0.0833  0.2157 -0.0607
23944W        W40792  11.902  17.513  14.382  0.1863 -0.0116 -0.0522
23945W        W40793   8.136  15.002  13.725 -0.3621  0.1467  0.2589
23946W        W40794   4.978  14.749  13.938 -0.0520 -0.1158 -0.0455
23947W        W40795   5.888   7.964   3.859 -0.0759 -0.1078  0.1995
23948W        W40796  14.692   0.526  15.491 -0.2196  0.3260 -0.0098
23949W        W40797  12.916  11.577  13.543 -0.0779 -0.2370 -0.0435
23950W        W40798   9.185  11.140  16.358 -0.4481 -0.0500  0.0868
23951W        W40799  11.052  16.308  15.374 -0.1550 -0.0113  0.2423
23952W        W40800  11.952  12.583   1.220  0.0609 -0.3117  0.1277
23953W        W40801   2.567  14.399   0.258 -0.2402  0.1767  0.0328
23954W        W40802   5.659   9.317   3.300 -0.0555 -0.1802  0.2662
23955W        W40803   5.716   6.574   2.276 -0.1310 -0.0890  0.0121
23956W        W40804  11.178  14.234  14.812 -0.0226  0.2019 -0.1260
23957W        W40805  13.709  10.386  15.479 -0.2282 -0.1028  0.2060
23958W        W40806  17.810   6.878   4.290  0.1382  0.0833  0.1450
23959W        W40807   9.412   8.473  13.404 -0.0451  0.2444 -0.2683
23960W        W40808  16.724   4.560   2.907  0.2308  0.0899  0.3146
23961W        W40809  11.468   5.246   5.094 -0.0532 -0.1555  0.2280
23962W        W40810  14.021   9.623   1.808 -0.2939 -0.1859  0.2449
23963W        W40811   4.609   2.523   2.695 -0.2055  0.1467 -0.1185
23964W        W40812   5.393  10.672  11.952  0.2219  0.0505 -0.0573
23965W        W40813   6.768  11.082  11.615  0.0065 -0.0155 -0.0795
23966W        W40814  13.662   3.680   4.002 -0.2970  0.0152 -0.5078
23967W        W40815   4.679   6.674   0.817  0.2270  0.1877  0.1292
23968W        W40816  13.309   2.645   2.899 -0.0879 -0.1917 -0.2434
23969W        W40817  12.381   7.935   2.496 -0.0206  0.0370 -0.2324
23970W        W40818   2.774   6.660  11.303 -0.2726  0.1573 -0.1880
23971W        W40819   3.997  16.956   0.020 -0.1971  0.4161 -0.0950
23972W        W40820   0.061   0.583  15.735  0.1281  0.0118  0.0771
23973W        W40821  16.500  11.972  16.400 -0.2254  0.1236 -0.2285
23974W        W40822   7.836   7.606  12.786  0.0666  0.1096  0.2405
23975W        W40823  17.437  13.789   4.843 -0.2994 -0.1049  0.2414
23976W        W40824   1.901   1.998  12.443  0.1571  0.5416 -0.1843
23977W        W40825   2.194  16.708  16.208 -0.2077 -0.1986  0.3509
23978W        W40826  17.488   5.274  14.563  0.4237  0.1100  0.2807
23979W        W40827  11.276   9.556  12.577 -0.3102 -0.1780 -0.0798
23980W        W40828  15.676  11.230   1.595 -0.0040 -0.1694  0.1777
23981W        W40829   0.491  13.426   3.240 -0.2670 -0.1984  0.1301
23982W        W40830  14.008  17.580  13.087  0.0430 -0.1907 -0.0345
23983W        W40831  10.606  16.746  15.854  0.1491  0.0317  0.2256
23984W        W40832  14.398  16.646  14.100 -0.1679  0.0412  0.0236
23985W        W40833   4.448   7.779   4.923 -0.1771  0.1799  0.3756
23986W        W40834   1.853   5.793   2.914 -0.1887  0.3039  0.1884
23987W        W40835   8.371   8.933   0.937  0.2030  0.0653  0.0596
23988W        W40836  10.749  13.648   1.577  0.0844 -0.0203 -0.1720
23989W        W40837   3.738   8.497  13.374  0.3521  0.0957  0.0639
23990W        W40838   1.861   9.893   5.034  0.1100 -0.0140  0.3686
23991W        W40839   3.247   2.294  12.330 -0.3741  0.1908  0.0107
23992W        W40840   8.307   7.434   1.600  0.0235 -0.1616 -0.1519
23993W        W40841  11.166  15.741  14.620 -0.1481  0.0814  0.2297
23994W        W40842   4.723   9.999   5.117  0.1902 -0.1983  0.4820
23995W        W40843   8.952   8.223   5.229 -0.2139  0.1059 -0.0250
23996W        W40844  12.400  13.261   1.219 -0.2352 -0.1901 -0.0641
23997W        W40845   7.134   2.951   5.420 -0.2977  0.1053 -0.0351
23998W        W40846   0.758   4.410   2.029 -0.0098  0.2491 -0.0148
23999W        W40847   7.324  14.604  15.927  0.2040  0.0255  0.0650
24000W        W40848   6.157  11.929  14.336  0.0576  0.0421  0.3573
24001W        W40849   4.085   6.269   1.453 -0.0045 -0.1274  0.2720
24002W        W40850   3.115   8.696   2.553 -0.0862  0.1235 -0.1145
24003W        W40851   6.569  12.871  11.781 -0.0164 -0.1482  0.0765
24004W        W40852  11.465   8.314   5.122 -0.1647  0.0622  0.1770
24005W        W40853   0.020   4.289   5.073 -0.0254 -0.0452 -0.0623
24006W        W40854  11.111  14.190  11.373  0.4127  0.0824 -0.0705
24007W        W40855   0.626  13.020   2.420 -0.0694  0.0232 -0.1537
24008W        W40856   7.023   1.118   2.930 -0.1535  0.0987 -0.0487
24009W        W40857   9.086   8.101  11.217 -0.2263 -0.0122  0.2120
24010W        W40858  10.504  16.685   2.177  0.0248 -0.2698  0.0719
24011W        W40859   8.123  10.015   0.279 -0.0698  0.0285  0.0753
24012W        W40860   6.568   7.262  12.799 -0.1497  0.1745  0.2139
24013W        W40861  17.071  13.060   1.619 -0.0327 -0.0663  0.3179
24014W        W40862  16.593   2.227  12.803  0.3404  0.1802 -0.4905
24015W        W40863  10.164   2.907  12.377  0.0306 -0.0781  0.0529
24016W        W40864  11.837  10.950   3.955 -0.0838  0.2103  0.1247
24017W        W40865  11.182   6.015   4.052  0.1950  0.4045  0.0680
24018W        W40866   4.481  13.676   0.201  0.1433 -0.1073 -0.2083
24019W        W40867   1.360  15.451   4.025  0.1377  0.2096 -0.2295
24020W        W40868  17.453  15.030   0.613 -0.1338 -0.0635 -0.0161
24021W        W40869  14.942   8.392   1.342  0.1140 -0.2849  0.1056
24022W        W40870   5.332  16.298   4.339  0.1131  0.4631  0.2014
24023W        W40871   7.270  17.698   2.613  0.2899 -0.3065 -0.0101
24024W        W40872  13.804  15.385   1.923 -0.0262 -0.0297 -0.1425
24025W        W40873   5.434  16.795   5.007  0.0913 -0.3930 -0.1079
24026W        W40874  14.910   3.690   4.256  0.0382  0.1901  0.4311
24027W        W40875   7.922  15.183   3.993  0.2048  0.1100  0.1482
24028W        W40876  13.960  11.855  15.870  0.2550 -0.1997 -0.1138
24029W        W40877   1.651  14.081  12.609 -0.0416  0.0417  0.1035
24030W        W40878   1.415   9.418  14.760  0.3663  0.1123 -0.1715
24031W        W40879   7.188  11.016   1.396 -0.0745  0.2142 -0.2910
24032W        W40880  16.668   2.721  13.540 -0.0538  0.1745 -0.0535
24033W        W40881   1.642  14.536  12.272  0.2075  0.0282 -0.0425
24034W        W40882   9.580  16.317   4.494 -0.0623  0.0206 -0.0798
24035W        W40883  14.152   3.923   4.226  0.0399 -0.1349  0.1027
24036W        W40884   9.944   8.091  16.299  0.2571 -0.0417  0.1563
24037W        W40885   5.824   5.213   4.416 -0.2742  0.0068 -0.1130
24038W        W40886   7.594  13.615   0.632  0.0140 -0.0805  0.0413
24039W        W40887   0.624   4.144  12.179  0.1943  0.0439  0.2127
24040W        W40888  17.293  16.913  12.918 -0.1996 -0.0201 -0.0449
24041W        W40889  15.718  16.721   3.003  0.2138 -0.0850 -0.1534
24042W        W40890  12.629  12.483   5.007 -0.1908 -0.0346 -0.1221
24043W        W40891   0.935  11.905  13.787 -0.2004 -0.1342  0.2430
24044W        W40892  13.242   2.003   4.901  0.2565  0.5619  0.0201
24045W        W40893   5.267   5.120  12.110 -0.1870 -0.0939  0.0998
24046W        W40894   5.945   0.237   3.658  0.3273  0.1192 -0.1027
24047W        W40895   8.692  12.293  15.601 -0.1491 -0.2460 -0.3410
24048W        W40896   3.247  13.991   3.966 -0.0733 -0.3599  0.2853
24049W        W40897   9.084   4.893   1.049  0.0461  0.0031 -0.1026
24050W        W40898  10.703  17.469  14.040 -0.0407 -0.0672  0.1100
24051W        W40899   1.725  10.495   3.156 -0.0014  0.2452 -0.0239
24052W        W40900   5.217  16.409  13.212 -0.0059  0.0851 -0.1763
24053W        W40901  14.672   4.010  14.072 -0.1506  0.0240 -0.1501
24054W        W40902  14.142   3.326   1.274 -0.2301 -0.3458  0.3419
24055W        W40903  14.194   3.859   1.400 -0.0244 -0.2829 -0.0665
24056W        W40904  11.626  13.464  13.492  0.0211 -0.0740 -0.0303
24057W        W40905   8.317   2.040  15.120 -0.1369 -0.1752 -0.1464
24058W        W40906   2.557  13.267  15.622 -0.1209  0.0090  0.2281
24059W        W40907   5.741  10.207   2.094 -0.1448 -0.0791  0.3073
24060W        W40908   4.284   4.172   4.294 -0.0434 -0.0090  0.0452
24061W        W40909  17.861   8.350   4.953 -0.1861 -0.0013  0.1109
24062W        W40910  14.847  16.703  13.894  0.2033 -0.3388  0.3716
24063W        W40911  12.141   7.021  11.786  0.2190  0.1959 -0.1840
24064W        W40912   7.297  15.596  11.967  0.1858  0.1461 -0.2027
24065W        W40913   5.417   0.542   2.420  0.0827  0.5290 -0.1442
24066W        W40914  12.069   1.689   3.289 -0.0094  0.2068 -0.0127
24067W        W40915  12.769   2.172   1.130 -0.1932 -0.0057 -0.1562
24068W        W40916   7.297   3.393   3.348  0.1623 -0.0013  0.1340
24069W        W40917   0.110  11.761  13.301 -0.0392 -0.1645 -0.0909
24070W        W40918   3.787  12.791  13.219 -0.0728 -0.0110 -0.0204
24071W        W40919  14.967  10.597   3.907 -0.1867 -0.1524 -0.0012
24072W        W40920  12.589   3.245  14.678  0.2689 -0.3177  0.0896
24073W        W40921   9.088   5.259   3.161  0.0783 -0.2399  0.1290
24074W        W40922   3.498   8.149  15.059 -0.3347  0.2073 -0.1944
24075W        W40923  10.786  15.832  14.264  0.1452 -0.0971  0.2474
24076W        W40924   9.329  15.893  13.965 -0.1722  0.0784  0.0406
24077W        W40925  17.330  11.431   0.569  0.0793  0.3108  0.3821
24078W        W40926   5.390  10.845   0.513  0.2110  0.0950 -0.1275
24079W        W40927   4.340  13.530  13.591 -0.1457 -0.3958  0.0824
24080W        W40928   5.035  11.063  16.262 -0.2076  0.0865  0.3216
24081W        W40929   4.631   1.043  12.512 -0.2990 -0.1230  0.0756
24082W        W40930  11.733   7.299   3.546  0.1343  0.3353 -0.1471
24083W        W40931   6.317   2.727   5.492  0.2713  0.1474  0.1339
24084W        W40932  16.626  11.561   3.745 -0.1536  0.1771 -0.0242
24085W        W40933   1.942  16.944   5.959  0.1643  0.0847 -0.0094
24086W        W40934  14.506  16.542   1.150  0.0151 -0.1340 -0.1335
24087W        W40935   7.501   9.321   2.349 -0.1736  0.4005 -0.0692
24088W        W40936   7.368  15.660   3.815 -0.1172  0.1599 -0.0666
24089W        W40937  10.381   7.228   3.131  0.0843 -0.1400 -0.0815
24090W        W40938   3.550   4.554  15.617 -0.0626  0.2132  0.1886
24091W        W40939  12.340  16.125   4.486  0.0924 -0.1355 -0.1237
24092W        W40940   7.271  16.301  14.141 -0.0418  0.1244 -0.0052
24093W        W40941   2.419  14.651   2.182  0.0978 -0.1831  0.1172
24094W        W40942   7.505  11.727   1.860 -0.1276 -0.3033 -0.0830
24095W        W40943  15.699  12.469  11.576  0.0488 -0.1077 -0.0146
24096W        W40944   9.020   4.069  12.964 -0.1340 -0.2187 -0.2611
24097W        W40945  11.435   5.827  15.638  0.2350  0.3973  0.1762
24098W        W40946  12.744  16.878  16.198  0.1919  0.0533  0.1221
24099W        W40947  16.607  14.557  16.058 -0.2576  0.4778 -0.2079
24100W        W40948   9.599  17.708   2.642 -0.0427  0.0953  0.0660
24101W        W40949   8.234   5.135   3.409 -0.0234 -0.2314 -0.0307
24102W        W40950  10.562  11.364   3.394  0.0731 -0.0764  0.1836
24103W        W40951  10.056   0.598   1.574  0.0629 -0.1396  0.1153
24104W        W40952   7.595   5.706   1.140  0.0132  0.2758 -0.0243
24105W        W40953   2.960  10.589  10.999 -0.1011  0.1498  0.2481
24106W        W40954   2.344   9.852   4.942  0.0264  0.1275 -0.0588
24107W        W40955   8.741   2.267  15.376  0.0374 -0.2985  0.1241
24108W        W40956  10.587   4.678   1.154 -0.1923 -0.1640 -0.1990
24109W        W40957   2.027  12.260   3.573 -0.0487 -0.1167 -0.0934
24110W        W40958   0.244   5.829  12.442  0.0329  0.1567  0.1046
24111W        W40959   5.710  12.230  11.182  0.1577 -0.4867 -0.1190
24112W        W40960  13.107   1.901   0.772  0.2245 -0.4517 -0.1202
24113W        W40961   6.184   1.347   0.740 -0.0696  0.1482  0.1373
24114W        W40962   6.273  11.432  16.298 -0.1059  0.2553  0.0582
24115W        W40963   6.371   7.350   6.269 -0.0256 -0.1316 -0.1112
24116W        W40964  17.346   7.413  14.203 -0.1019  0.0120  0.3142
24117W        W40965   3.299   6.356   2.484  0.2210 -0.1325 -0.1685
24118W        W40966  15.868  16.267  13.101  0.0612 -0.1324 -0.0394
24119W        W40967   3.769  13.481   0.391  0.2140 -0.0723 -0.0986
24120W        W40968   0.568   5.536   0.842 -0.0358  0.2251  0.0697
24121W        W40969   1.054   3.157  11.542  0.1372 -0.1821 -0.0222
24122W        W40970  13.019   3.437   3.474  0.0004  0.0142 -0.2530
24123W        W40971   1.851   7.967  12.047 -0.0458 -0.0771  0.2337
24124W        W40972   1.323  14.042  12.994 -0.1226 -0.1679  0.1725
24125W        W40973  10.778   6.111  14.280 -0.0070 -0.2774 -0.0897
24126W        W40974  17.172  16.107   2.441 -0.1179  0.1012 -0.1189
24127W        W40975  16.219  15.918  12.736  0.0972  0.0109  0.1396
24128W        W40976   9.356   6.949   2.723  0.1361 -0.1371  0.0307
24129W        W40977   1.238   2.744  14.633 -0.0604  0.0592 -0.1821
24130W        W40978  16.904  13.558  11.467  0.2121 -0.0008  0.0288
24131W        W40979   0.511   0.759   1.075  0.1970  0.1859  0.0728
24132W        W40980  16.490  12.391  13.633  0.0597 -0.0869  0.1491
24133W        W40981  10.697   8.707   6.445  0.1829 -0.0761 -0.1425
24134W        W40982   6.167   7.361   1.756  0.1621  0.1166  0.4303
24135W        W40983   9.338   1.880  11.008 -0.0807 -0.0295  0.2157
24136W        W40984   8.721   0.973   0.827  0.2215  0.0043  0.0950
24137W        W40985   4.239  15.072  14.102  0.0878 -0.0037  0.0271
24138W        W40986   3.939   2.341  11.759 -0.0065  0.3098  0.3119
24139W        W40987  15.533   8.498  15.953  0.1073  0.0400  0.1936
24140W        W40988   2.717   0.879   1.861 -0.0034  0.1984  0.0980
24141W        W40989  16.059   5.375   3.063 -0.0398  0.1361  0.1599
24142W        W40990  14.808   4.746   3.654  0.0593 -0.1081 -0.1504
24143W        W40991   7.848   5.926  15.763 -0.1031 -0.0009 -0.0013
24144W        W40992  17.451   8.847  14.495 -0.0119 -0.2001  0.1346
24145W        W40993  13.563   2.699   4.558  0.0808  0.0089  0.0748
24146W        W40994  15.027  17.169   2.354  0.0654 -0.1966  0.0577
24147W        W40995   9.787  12.311   2.912 -0.2094  0.0689  0.0942
24148W        W40996   4.463   4.311  11.186  0.1323  0.0917 -0.0826
24149W        W40997   5.787   0.795  11.854  0.0448 -0.0537 -0.1908
24150W        W40998  10.725   8.989   2.398 -0.3134 -0.0930  0.2373
24151W        W40999  11.501   8.019   5.899 -0.0819  0.0959 -0.2957
24152W        W41000   0.405   4.569  13.441  0.0051 -0.0260 -0.1294
24153W        W41001   9.784   6.939   2.478  0.1408  0.0287  0.2290
24154W        W41002   4.217   8.496  13.564 -0.4119  0.0794 -0.2505
24155W        W41003   6.186   8.831   0.592 -0.2360 -0.2854 -0.2501
24156W        W41004  11.610   9.474  11.137  0.0144 -0.0401  0.3041
24157W        W41005  16.146  12.276   0.805  0.3005 -0.1351  0.2010
24158W        W41006   1.890  12.172  12.820  0.2849 -0.0178  0.1782
24159W        W41007   6.037  11.614  15.000 -0.1491  0.2228 -0.0531
24160W        W41008   3.868  16.094   5.447 -0.0449 -0.2769 -0.0016
24161W        W41009   7.054   9.885  15.300  0.4514  0.0878 -0.4180
24162W        W41010  16.352   9.959  12.416 -0.2069 -0.0273  0.1212
24163W        W41011  13.890  14.612  13.099 -0.2289 -0.0109 -0.0545
24164W        W41012  12.507  15.246   1.044  0.0515 -0.0853  0.0196
24165W        W41013   3.728  16.085   4.540  0.0377  0.0559  0.2315
24166W        W41014  15.372   6.039   3.251 -0.2711 -0.2887 -0.2577
24167W        W41015   1.448   4.929   0.352  0.0611 -0.0843  0.2485
24168W        W41016  15.039   8.066  14.837  0.1668 -0.4337 -0.0876
24169W        W41017   6.138  16.007  14.573  0.0139 -0.3136  0.0899
24170W        W41018   3.959   1.332  13.729  0.2200 -0.0469  0.0493
24171W        W41019   5.581   9.328  14.258 -0.1505 -0.0721  0.0499
24172W        W41020  15.932  11.279  14.186 -0.2200  0.3756 -0.0776
24173W        W41021   4.683  16.477  12.516  0.0510  0.4289  0.1891
24174W        W41022   5.754   2.972  11.935 -0.0322  0.2467 -0.0979
24175W        W41023   9.340  14.419  14.810 -0.0768 -0.2569  0.2028
24176W        W41024   0.468   2.930   0.561 -0.1168 -0.0399 -0.2070
24177W        W41025  14.457   8.044  13.547 -0.0264 -0.2832 -0.2430
24178W        W41026   4.188   4.368   2.291 -0.0657 -0.0805 -0.0726
24179W        W41027   9.256   0.102   2.075 -0.4208 -0.1977  0.2002
24180W        W41028  10.758   1.980  12.046 -0.1401 -0.1522 -0.1834
24181W        W41029  13.149   9.401  12.803 -0.1572  0.0839  0.5301
24182W        W41030  14.898   1.840   1.690 -0.1538  0.1475 -0.0005
24183W        W41031  13.647  11.692  16.241 -0.0402 -0.1809  0.3110
24184W        W41032  10.966  11.777  15.969 -0.1064 -0.1059  0.0138
24185W        W41033  15.844  15.654   1.871 -0.1126  0.4416 -0.0279
24186W        W41034   9.621   6.157   1.772  0.1538 -0.2419 -0.2628
24187W        W41035   9.492  17.515  11.674 -0.0218  0.0100  0.0752
24188W        W41036  10.851  14.503  14.119  0.0565 -0.1365  0.0060
24189W        W41037  16.642   1.183   3.199  0.0654 -0.0370 -0.1162
24190W        W41038   2.519  13.228   1.116 -0.1021 -0.0597  0.0398
24191W        W41039   3.974  13.320  14.543 -0.0656 -0.2690  0.0464
24192W        W41040  15.113  11.128   3.129 -0.5275 -0.2487 -0.2234
24193W        W41041  12.672   7.969   4.967  0.0802  0.0743 -0.1685
24194W        W41042   9.694  13.386   5.370 -0.1079  0.1154  0.0551
24195W        W41043  14.772   6.980   0.152 -0.3788  0.0864  0.1911
24196W        W41044   9.793   8.066  12.444  0.0843  0.0339  0.0856
24197W        W41045   2.725   8.338  13.941  0.1217 -0.1401 -0.5394
24198W        W41046  14.605  10.764  12.362  0.1839 -0.0955 -0.2052
24199W        W41047   8.240   4.911  15.702  0.0953 -0.0489  0.3455
24200W        W41048  17.717   0.978  15.990 -0.2429  0.1159 -0.0402
24201W        W41049   3.741  10.911  16.458 -0.1941  0.0716 -0.0272
24202W        W41050   2.934  11.375   4.635 -0.2267 -0.0789 -0.0013
24203W        W41051  17.255  14.252   3.896  0.1649 -0.0050  0.0486
24204W        W41052   2.628  10.299   4.174  0.0905 -0.1559 -0.1253
24205W        W41053   6.579   0.322  15.178  0.2980  0.3307  0.0507
24206W        W41054   7.696  13.314  15.381  0.2737 -0.0899  0.1114
24207W        W41055  13.428  14.602   1.151  0.1151  0.3127  0.0435
24208W        W41056  10.320   8.512   4.060 -0.1113  0.2664  0.1442
24209W        W41057   6.014   2.060   4.359 -0.1534 -0.3267 -0.0189
24210W        W41058   6.817  13.876   3.047 -0.3326 -0.6172 -0.1997
24211W        W41059  10.135   9.920   4.700 -0.1701  0.0914  0.1535
24212W        W41060  12.439   1.815   2.446  0.1832  0.0986 -0.0515
24213W        W41061   2.505   9.561   4.648  0.5379 -0.2903 -0.2203
24214W        W41062  15.734  11.207  13.507 -0.1879  0.0583 -0.0132
24215W        W41063   9.428  15.010   0.302 -0.1329  0.0808 -0.0780
24216W        W41064   4.597  17.080   3.933  0.1259  0.1952 -0.0782
24217W        W41065  17.510   3.541  11.759 -0.1905  0.1348 -0.1256
24218W        W41066   0.819  10.329   2.869 -0.0859 -0.0106 -0.3621
24219W        W41067   2.686   8.370   5.165 -0.1612 -0.0102  0.2219
24220W        W41068  11.284  14.782  16.193  0.1442  0.2573  0.2367
24221W        W41069   0.084  13.135   1.842 -0.2247  0.1095  0.0459
24222W        W41070   5.631  13.239   4.927  0.1839  0.1778  0.3715
24223W        W41071   7.961   8.074   2.043 -0.3367  0.1492 -0.0008
24224W        W41072  10.396   9.493   1.405  0.0226 -0.2189  0.1125
24225W        W41073  17.576   4.864   2.505 -0.1823 -0.0160 -0.0093
24226W        W41074  14.487   7.468  11.253 -0.0095  0.1239  0.1530
24227W        W41075   1.267  14.218   0.230 -0.2064 -0.0127 -0.1569
24228W        W41076  16.836   4.002  14.633 -0.4614  0.1109  0.1690
24229W        W41077   1.535  17.203   3.115  0.1206  0.1143  0.1675
24230W        W41078   5.412  11.806   4.828 -0.3692  0.0096  0.2822
24231W        W41079  12.080  16.547  10.717 -0.2210 -0.0104  0.2072
24232W        W41080   7.491   4.952  10.855  0.1603 -0.2969 -0.0624
24233W        W41081  16.195   1.182   1.983 -0.2663 -0.2012  0.0349
24234W        W41082   3.731   0.110  16.219 -0.2359 -0.0198  0.3791
24235W        W41083   2.037   2.927  13.597  0.2384  0.0359  0.0691
24236W        W41084   4.754  17.624  11.708 -0.0030 -0.1103 -0.3660
24237W        W41085   7.872  15.295  12.580 -0.0694 -0.0247 -0.3348
24238W        W41086  11.066   9.561  13.452  0.1742 -0.2068 -0.0807
24239W        W41087  17.756   6.190  11.433 -0.2217 -0.3403  0.0247
24240W        W41088   1.500  10.233  12.937 -0.5402  0.1112  0.1276
24241W        W41089   6.112  17.491  15.933 -0.1121 -0.2763 -0.1097
24242W        W41090   5.966   5.214  12.785  0.1739 -0.2482 -0.2137
24243W        W41091   1.299  12.404  11.294 -0.0464 -0.1479 -0.0684
24244W        W41092   2.700   2.305   3.435 -0.0920  0.0814  0.0295
24245W        W41093   1.380   6.329   0.448 -0.1315 -0.1268  0.2733
24246W        W41094  12.174  11.151   4.323  0.0072 -0.0130  0.1659
24247W        W41095  10.665  12.033   2.700 -0.3717 -0.0439 -0.0894
24248W        W41096   1.623  13.060   2.968  0.0904  0.0614  0.1925
24249W        W41097   2.818  10.522  12.647 -0.2114 -0.2171  0.1321
24250W        W41098   1.577  10.634  15.373 -0.2100 -0.0723  0.0620
24251W        W41099   9.313  14.234   4.035  0.0833  0.0407  0.2531
24252W        W41100   6.879   6.322   2.010 -0.0492 -0.0292 -0.0105
24253W        W41101   0.384  10.733   4.442  0.1685 -0.1562  0.0425
24254W        W41102   2.913   5.841  14.004 -0.0077  0.4480  0.1293
24255W        W41103   4.311   2.873   2.521  0.0025 -0.3689 -0.3199
24256W        W41104   9.880   9.623  11.440 -0.1174  0.2732 -0.0424
24257W        W41105   6.723  10.928   1.023  0.0425 -0.0346 -0.4009
24258W        W41106   2.835  14.844   2.497 -0.3535  0.3515 -0.1973
24259W        W41107   6.726   3.634   1.373 -0.1166 -0.0107 -0.2280
24260W        W41108  11.718  13.541  14.866  0.0553  0.0508 -0.1334
24261W        W41109   7.280  13.719   3.075  0.2157 -0.0973 -0.5093
24262W        W41110   8.249   3.700   0.113 -0.3044 -0.3240 -0.0145
24263W        W41111   4.318   4.675   4.098  0.0515 -0.0661  0.0186
24264W        W41112   1.055   0.334   1.677  0.1409 -0.0496 -0.4232
24265W        W41113  15.516  11.887   1.053 -0.0180 -0.4761 -0.1138
24266W        W41114  16.156  15.224  15.244 -0.1106 -0.0577  0.1200
24267W        W41115  17.204   5.724  16.176 -0.0922 -0.1933  0.1131
24268W        W41116   1.574  16.980   4.150  0.1247 -0.0284 -0.2548
24269W        W41117  12.023  12.960  10.611  0.0002 -0.2341  0.3207
24270W        W41118  10.182  10.834   0.804  0.0308 -0.0793 -0.1352
24271W        W41119   4.280  16.230  10.252  0.1172  0.0947  0.2229
24272W        W41120   6.529   3.908  13.963  0.1151  0.0608  0.0491
24273W        W41121  12.394  13.301  16.128  0.3431  0.1026  0.1482
24274W        W41122   9.710  14.348  11.451  0.5045  0.1293  0.1025
24275W        W41123   7.045   9.726  13.315  0.0407 -0.0200 -0.1414
24276W        W41124  15.164  10.046   3.660  0.0271 -0.0640 -0.3046
24277W        W41125   3.974   9.771  11.292 -0.0683  0.0295  0.3101
24278W        W41126  17.752  12.710  13.752  0.1117  0.1254 -0.3006
24279W        W41127   2.283  13.012   4.741 -0.0316 -0.0275  0.2663
24280W        W41128   5.912   9.307   4.079 -0.0354 -0.2751 -0.4813
24281W        W41129  13.973  15.302  16.135  0.0865  0.1120  0.2838
24282W        W41130   9.601   0.580   1.736  0.3519 -0.0336 -0.0347
24283W        W41131  11.062  17.695   0.883  0.0223 -0.0734 -0.1077
24284W        W41132  13.038  14.558  15.896  0.0408 -0.3528  0.0413
24285W        W41133   6.946  16.294  16.404  0.1937 -0.0865 -0.0887
24286W        W41134   4.780  10.071  13.066  0.1187 -0.0136 -0.0346
24287W        W41135   8.289   6.241  12.415  0.0563  0.3000 -0.2360
24288W        W41136   4.278  14.458  12.798  0.0737 -0.0115  0.2053
24289W        W41137  10.274   1.680   0.227  0.1019  0.1499  0.1966
24290W        W41138   4.207  12.349  16.138  0.0781  0.0375  0.0188
24291W        W41139   6.809   5.197   3.068 -0.2443  0.2475  0.1740
24292W        W41140  15.871   6.720   2.584  0.1336 -0.0827 -0.1372
24293W        W41141   4.612   8.457  12.382 -0.1248 -0.2620 -0.0265
24294W        W41142   3.427  14.566  12.324  0.0460 -0.2413  0.2056
24295W        W41143   1.174  14.794  14.925 -0.2228 -0.0460 -0.0128
24296W        W41144   5.857   2.682  14.124 -0.1479  0.3006  0.0654
24297W        W41145   4.900  11.780   0.427  0.0525  0.0857  0.0945
24298W        W41146  17.228  12.813   1.082 -0.0913 -0.0709  0.1106
24299W        W41147  12.366  15.574   0.741  0.2805  0.3218  0.1180
24300W        W41148  12.212   2.794   3.506 -0.0175  0.3312 -0.1567
24301W        W41149   1.912   9.004  12.718 -0.2960  0.0302 -0.0977
24302W        W41150  10.471  12.814   2.064  0.0266  0.1427  0.2582
24303W        W41151   7.256   1.980   3.534  0.0844 -0.1621 -0.3232
24304W        W41152   9.995   6.923   4.976  0.0777  0.3272  0.1278
24305W        W41153   4.686   6.583  15.004 -0.1396 -0.1904 -0.1485
24306W        W41154   0.097   6.712   1.230  0.0271  0.1938  0.0483
24307W        W41155   0.929  12.746  11.632  0.0200 -0.2923 -0.0001
24308W        W41156   3.634   5.849  15.744 -0.0472  0.0320  0.2100
24309W        W41157   3.214   6.792   3.684  0.2457  0.0233  0.1322
24310W        W41158   1.459  15.568  15.530 -0.1701  0.0701  0.2768
24311W        W41159   2.079   1.916   0.702 -0.2082 -0.1682  0.5461
24312W        W41160  12.042   7.643   2.275  0.1179  0.0136  0.0505
24313W        W41161  14.075  10.468  15.136  0.2794 -0.3890 -0.0338
24314W        W41162   8.604  17.176   0.249 -0.1078 -0.0196 -0.3559
24315W        W41163  17.752   8.944  15.795  0.3438  0.3163  0.0166
24316W        W41164   9.563  17.291  12.247  0.1410  0.1624 -0.2749
24317W        W41165   3.110  17.299   4.693 -0.0154  0.0613  0.1317
24318W        W41166  12.303   9.369  13.636  0.0558 -0.1631  0.2226
24319W        W41167   9.462   2.358  12.366 -0.1448 -0.1456 -0.0901
24320W        W41168  12.683  17.329  11.013  0.0047  0.2375 -0.1505
24321W        W41169   3.036   6.251   2.896  0.0420 -0.0532  0.1122
24322W        W41170   7.547  11.988   4.157  0.1417 -0.1943  0.1913
24323W        W41171   5.083  13.640  15.865  0.0952  0.1080 -0.1633
24324W        W41172  17.412  11.581   0.055 -0.3325 -0.0907  0.1604
24325W        W41173   7.689  10.808  15.368  0.3737  0.4047 -0.2017
24326W        W41174  11.490  17.347  14.574 -0.1559 -0.0278  0.1794
24327W        W41175  15.497  15.032  15.739 -0.2911 -0.0385 -0.0239
24328W        W41176   2.826  15.460  13.666  0.4212  0.0049 -0.1285
24329W        W41177   1.093   2.589   4.578 -0.1441 -0.0363  0.1608
24330W        W41178  17.868  14.122   0.739 -0.2212  0.1963  0.1053
24331W        W41179  17.810   8.327  11.611 -0.1435  0.2143 -0.0951
24332W        W41180   9.770   6.676  12.902  0.1779  0.0740  0.1788
24333W        W41181   3.698   2.430  16.443  0.6912  0.2298  0.0262
24334W        W41182   0.845  13.513  11.328 -0.4179 -0.0789  0.1030
24335W        W41183  15.549   4.855  16.265 -0.1536  0.2087 -0.0689
24336W        W41184   9.151  10.382   6.231  0.0160  0.3282 -0.2391
24337W        W41185   3.926   0.685   5.021  0.2125 -0.0103 -0.0916
24338W        W41186   8.588   2.296   4.219  0.0414 -0.0244 -0.2756
24339W        W41187  17.390   8.984   0.061  0.0184 -0.3165 -0.4734
24340W        W41188  12.631   1.311   1.313 -0.0105  0.1802 -0.1479
24341W        W41189   9.309   1.494   3.925  0.2606  0.2281  0.1078
24342W        W41190   6.943  14.285   1.636 -0.2273 -0.1067 -0.3344
24343W        W41191   8.872  13.163   4.674  0.0219  0.1847 -0.0142
24344W        W41192  17.710   9.372   2.688 -0.2103  0.0507  0.1414
24345W        W41193  10.460   9.992  12.694 -0.1062  0.0233  0.1556
24346W        W41194  16.895   7.717  12.301 -0.0704 -0.3390  0.0204
24347W        W41195   2.504  14.787  14.340 -0.0821  0.2147  0.1882
24348W        W41196   1.502  13.875  13.842 -0.0140 -0.0070 -0.0541
24349W        W41197   2.148  10.427   2.467  0.0219  0.0062 -0.1434
24350W        W41198   1.012  16.146   0.690  0.1402  0.3213  0.0414
24351W        W41199   8.461  14.049   4.368  0.0165 -0.1974  0.1141
24352W        W41200  12.867   6.839  11.462  0.1217 -0.1679 -0.0490
24353W        W41201   4.574  11.293  16.271  0.0239 -0.0633 -0.0196
24354W        W41202   6.751  17.264  11.787 -0.2613 -0.0819 -0.0563
24355W        W41203   9.431  14.619   1.086  0.1709 -0.0568 -0.0653
24356W        W41204   3.994  13.920   4.642  0.0321 -0.1023 -0.0559
24357W        W41205   2.429  13.707  15.872 -0.0268  0.1534  0.1808
24358W        W41206  15.671   1.121   3.181 -0.0850  0.2711 -0.1412
24359W        W41207  12.879   8.695   2.414  0.0475  0.2987 -0.0132
24360W        W41208   0.160  11.183   1.744  0.0790  0.3331 -0.0626
24361W        W41209  12.921  15.392   1.358  0.4629  0.3111  0.3033
24362W        W41210   9.247  17.588  12.959  0.0822 -0.1063  0.3159
24363W        W41211   1.884  12.551   2.855  0.1289  0.1815 -0.1771
24364W        W41212  13.187  13.823  13.878 -0.1267 -0.2716 -0.1702
24365W        W41213   7.806   8.971  16.248  0.0321 -0.1047 -0.0236
24366W        W41214   3.590   3.876  13.795 -0.2096 -0.0043 -0.1743
24367W        W41215   8.681  12.618  13.679 -0.0961 -0.0938  0.0270
24368W        W41216  12.848  13.504  14.041  0.1850 -0.0032 -0.1345
24369W        W41217   7.760   9.250  15.092  0.0526 -0.0574 -0.1926
24370W        W41218   2.107   1.274   4.920 -0.3833 -0.0135 -0.1288
24371W        W41219   4.906   3.512   1.872  0.0139 -0.0070  0.0385
24372W        W41220  10.846  13.407  13.979  0.0941  0.1914 -0.3287
24373W        W41221   5.473   6.443  11.789 -0.1941 -0.0189 -0.2145
24374W        W41222   1.182  17.319  11.892 -0.0339 -0.1436  0.1167
24375W        W41223   8.310   6.745   3.046  0.0150  0.0029  0.1613
24376W        W41224   8.198   2.806  12.575 -0.0613  0.0370  0.2699
24377W        W41225   4.575  14.840  12.562 -0.0690 -0.1198  0.0409
24378W        W41226  16.235  14.585   0.387 -0.0111  0.1482  0.4142
24379W        W41227  10.339  13.372   4.268 -0.0711  0.1942 -0.1551
24380W        W41228   3.956   5.731  12.048 -0.0620 -0.2038  0.0525
24381W        W41229  14.186   7.473   0.162  0.1624  0.0694 -0.1528
24382W        W41230  15.543  11.576   4.663 -0.3639 -0.0325 -0.1549
24383W        W41231  11.157   5.116   3.645  0.0454  0.2187  0.0419
24384W        W41232   1.502  15.623  13.391  0.1272 -0.0574 -0.0524
24385W        W41233  10.335  12.251   1.284  0.1465  0.1125  0.2581
24386W        W41234  16.948   3.207  13.510 -0.0468  0.0788 -0.1910
24387W        W41235  10.496  10.247  14.047  0.0595 -0.0030  0.1446
24388W        W41236   8.446   7.322   1.149 -0.0249  0.1925 -0.1647
24389W        W41237   4.715  14.405  14.640 -0.0750 -0.1109 -0.1758
24390W        W41238   7.739   2.191  14.024 -0.0815 -0.4606 -0.0244
24391W        W41239   0.287  14.113  11.504 -0.1649  0.3047  0.2457
24392W        W41240   0.959   7.402   3.155 -0.2053  0.0585  0.2446
24393W        W41241   5.636   0.344  15.592  0.1449  0.2038  0.1601
24394W        W41242   4.736   5.030   2.076  0.0828  0.0408 -0.0669
24395W        W41243  12.602   1.928  12.874 -0.0278 -0.0084  0.1025
24396W        W41244  11.620  10.234   2.811 -0.0525  0.0913 -0.1557
24397W        W41245   0.141  11.785  12.184  0.1017 -0.0513 -0.1442
24398W        W41246  12.965  10.962  15.082 -0.0066  0.1998 -0.1748
24399W        W41247   6.844   5.521  15.986 -0.0140 -0.1473  0.1770
24400W        W41248  14.260   8.120  11.897  0.0056 -0.0714 -0.3780
24401W        W41249  14.305   7.554   5.560 -0.2465  0.1143  0.4390
24402W        W41250  17.582   4.460  14.714  0.1912 -0.0048  0.0845
24403W        W41251   8.902   1.519  16.046  0.0043 -0.0398 -0.1493
24404W        W41252   5.337  16.716   2.707 -0.1160  0.1772 -0.2497
24405W        W41253   1.424  15.564  14.462  0.1485 -0.1809  0.1409
24406W        W41254   2.281  13.802  15.314  0.0902  0.4192 -0.0685
24407W        W41255  13.036  14.308  11.320  0.0100 -0.0122 -0.0121
24408W        W41256   5.653  12.150  14.399 -0.0548  0.0611  0.0614
24409W        W41257  13.251   4.457  14.306 -0.2750  0.0850 -0.1451
24410W        W41258  15.600  16.879  12.016  0.3203 -0.0142 -0.1125
24411W        W41259   9.444   1.020   6.174  0.2292 -0.1489  0.2526
24412W        W41260   6.663  12.970  16.028  0.2603 -0.0900 -0.2146
24413W        W41261  13.770   0.201   4.244  0.3037 -0.3101 -0.1860
24414W        W41262  16.542  16.856  15.354  0.1894  0.1591 -0.2374
24415W        W41263   8.367   4.687  13.397  0.2227 -0.0452 -0.2420
24416W        W41264   7.220  16.562   3.913  0.0661  0.0932 -0.0027
24417W        W41265  13.620   9.826   1.572 -0.0732  0.1041 -0.0989
24418W        W41266   9.643  14.557   4.102 -0.1630 -0.1431  0.0104
24419W        W41267  15.863  16.924  12.476 -0.1388  0.2510  0.0919
24420W        W41268   8.115  15.835  15.906  0.2768 -0.1013  0.3319
24421W        W41269  10.257  13.213  14.372 -0.0333 -0.3789  0.0032
24422W        W41270   5.726  14.451  15.580  0.2939  0.3059 -0.3699
24423W        W41271   0.943   6.391  15.914 -0.0482  0.1786 -0.1814
24424W        W41272  10.224  16.986  11.139 -0.0116 -0.1822 -0.1207
24425W        W41273   5.073   9.677   5.269  0.3808 -0.0562  0.3778
24426W        W41274  17.719   8.159   3.630  0.0548 -0.0310 -0.0500
24427W        W41275   9.882   4.732   2.676  0.2452 -0.1968 -0.0630
24428W        W41276   0.317   5.455   2.957 -0.1435  0.3246 -0.3741
24429W        W41277   5.551   8.886  11.025 -0.0463  0.1219  0.0909
24430W        W41278  17.313  10.782  15.207  0.0674 -0.2113 -0.0300
24431W        W41279  13.446   0.138  13.452 -0.0119 -0.1549  0.2263
24432W        W41280   9.239   3.537   3.246  0.1379 -0.4182  0.0306
24433W        W41281   8.702  10.293   4.130  0.0126  0.2185  0.3072
24434W        W41282   2.368  10.700  11.831 -0.1861 -0.0224 -0.4006
24435W        W41283   2.001  12.715  13.229 -0.0661 -0.0322  0.1055
24436W        W41284   2.399   3.145  15.737  0.0452 -0.1613  0.0877
24437W        W41285   1.998   3.689   0.722  0.0880  0.1307  0.2833
24438W        W41286  15.377   8.721   4.952  0.0114  0.4025 -0.0986
24439W        W41287  16.123   6.285   4.039 -0.0660 -0.1490 -0.0830
24440W        W41288   9.807   2.100   4.290  0.0712 -0.0117 -0.2099
24441W        W41289  16.864   8.175  13.071 -0.1271 -0.2092  0.0076
24442W        W41290   0.661  11.471   4.890 -0.0446 -0.2631  0.0818
24443W        W41291  10.880   0.143  11.698  0.3266 -0.3068 -0.0277
24444W        W41292   3.258  17.035   0.599 -0.1049 -0.0550 -0.0678
24445W        W41293  15.968   7.791   2.372  0.1003  0.2750  0.3108
24446W        W41294   7.240  11.790   2.806  0.1673 -0.0813  0.2017
24447W        W41295   9.853   9.085  15.140  0.2446 -0.0636 -0.0908
24448W        W41296  17.548   3.277   6.097 -0.3272  0.0198 -0.0457
24449W        W41297   8.272   2.542  15.715 -0.0652 -0.1136  0.0680
24450W        W41298   5.531   4.104  13.132  0.0297 -0.2439 -0.0277
24451W        W41299  15.586   8.249  13.146  0.0340 -0.1360 -0.1160
24452W        W41300   3.613  12.544  15.446  0.1226 -0.1648  0.0538
24453W        W41301   7.850  14.809   3.579  0.1034  0.0982  0.0835
24454W        W41302  16.922  11.379   1.819  0.0632 -0.2807  0.2716
24455W        W41303   2.926  16.443   4.664  0.1995 -0.0594 -0.1193
24456W        W41304   6.739  13.497   2.171  0.0602 -0.1452  0.2686
24457W        W41305  13.430   3.530  12.583 -0.3645 -0.2629 -0.0161
24458W        W41306   2.820  10.966   3.620 -0.0636  0.1190  0.5094
24459W        W41307   1.348  16.894   5.420  0.1701  0.2132  0.0071
24460W        W41308   0.447   4.525  12.471  0.0120 -0.0479 -0.2075
24461W        W41309  11.694   6.255   5.103 -0.1660 -0.0614  0.2230
24462W        W41310   3.733  11.162  14.011 -0.0668  0.0392  0.0353
24463W        W41311  14.791   2.733   4.389 -0.0784 -0.2483  0.2704
24464W        W41312   2.885   7.871  10.926 -0.1641  0.0982 -0.3929
24465W        W41313   4.682  13.196   0.645 -0.1621 -0.1206  0.1933
24466W        W41314   2.624  15.256  11.992 -0.0621 -0.1154  0.0334
24467W        W41315   2.989  11.522  14.655 -0.4053 -0.2599 -0.2004
24468W        W41316   6.359   1.759  15.867 -0.1630 -0.1910  0.2087
24469W        W41317   2.701   9.316   1.566 -0.0803  0.3557  0.0029
24470W        W41318   5.764   1.303  12.982 -0.0846 -0.1757 -0.1780
24471W        W41319   2.208   8.447   2.410 -0.1406  0.3103 -0.0167
24472W        W41320   3.935  15.914  12.067 -0.1322 -0.1311  0.1547
24473W        W41321   9.649  11.775   1.765  0.0535 -0.0692  0.3436
24474W        W41322  11.994   4.193   2.757  0.0834  0.0486  0.0286
24475W        W41323  12.907   6.356   5.600 -0.0675 -0.1025 -0.3373
24476W        W41324  11.165   3.845   4.833 -0.1051  0.3054 -0.0914
24477W        W41325   0.349   3.059  14.410  0.0325  0.0269 -0.0926
24478W        W41326   3.710  14.346  13.566 -0.1389 -0.2039 -0.0171
24479W        W41327  13.738  17.015  16.377 -0.0308  0.3344  0.2023
24480W        W41328  14.006  15.588   3.241  0.0506 -0.1319  0.0412
24481W        W41329   9.156   1.286   1.971 -0.2627  0.1321  0.0627
24482W        W41330  12.855  12.857   1.302 -0.0111 -0.0224  0.0065
24483W        W41331  10.678   3.337  14.972  0.0118 -0.2388 -0.1133
24484W        W41332  16.112   9.905  14.240 -0.2593  0.0783 -0.0797
24485W        W41333   6.580  14.393  14.391  0.2984  0.0417  0.0223
24486W        W41334  13.800   4.614  16.085  0.1089 -0.0839 -0.2670
24487W        W41335   2.608  15.724   5.048  0.0982  0.0652 -0.3325
24488W        W41336  15.306   4.327   4.823 -0.1819  0.0430 -0.0768
24489W        W41337  11.589  10.526  16.195 -0.0125 -0.1598 -0.0409
24490W        W41338   3.627  10.909  14.788  0.2289  0.4358  0.0545
24491W        W41339   8.103   1.003   0.680  0.1191  0.3753  0.0244
24492W        W41340   9.778   4.214  14.351 -0.0276 -0.1309 -0.2570
24493W        W41341   4.337   9.368   5.983 -0.0626 -0.1375 -0.0913
24494W        W41342  15.883   8.703   2.678  0.0274 -0.4666 -0.3450
24495W        W41343  16.330  16.413  12.296  0.3573  0.1840  0.0318
24496W        W41344   7.230  15.104  11.982 -0.0297  0.1531  0.3052
24497W        W41345   9.269   7.945   1.299  0.1477 -0.0196 -0.0246
24498W        W41346   7.181  10.011   0.554  0.0617 -0.0776  0.1736
24499W        W41347   9.024  10.469   0.589 -0.1123 -0.0895 -0.2991
24500W        W41348   3.200  14.296   5.188  0.0861 -0.1793  0.1277
24501W        W41349  11.507   6.812   0.990  0.0206  0.0056 -0.0367
24502W        W41350  17.166  15.568   0.032  0.0340 -0.0619  0.2121
24503W        W41351  13.245   9.802   0.109  0.0744 -0.1032  0.1202
24504W        W41352   7.457   0.677   1.367  0.1358 -0.0129 -0.0596
24505W        W41353  15.942   1.753   5.853 -0.1450  0.2321  0.0974
24506W        W41354  13.283   7.778  14.822  0.0900 -0.0051 -0.2327
24507W        W41355   7.447   5.493   0.316  0.0494 -0.0489 -0.0668
24508W        W41356  16.466  10.125  13.881 -0.1671  0.3006 -0.0451
24509W        W41357   6.010   4.893  13.446  0.2078  0.1911 -0.2043
24510W        W41358  10.884  11.771  16.457 -0.0992 -0.0777 -0.3090
24511W        W41359  14.439  12.252   3.300  0.1789  0.0274 -0.0986
24512W        W41360   1.733   1.412  12.818 -0.2936  0.0661  0.0353
24513W        W41361  13.159  17.841   1.292 -0.1755 -0.0906  0.0103
24514W        W41362  13.685   7.374   3.901  0.0712 -0.0213 -0.0043
24515W        W41363  17.044  12.408  15.547  0.3193  0.1406 -0.1017
24516W        W41364   7.950  13.957  15.254 -0.2105 -0.1478 -0.1309
24517W        W41365   9.834   9.328  16.111  0.0637  0.0352 -0.0737
24518W        W41366   7.690  15.423   5.188  0.1431 -0.1530  0.0619
24519W        W41367  11.177   9.074  13.704  0.0137 -0.0764 -0.0788
24520W        W41368  15.687   7.326   4.223 -0.0208  0.1550 -0.1266
24521W        W41369   3.173  15.379   1.583 -0.2012  0.2110 -0.0511
24522W        W41370   8.399  16.797  14.685 -0.1315 -0.0346 -0.0506
24523W        W41371  13.604   2.507   0.609  0.2094  0.2181  0.1201
24524W        W41372   0.426   3.230   3.554 -0.2676  0.1039  0.0117
24525W        W41373   2.697  14.401   5.345 -0.0059 -0.0018  0.0449
24526W        W41374  13.334  12.118  14.404  0.1679  0.1188 -0.1069
24527W        W41375   4.931  12.516   4.166  0.0671 -0.0971  0.2123
24528W        W41376   8.002  13.592   0.970  0.0826  0.2125 -0.1240
24529W        W41377  10.597   2.028  15.332 -0.2652  0.1600 -0.0066
24530W        W41378  14.139  12.107   1.067  0.0400 -0.3355 -0.0233
24531W        W41379   2.734  16.014   3.189  0.0518  0.2299  0.0541
24532W        W41380   5.551  14.184  11.345 -0.0649  0.0304  0.0628
24533W        W41381   2.806   3.407  14.012 -0.3606  0.0993  0.2096
24534W        W41382   4.741   3.247  16.053 -0.0654 -0.1662  0.1063
24535W        W41383   0.329   7.367  11.602 -0.0993 -0.3167 -0.1114
24536W        W41384  12.731  12.454   1.577  0.0833  0.0023  0.2403
24537W        W41385  16.106   9.755  11.133  0.0328  0.0832 -0.0678
24538W        W41386  14.710   7.827  16.043 -0.0888 -0.1539 -0.0704
24539W        W41387  15.278   3.819  14.381 -0.0813  0.0153  0.0558
24540W        W41388   9.589   9.736  14.368  0.0895  0.0367 -0.0977
24541W        W41389  15.784  17.762   2.683 -0.0904  0.2349 -0.0845
24542W        W41390  17.790  13.867  16.045  0.1645  0.0717 -0.2285
24543W        W41391   1.895   4.702  15.466 -0.2058 -0.0248  0.0427
24544W        W41392   2.177  10.059   5.358 -0.3553  0.2067 -0.3249
24545W        W41393   2.684   4.071   1.729  0.0106  0.0328 -0.1610
24546W        W41394   3.533   8.471  14.083  0.2970 -0.0135 -0.1637
24547W        W41395   6.517   6.157  14.092  0.3032  0.2097 -0.0881
24548W        W41396  11.730  11.807  13.810 -0.1865 -0.1723 -0.1941
24549W        W41397   7.620  10.360  14.157 -0.3017  0.2940  0.0466
24550W        W41398  10.873   5.118  15.402  0.2512 -0.2301 -0.0493
24551W        W41399   1.924  10.326  12.632  0.2210  0.0080  0.3044
24552W        W41400   3.936   9.589   3.780 -0.0090 -0.0284  0.2274
24553W        W41401   0.774  16.431  11.832  0.2219  0.2094 -0.0016
24554W        W41402   4.332   5.307   1.365  0.0622 -0.0076  0.1133
24555W        W41403   1.095   0.671   4.117 -0.1635 -0.4423  0.1136
24556W        W41404  13.082  14.699   3.148 -0.0034  0.1137 -0.1586
24557W        W41405   1.544   3.708   1.829 -0.1935  0.0077  0.3637
24558W        W41406   8.656   5.613   5.265 -0.0034 -0.2816  0.2866
24559W        W41407   3.515   0.649  16.442 -0.0085 -0.0745 -0.3116
24560W        W41408  13.278  14.982  15.236 -0.4466  0.0989  0.1804
24561W        W41409   4.273  11.342  14.759  0.0359 -0.1189  0.0048
24562W        W41410   4.465   7.299   3.787  0.0202 -0.0787  0.1883
24563W        W41411   3.049  13.497  14.807  0.4052  0.0207  0.0623
24564W        W41412  16.111  14.287  11.089  0.0506  0.2857 -0.4660
24565W        W41413  15.961   5.231   4.061  0.1356  0.0221  0.1290
24566W        W41414   0.374  12.569  14.964  0.1030  0.0067 -0.0842
24567W        W41415   0.326   1.832  12.711 -0.2798  0.2596  0.1755
24568W        W41416   7.593  13.308  14.051 -0.2922  0.1294  0.1668
24569W        W41417   4.265   3.809  14.998 -0.1578  0.2236  0.1100
24570W        W41418   2.158   4.184  11.397  0.0759  0.0014  0.2254
24571W        W41419  14.683  10.195   3.875 -0.2500 -0.0803  0.1280
24572W        W41420   3.518   4.600   4.737 -0.0320 -0.1901 -0.3504
24573W        W41421  12.721   4.231  12.612  0.0710 -0.3122 -0.0564
24574W        W41422   7.791   6.611  11.710 -0.0626  0.0689 -0.1206
24575W        W41423   3.642  13.627   4.156  0.0954 -0.1802 -0.1149
24576W        W41424   4.014  14.518  13.217 -0.1204  0.0190  0.0616
24577W        W41425  16.546  14.206  15.361  0.1178  0.0095 -0.2447
24578W        W41426   8.045   2.361  11.871  0.1104 -0.0965 -0.1949
24579W        W41427  14.001  17.605   4.263 -0.1778 -0.0267 -0.1725
24580W        W41428   8.715  11.026   3.186 -0.1928  0.2525 -0.1526
24581W        W41429   8.738   6.961  14.623 -0.0553  0.1325  0.0489
24582W        W41430   6.411  10.941   1.841 -0.1714 -0.1189 -0.4128
24583W        W41431   6.565  17.870  12.155  0.0458 -0.0840 -0.3363
24584W        W41432   8.579   6.976   1.504  0.1487 -0.2972  0.0488
24585W        W41433   5.259  17.329   5.163 -0.2887 -0.1645 -0.3776
24586W        W41434  12.866  13.804   0.939  0.0274 -0.0196  0.2015
24587W        W41435   5.520   7.155  13.911  0.2360 -0.0569 -0.1895
24588W        W41436  14.224   7.569   0.610 -0.3568 -0.2549  0.1103
24589W        W41437  13.027  11.011  15.698 -0.2237 -0.1306 -0.1697
24590W        W41438   1.223   9.454  13.271 -0.0404  0.0714  0.3912
24591W        W41439   2.915  15.660  14.375  0.2860 -0.1171 -0.1845
24592W        W41440   5.203  14.718   0.858  0.0644  0.0614 -0.1855
24593W        W41441  10.955  14.793  14.508 -0.3147 -0.0208 -0.2321
24594W        W41442   8.874   6.389   5.547  0.1875 -0.0670 -0.0534
24595W        W41443   5.960   6.311   1.943 -0.0537 -0.1472 -0.0091
24596W        W41444  10.221   9.814  11.777 -0.1320  0.4174 -0.1939
24597W        W41445   4.856   3.872   0.236 -0.0518 -0.1624 -0.1412
24598W        W41446   1.966  14.820  16.051 -0.2856  0.0707  0.1525
24599W        W41447  17.702  15.971  15.873 -0.3025  0.1234  0.0519
24600W        W41448  17.443   8.346   5.404  0.0136  0.1501  0.0419
24601W        W41449   3.455  13.563  15.749  0.3710 -0.0595  0.0292
24602W        W41450  12.270  16.305   3.060  0.0777 -0.1353 -0.0337
24603W        W41451   2.478   8.978  15.131 -0.1207  0.1514 -0.0462
24604W        W41452   9.599  13.529  13.414 -0.0089 -0.0986 -0.3247
24605W        W41453   6.442  13.600   3.021  0.1259  0.0662  0.2072
24606W        W41454   0.506   2.522   0.278 -0.0431  0.1337  0.1364
24607W        W41455  15.278   8.485  13.847 -0.0584  0.1845  0.1282
24608W        W41456  17.546   2.518   0.866 -0.0656  0.1486 -0.3146
24609W        W41457  16.296  12.391  15.003 -0.0546  0.2867  0.3264
24610W        W41458   6.893   1.771   0.898  0.0529 -0.0297 -0.2925
24611W        W41459  17.046  15.455  14.213  0.0325 -0.0844  0.1229
24612W        W41460   1.459  15.289   0.717 -0.0493 -0.1304  0.0358
24613W        W41461   8.291  13.381  13.194  0.0782  0.0815  0.1634
24614W        W41462  11.650   5.613   2.145 -0.1390 -0.1189 -0.1079
24615W        W41463   1.783   5.704   0.030  0.0967 -0.1473 -0.1983
24616W        W41464   5.079  17.413  10.986  0.4234  0.2336 -0.0034
24617W        W41465   2.769   4.536   0.614  0.1737  0.1885  0.0815
24618W        W41466  14.424   9.783  14.439  0.0650  0.2378  0.2268
24619W        W41467   8.210  16.858   1.750 -0.2248 -0.2809  0.2608
24620W        W41468   6.595  16.537  13.385 -0.3084 -0.1541  0.0742
24621W        W41469   0.418   1.213   3.203  0.0254 -0.1322  0.0865
24622W        W41470   9.621  14.759   4.614 -0.4039 -0.0399 -0.2054
24623W        W41471  12.560   4.057   4.702  0.0590  0.0795  0.1676
24624W        W41472   6.474  11.255   4.361  0.1649  0.2274  0.1390
24625W        W41473  14.892   9.847   5.097 -0.0208  0.0389  0.0532
24626W        W41474  15.449   1.120   0.795  0.0242 -0.4370 -0.0186
24627W        W41475  11.097   4.429   4.817 -0.0271 -0.1113  0.0669
24628W        W41476  16.752   5.420  11.584  0.1065  0.1277 -0.4354
24629W        W41477  14.115  13.783  12.434 -0.1568  0.0202  0.0784
24630W        W41478  14.890   1.336   4.959 -0.3254  0.0516 -0.2086
24631W        W41479  15.404   8.148  12.283  0.0080  0.0763 -0.1880
24632W        W41480   9.064   0.619   4.940 -0.0806  0.0987  0.3133
24633W        W41481  14.456   6.559   0.142 -0.0490  0.3735  0.1674
24634W        W41482   5.563  13.686   1.554  0.2477  0.1825 -0.1510
24635W        W41483  14.831  11.006   4.172  0.3010 -0.1722 -0.1390
24636W        W41484  15.485   6.868   5.043  0.3472 -0.2456 -0.0700
24637W        W41485   5.536   3.926   3.171  0.2594 -0.1837  0.2603
24638W        W41486  15.014   2.366   1.602  0.0311  0.2418 -0.2150
24639W        W41487   9.446   7.497   4.513  0.2327 -0.1627 -0.0006
24640W        W41488  10.738   8.041   4.541  0.2673  0.0348  0.1235
24641W        W41489   7.661  13.982   5.283 -0.2479 -0.0981 -0.0514
24642W        W41490  15.958   0.785   1.834  0.1637 -0.2391  0.2620
24643W        W41491   2.756  12.186   5.053  0.1672  0.0019 -0.0894
24644W        W41492  15.824  10.052  11.461  0.0893  0.1669 -0.0902
24645W        W41493   3.117   0.211  10.540  0.0254  0.0511  0.2387
24646W        W41494  12.332   3.235  15.151  0.2460 -0.2364  0.1764
24647W        W41495   5.364   1.522   3.228  0.0916 -0.1959 -0.0534
24648W        W41496   4.837  11.770  15.474 -0.2677  0.1443  0.0624
24649W        W41497  13.288  11.653   0.116  0.0792  0.1051 -0.0296
24650W        W41498   1.551   9.734   2.049  0.1069 -0.1667 -0.0137
24651W        W41499  11.366   4.484  11.985  0.2535  0.0092  0.1843
24652W        W41500   1.502   1.999   4.627  0.1333  0.1013 -0.3925
24653W        W41501   7.797   8.801   2.388  0.2693  0.0632 -0.1351
24654W        W41502   0.910  14.687  15.845  0.0647 -0.0255  0.2932
24655W        W41503  17.401  15.101   5.418 -0.3794 -0.1510 -0.0062
24656W        W41504   2.182  14.208  15.599  0.0930  0.2692  0.3024
24657W        W41505   0.327   8.883  12.574  0.2156  0.0059 -0.1085
24658W        W41506   7.068   0.245   2.219  0.1025  0.1137  0.0418
24659W        W41507  13.899   4.177  15.654 -0.2944 -0.1967  0.0847
24660W        W41508   3.609   9.615  15.223  0.3337  0.0688 -0.0376
24661W        W41509   3.881  13.983  12.924  0.0374 -0.0800 -0.0061
24662W        W41510  10.290   1.224  11.845 -0.0896 -0.1892 -0.2155
24663W        W41511  11.631   5.157   2.017  0.4137  0.0649  0.2736
24664W        W41512   9.928   4.705   3.539  0.0408 -0.0146 -0.0009
24665W        W41513   5.038   9.493  14.192 -0.0402 -0.0221 -0.0256
24666W        W41514   6.155  16.236  14.068 -0.2169 -0.1845  0.4503
24667W        W41515  17.036  15.855   3.294  0.3185  0.1843  0.1716
24668W        W41516   3.555   4.863   4.363 -0.1892 -0.0534  0.0608
24669W        W41517  14.789  13.387  11.384  0.0838 -0.3768  0.3460
24670W        W41518   2.948   4.958  11.342 -0.3400  0.0391  0.1194
24671W        W41519   3.848   6.395  15.923  0.3232  0.0346 -0.0726
24672W        W41520   1.024   0.641  11.227 -0.0169 -0.2490 -0.3108
24673W        W41521  15.420  12.051   3.277  0.0236  0.1154  0.0096
24674W        W41522  16.336  17.676  10.605 -0.0766  0.0944 -0.0076
24675W        W41523   3.481  16.990  16.109  0.1582  0.1135  0.1837
24676W        W41524  12.649   7.336  14.952  0.1067 -0.1740  0.0469
24677W        W41525   4.607  10.890   1.607 -0.1711 -0.0173 -0.3579
24678W        W41526   1.623  11.534   4.182  0.3082  0.3077  0.0802
24679W        W41527   1.471  17.832   2.986 -0.1274  0.2489  0.3179
24680W        W41528  12.856  16.554  12.589 -0.1692  0.0272 -0.0729
24681W        W41529   6.975   1.277   1.136  0.1538 -0.1466 -0.0583
24682W        W41530   4.100   8.738   3.467 -0.1800  0.3499 -0.0259
24683W        W41531  13.868  10.239   5.899  0.1495  0.6390 -0.1883
24684W        W41532   6.797  16.043   1.232 -0.2813 -0.0627  0.1030
24685W        W41533  14.703  13.366  13.243  0.3393  0.1040 -0.0696
24686W        W41534  13.390  14.091  14.810  0.1869 -0.0112  0.0594
24687W        W41535  15.707  16.342   3.319 -0.0978  0.1191  0.2277
24688W        W41536   9.404  10.787   0.721 -0.0254  0.0211  0.0880
24689W        W41537   6.988   0.773   4.140  0.0740  0.0671 -0.3252
24690W        W41538   5.153  16.375   5.227 -0.1835  0.2975 -0.3681
24691W        W41539  17.164   4.853   5.255  0.1554 -0.0425  0.0338
24692W        W41540  12.609  14.198  12.919 -0.1832 -0.0325  0.1518
24693W        W41541   9.462   6.113  16.461  0.0982 -0.0516 -0.0729
24694W        W41542   7.290   8.050  10.959 -0.1752  0.2721 -0.2339
24695W        W41543  13.536  15.533  12.032  0.1781 -0.2069 -0.0772
24696W        W41544  14.476   6.428   3.333 -0.1375 -0.0803  0.0079
24697W        W41545   2.396  11.809   4.921 -0.0251  0.1243 -0.1520
24698W        W41546  15.107   1.922   0.448  0.0132 -0.0607  0.0490
24699W        W41547  11.416  16.707  12.034  0.2915 -0.0952 -0.0456
24700W        W41548   1.000   5.540   3.889  0.3389 -0.2501 -0.1077
24701W        W41549  14.879  11.539   3.940 -0.2022  0.2278 -0.0454
24702W        W41550   2.409   0.848   2.606 -0.3385 -0.0266  0.0802
24703W        W41551   4.600   9.987   2.501 -0.3976  0.0978 -0.1637
24704W        W41552  10.413   1.617   4.585  0.0604  0.3098  0.1464
24705W        W41553   5.761   4.642   1.640 -0.0025  0.1623  0.2230
24706W        W41554   7.756  14.427  13.112 -0.0619  0.0388  0.0825
24707W        W41555  15.437   9.372  16.317  0.2715  0.0581  0.0875
24708W        W41556   4.526  14.344  14.190  0.1666 -0.0438 -0.3130
24709W        W41557   4.957  15.845   5.367  0.1831  0.4590  0.2503
24710W        W41558  15.086  14.199   2.384  0.5587  0.4393 -0.0941
24711W        W41559  10.694   8.829  16.094  0.0724 -0.0023 -0.0934
24712W        W41560  15.426  16.714  10.987  0.4411 -0.0149  0.1157
24713W        W41561  15.543  12.308   4.715  0.4349  0.1336  0.0214
24714W        W41562  11.603  14.622   0.617 -0.1936  0.1551 -0.3972
24715W        W41563   2.662   0.388  13.586  0.2146  0.0488 -0.0829
24716W        W41564  12.336  12.108   3.171 -0.0318  0.1256 -0.1680
24717W        W41565   7.297   9.128   3.675  0.0673  0.0249 -0.0518
24718W        W41566  15.281   4.722   3.585 -0.1483 -0.0326 -0.0103
24719W        W41567  13.932   6.299  16.200 -0.2567 -0.1989  0.1593
24720W        W41568   9.595  12.110   4.360 -0.0530  0.3616 -0.0942
24721W        W41569   0.008   7.172  14.161  0.0253  0.4052  0.1782
24722W        W41570  12.542  15.157  14.520 -0.1597 -0.1079  0.0744
24723W        W41571  12.588   2.527  11.479 -0.2031  0.2134  0.0890
24724W        W41572  12.197  17.279   1.369 -0.0439 -0.0949  0.0810
24725W        W41573  14.651   1.359  11.918  0.0473  0.3391 -0.1376
24726W        W41574  12.168   3.309  11.711 -0.0963 -0.2796 -0.1941
24727W        W41575  12.755   9.174  13.002 -0.0324  0.1440  0.0206
24728W        W41576  11.437   0.008  14.533 -0.2384  0.1097 -0.0668
24729W        W41577  13.296  13.874   2.694  0.1345  0.0136  0.1517
24730W        W41578   8.032  17.235  13.968  0.0206  0.2359 -0.1420
24731W        W41579   5.684   8.943  13.617 -0.1558  0.1512 -0.0219
24732W        W41580   4.668  11.243  13.797 -0.1493 -0.1661  0.0778
24733W        W41581  12.766   1.380   3.910  0.0071  0.1853  0.2600
24734W        W41582  15.230   8.088  13.485  0.0842  0.1957  0.0731
24735W        W41583  12.608  11.346  11.559  0.2491 -0.1026 -0.1618
24736W        W41584  17.591  12.124  11.569 -0.1663 -0.1061 -0.0255
24737W        W41585  11.441   1.192  15.871 -0.2951 -0.1301 -0.0540
24738W        W41586  15.129  10.912   5.115  0.2384 -0.0380  0.0051
24739W        W41587   2.075  16.235   1.443  0.0113 -0.1623  0.1214
24740W        W41588   6.267  10.968   0.732 -0.1189  0.2544  0.0455
24741W        W41589   6.208   1.708   4.045 -0.0565 -0.0204  0.2146
24742W        W41590  10.292   9.144   3.526 -0.0930 -0.2183  0.0471
24743W        W41591  13.834  12.861   0.355  0.0347 -0.1729  0.0462
24744W        W41592  17.409   0.828   2.992  0.1226  0.1560 -0.2297
24745W        W41593   3.598   1.744  13.681  0.0004  0.1417 -0.1598
24746W        W41594   6.993   9.407  15.491 -0.2438 -0.4353  0.1390
24747W        W41595   6.209   9.291  14.464 -0.1494  0.1223  0.1298
24748W        W41596  16.467  10.684  15.294  0.0715 -0.5178  0.1121
24749W        W41597  12.987   5.674   3.958 -0.3859  0.0873  0.2139
24750W        W41598  14.843   8.496   3.463  0.0190 -0.0267  0.0616
24751W        W41599   5.831   0.706   3.228 -0.0651  0.3065 -0.0267
24752W        W41600   0.802   5.116  16.233 -0.0298 -0.2510  0.0520
24753W        W41601   5.886   4.937   0.490 -0.0671 -0.0019  0.2640
24754W        W41602   4.968   6.247  14.725 -0.0907 -0.1257  0.1213
24755W        W41603   2.564   7.261   5.589 -0.1940 -0.2556 -0.3695
24756W        W41604   2.635   7.389   3.633 -0.1328 -0.0440 -0.1430
24757W        W41605   5.981  17.222   4.140 -0.3499  0.1296 -0.0589
24758W        W41606   8.884   4.800   4.584 -0.0178 -0.0964 -0.2378
24759W        W41607  15.350  15.149   3.131 -0.0696  0.4399  0.1293
24760W        W41608   6.535   5.954  16.093  0.0648  0.0175  0.3015
24761W        W41609   6.347   6.795  12.682 -0.0002  0.0775 -0.1286
24762W        W41610   9.307  11.765  14.938 -0.0820  0.2956  0.3930
24763W        W41611   9.466  11.116   3.849  0.1943  0.3395 -0.0445
24764W        W41612  15.991  14.156   0.220 -0.2416 -0.2496 -0.0569
24765W        W41613  17.016  16.308   0.720  0.2406 -0.0320 -0.0198
24766W        W41614   7.876  17.777   0.041  0.1049 -0.2849  0.1998
24767W        W41615  13.386   1.080  12.442 -0.2927 -0.0681 -0.3861
24768W        W41616   4.674   4.370   1.155 -0.1711 -0.0110 -0.1320
24769W        W41617   9.380   8.473  12.425 -0.2482 -0.2888 -0.1184
24770W        W41618  10.151  11.894   1.750  0.1704 -0.0519  0.0500
24771W        W41619  15.178  11.524   1.353 -0.2677  0.0614 -0.0406
24772W        W41620  16.874   3.043  14.072  0.0677 -0.0326 -0.1284
24773W        W41621  11.597   9.132   2.141 -0.1199  0.1311  0.3741
24774W        W41622   9.927  17.861   5.529  0.2688  0.3650  0.0099
24775W        W41623   1.896  15.064   2.551 -0.1698 -0.0006 -0.1412
24776W        W41624   9.196   1.023   0.725 -0.1813 -0.1948  0.0456
24777W        W41625   1.939   6.127  14.989  0.3115  0.1241 -0.0132
24778W        W41626  10.389   6.210  11.389 -0.0494 -0.1137  0.5246
24779W        W41627  11.393  14.095   3.990 -0.2543  0.2617 -0.1252
24780W        W41628   2.708   6.636   2.470  0.3458 -0.3173 -0.0431
24781W        W41629  11.404  11.532   3.817 -0.0374 -0.1635  0.1389
24782W        W41630   4.515   7.780   1.222  0.0115  0.2010 -0.0548
24783W        W41631  16.202  10.280   0.525 -0.2597  0.1229 -0.0675
24784W        W41632   6.431  12.560   1.476 -0.4032 -0.2413  0.0305
24785W        W41633  14.506   4.324   1.442 -0.3144  0.1678  0.0422
24786W        W41634  17.702   3.836   3.890 -0.0148  0.1015 -0.0054
24787W        W41635  13.052  10.575  12.996 -0.1985 -0.0048  0.2179
24788W        W41636  11.072   0.276   3.696 -0.1117  0.1952  0.2408
24789W        W41637  17.623   0.947  14.699 -0.0395 -0.1711 -0.2818
24790W        W41638  14.874   9.036  15.962 -0.0663 -0.0190 -0.2713
24791W        W41639   3.630  14.172   4.974 -0.1500 -0.1069 -0.0826
24792W        W41640   7.518   1.569   3.574 -0.1215 -0.0113  0.1789
24793W        W41641  12.776   6.056   0.386 -0.0665  0.1633  0.1471
24794W        W41642  10.693  16.553   5.098 -0.2681 -0.0539  0.1743
24795W        W41643   3.170  15.573   4.615  0.1496 -0.3226  0.0498
24796W        W41644  14.291   8.468  12.426  0.0262  0.0094  0.0446
24797W        W41645   8.030  13.762   4.560  0.3023 -0.1798  0.1071
24798W        W41646  17.044   1.797   0.398 -0.2184 -0.0439  0.0432
24799W        W41647   0.618   4.942  11.114  0.1139  0.0310 -0.1438
24800W        W41648  15.028   2.459  15.002 -0.1162  0.1656 -0.1774
24801W        W41649  14.522  15.941   4.396 -0.3681  0.0676  0.1272
24802W        W41650  10.866   2.262   2.571  0.1090 -0.0986 -0.0569
24803W        W41651  10.301   5.743  14.964 -0.1228 -0.1375 -0.2108
24804W        W41652   3.949   2.892   3.471 -0.1673  0.3953 -0.0480
24805W        W41653   3.654   0.568  12.816  0.1706 -0.2104 -0.1003
24806W        W41654   2.794   4.726  12.143 -0.1209 -0.0498  0.0747
24807W        W41655  13.107   9.418  13.975  0.1438  0.0208 -0.0677
24808W        W41656  10.810   6.428  15.567 -0.0502 -0.1126 -0.1123
24809W        W41657   2.363  11.884   3.877 -0.1277 -0.3151  0.1551
24810W        W41658   4.919   4.768  14.215  0.3598  0.1159 -0.0149
24811W        W41659  12.556  17.640  11.951  0.0044 -0.2091  0.2504
24812W        W41660   6.763  10.491   0.768  0.2261 -0.2833  0.1283
24813W        W41661   1.816   0.755  12.516  0.1890  0.0144 -0.2579
24814W        W41662  12.923  17.079  13.561  0.0546  0.0279  0.0970
24815W        W41663   1.559   3.287  12.932 -0.0392 -0.0064 -0.0679
24816W        W41664   8.511  17.344   3.118  0.0508 -0.0082  0.0283
24817W        W41665  10.211  10.397  11.800 -0.0298 -0.0518 -0.0059
24818W        W41666   1.084  10.807  13.516  0.1494  0.1480  0.1582
24819W        W41667  13.300  17.744  15.174 -0.0412  0.0112  0.1284
24820W        W41668   5.142  10.121  14.195 -0.0402 -0.1044  0.4290
24821W        W41669   0.412   0.818  10.484  0.0401 -0.2382  0.2719
24822W        W41670   3.414   2.021   1.853  0.1277 -0.1578 -0.0796
24823W        W41671  17.365  16.218  14.110 -0.0988 -0.1569  0.2202
24824W        W41672   3.669   1.045  16.195  0.3243 -0.1721  0.0214
24825W        W41673   3.907  17.672   1.781  0.0115  0.1284 -0.0105
24826W        W41674   2.073  17.755  12.168  0.1963 -0.0742 -0.0713
24827W        W41675   8.054  13.404   3.710  0.1006  0.1872 -0.0131
24828W        W41676  17.465   6.053   3.591 -0.0042  0.0017 -0.0134
24829W        W41677  13.029   4.873   2.073  0.0807 -0.2248  0.0763
24830W        W41678   7.773   1.911  12.013 -0.0120  0.0655  0.0200
24831W        W41679  14.482  15.521   4.105 -0.1798  0.3112  0.1441
24832W        W41680   3.221   4.969  16.384 -0.1728  0.2229 -0.2443
24833W        W41681  15.508   3.544  13.756 -0.0888 -0.2663  0.0477
24834W        W41682  16.771   2.568  12.456 -0.1714 -0.0285 -0.3990
24835W        W41683   7.021  14.245  13.382  0.2815 -0.0102 -0.0767
24836W        W41684   3.704  11.058   0.455 -0.1305 -0.1405 -0.1076
24837W        W41685  11.023   7.908  14.481  0.1788 -0.0473  0.3690
24838W        W41686   4.597   7.957  11.680 -0.0136 -0.3691 -0.1416
24839W        W41687  12.858   7.533   1.814  0.0193  0.0243 -0.0257
24840W        W41688   4.510   7.175   0.983  0.1064  0.2534  0.2038
24841W        W41689  14.518  17.556   4.328 -0.1477  0.0753  0.0240
24842W        W41690   2.201  10.494   4.381 -0.0170 -0.1926 -0.2806
24843W        W41691  12.447  17.110  13.331 -0.1707 -0.0679 -0.1640
24844W        W41692  12.206   8.153   3.597  0.1817  0.1809 -0.0520
24845W        W41693  11.117  16.313   0.909  0.1304 -0.1058 -0.0744
24846W        W41694   5.422  16.805   1.355 -0.1764  0.1205  0.1032
24847W        W41695   8.016  14.557   1.610  0.2498 -0.1251  0.1085
24848W        W41696  15.023  15.836  16.202  0.0157 -0.2834 -0.2401
24849W        W41697   1.104   4.291   4.272  0.0719 -0.0957 -0.3090
24850W        W41698   5.861   3.642   2.024  0.0079  0.0340 -0.0057
24851W        W41699   4.321   1.984   3.884  0.2663  0.0753  0.0034
24852W        W41700   0.340  16.489   2.320  0.3019 -0.1473 -0.1583
24853W        W41701  13.388   0.392  15.381  0.1170  0.1933  0.0229
24854W        W41702  15.676  15.915  13.471 -0.1150  0.1827  0.0153
24855W        W41703   4.844  10.808  14.334  0.0404  0.1811  0.1194
24856W        W41704   4.905   6.194   2.969 -0.0401 -0.1369  0.0126
24857W        W41705  10.502   1.312  15.270  0.2088  0.0861 -0.2034
24858W        W41706  15.070  12.039   3.770 -0.2006  0.1208  0.1215
24859W        W41707  16.415   0.707  15.615  0.1863 -0.3545  0.0674
24860W        W41708   0.715   9.831  16.067  0.0566 -0.0437  0.0022
24861W        W41709   8.655  14.189  11.348 -0.1884  0.0178 -0.0612
24862W        W41710   6.373  17.006   1.994 -0.0536 -0.0371 -0.3222
24863W        W41711  11.088  17.615  13.807 -0.0465  0.0589 -0.3858
24864W        W41712  12.749   7.273   2.751 -0.0007  0.0199  0.0153
24865W        W41713   3.320  12.031   4.599  0.0507  0.1986 -0.4926
24866W        W41714  16.441  10.524  13.056 -0.3245 -0.0216  0.0444
24867W        W41715  16.497   6.857  12.125  0.2342 -0.0375 -0.0541
24868W        W41716   3.706   2.678   5.673  0.3567  0.2287 -0.3291
24869W        W41717   6.225   3.329   2.999  0.0773  0.1353 -0.1334
24870W        W41718   4.536   0.879   4.386 -0.2226 -0.1388  0.3080
24871W        W41719   7.343   0.017  13.474 -0.0524  0.0555 -0.1284
24872W        W41720   8.360   9.005  16.046 -0.0055  0.4578 -0.0544
24873W        W41721   2.632   4.838  11.700  0.0724  0.1046  0.0800
24874W        W41722  11.950   1.080  16.117  0.0218  0.1844  0.0768
24875W        W41723   7.311   6.024  12.326 -0.0787 -0.0567 -0.1482
24876W        W41724   4.170  14.393   3.696 -0.0386  0.0673  0.1947
24877W        W41725   9.252  15.401  10.884  0.2979 -0.0104  0.1962
24878W        W41726   6.828  14.623  13.612  0.1656  0.0977 -0.0199
24879W        W41727  12.390  14.895  12.468  0.1181 -0.0381 -0.0573
24880W        W41728   9.486   1.382  12.147 -0.0270 -0.1216 -0.0071
24881W        W41729   0.408  16.704  15.279  0.1699  0.0983 -0.0105
24882W        W41730  12.939   7.239   3.207 -0.0088 -0.0134  0.0215
24883W        W41731   0.360  14.472  13.492  0.0237  0.1558  0.2595
24884W        W41732  17.739   3.798   0.484  0.2656  0.0160 -0.0917
24885W        W41733   5.080   5.433   5.619  0.1868  0.2805  0.1610
24886W        W41734  16.925   7.651  14.341 -0.1864  0.2666 -0.0235
24887W        W41735  15.829   2.809  15.230  0.0347  0.0264  0.0952
24888W        W41736  10.779  13.866  12.646  0.7190 -0.3466 -0.2276
24889W        W41737   0.767   3.528   0.902  0.2763 -0.1400 -0.1639
24890W        W41738   3.229  14.866  12.689  0.0552  0.1197 -0.0339
24891W        W41739   6.358  13.143   5.527  0.1036 -0.1062 -0.3115
24892W        W41740  14.129   9.220   5.874  0.1051  0.0329 -0.1313
24893W        W41741  15.828   1.544   4.058  0.1431 -0.0231 -0.1862
24894W        W41742  16.063   6.170   1.833  0.0344  0.1904  0.0958
24895W        W41743  14.618   2.423   4.753 -0.3830 -0.3073 -0.2053
24896W        W41744   4.858  16.779   2.890  0.2093 -0.1355  0.2638
24897W        W41745   1.015   6.173  12.443  0.0170  0.0146 -0.0410
24898W        W41746   1.808   8.334  15.772  0.1259 -0.0605 -0.2585
24899W        W41747   6.107   4.197   5.071 -0.2066  0.1228  0.1836
24900W        W41748  10.851  14.556   2.701  0.0659  0.1857 -0.1425
24901W        W41749  10.702   8.190   4.050 -0.0103  0.4220 -0.0582
24902W        W41750  12.483  10.893  14.567 -0.1114  0.3092 -0.2093
24903W        W41751  17.463   3.018   5.593 -0.0285 -0.2045 -0.2286
24904W        W41752   0.576  10.290  16.240  0.0355 -0.0680 -0.1112
24905W        W41753   9.837  15.319  13.437  0.1754 -0.0895  0.0306
24906W        W41754  14.096   0.743   0.651 -0.1140 -0.2417  0.0273
24907W        W41755  12.310   7.446   1.890 -0.1838  0.0905  0.1774
24908W        W41756  12.000  16.021  15.495  0.1985  0.1851  0.1689
24909W        W41757  15.464  16.319  15.665  0.2642 -0.1428  0.0249
24910W        W41758  12.318  15.071   1.918  0.0207  0.0624 -0.2276
24911W        W41759   8.379   6.940  16.311  0.0242  0.5290  0.3672
24912W        W41760   0.831   6.467  14.250 -0.1812 -0.2609 -0.2182
24913W        W41761   9.776   4.756  14.344  0.3641 -0.0131  0.0432
24914W        W41762  11.329   7.133   6.208 -0.0130  0.0024 -0.1546
24915W        W41763  13.785  14.874   1.342 -0.0908 -0.1515  0.1808
24916W        W41764   4.874  16.948   4.985 -0.1536 -0.4109 -0.1984
24917W        W41765   0.439  13.882   4.481  0.1297  0.4308 -0.1348
24918W        W41766  12.095  14.476   0.753 -0.0571  0.1441 -0.2450
24919W        W41767   0.697  10.030   1.563  0.3467 -0.1491  0.0455
24920W        W41768   5.041   6.432   1.512 -0.0075  0.0041 -0.0470
24921W        W41769   7.028  10.554  12.727 -0.0740  0.0856 -0.1073
24922W        W41770  12.503   6.848   1.210  0.0672  0.2064  0.1489
24923W        W41771  13.643   0.337  14.342 -0.2466 -0.0084 -0.1189
24924W        W41772   4.887  11.669  14.662  0.2348 -0.1069 -0.0119
24925W        W41773   3.102  16.355   2.960  0.4477  0.2558 -0.2221
24926W        W41774   9.906  14.116   0.274 -0.2602 -0.2748 -0.0347
24927W        W41775   6.855   4.927   2.122  0.4500 -0.0116  0.1593
24928W        W41776   1.394  15.642  11.618  0.1612  0.0352 -0.2540
24929W        W41777  17.559   5.866  13.263  0.1331  0.0758 -0.0915
24930W        W41778   9.380  11.486  12.458  0.0466 -0.0189  0.3933
24931W        W41779   1.215   5.391  12.746  0.0383 -0.0816  0.0693
24932W        W41780  15.796  15.051  16.403 -0.1628 -0.1089 -0.0002
24933W        W41781   2.545   3.113   3.631 -0.2559 -0.2488  0.0407
24934W        W41782  11.581   6.694  14.853 -0.2247  0.1995  0.0178
24935W        W41783   1.687   5.565  12.845 -0.1312  0.1658 -0.3370
24936W        W41784  16.341   9.862  15.788  0.1040  0.2690  0.2434
24937W        W41785   3.122   7.707   4.313 -0.0570  0.0243 -0.1554
24938W        W41786   7.071  17.221  16.240  0.1990 -0.0610 -0.0451
24939W        W41787   9.903   0.993  10.853 -0.1268 -0.0146 -0.2723
24940W        W41788  10.680   7.781  12.557 -0.2598  0.0818  0.0912
24941W        W41789   3.999   6.681  12.060  0.0592  0.2501 -0.3176
24942W        W41790  14.241   0.213  13.003  0.2294  0.0861  0.1926
24943W        W41791   2.279  13.391   2.951 -0.4562  0.0097 -0.0132
24944W        W41792   2.223  16.169  12.944  0.1051 -0.0275 -0.1250
24945W        W41793  11.819   4.284  14.049  0.1203 -0.0828 -0.1438
24946W        W41794  10.500   5.535   5.222  0.1043  0.3733 -0.0334
24947W        W41795   1.985  10.792   1.114 -0.0060 -0.1613 -0.4048
24948W        W41796   2.103  14.555  14.836 -0.2969 -0.1381  0.0911
24949W        W41797  13.831  13.177  11.709 -0.3185  0.0229  0.0021
24950W        W41798   6.409   8.546  13.070 -0.0822  0.1777  0.4578
24951W        W41799  13.817  12.663  14.053  0.0298  0.1435  0.0237
24952W        W41800   1.173   4.353  15.839 -0.2712  0.2358  0.0613
24953W        W41801  17.488   4.897  13.537  0.1737  0.3061  0.0021
24954W        W41802   1.389   2.309   2.052  0.0004 -0.1688  0.0656
24955W        W41803  13.007  14.901  11.452 -0.3150  0.1588 -0.1417
24956W        W41804  11.135   9.810  11.671  0.3422  0.0284 -0.0088
24957W        W41805  11.357   5.623  13.786  0.0738  0.0309 -0.1547
24958W        W41806   4.989  17.636   1.683  0.0005  0.4098  0.0180
24959W        W41807   9.311   1.824  12.421 -0.0997 -0.0072  0.1306
24960W        W41808   2.052   1.841   3.039  0.0045  0.1417 -0.1893
24961W        W41809   2.797  10.418   3.769 -0.0212 -0.0107 -0.2655
24962W        W41810   2.112   4.299   4.417 -0.1239 -0.1789  0.1280
24963W        W41811   1.872   5.225   0.435 -0.0257  0.2132 -0.3565
24964W        W41812   9.908   6.177   2.769  0.0418 -0.1335 -0.1420
24965W        W41813   7.508   0.866  11.878 -0.0665 -0.0459  0.0356
24966W        W41814   3.002  16.762  13.489  0.1470 -0.0126 -0.0776
24967W        W41815  16.283  15.518   1.092  0.0013  0.1151 -0.0131
24968W        W41816   1.874   0.829   1.701 -0.0426  0.2174  0.3206
24969W        W41817  12.186   7.274   1.325 -0.1149 -0.0771  0.3840
24970W        W41818   4.514   5.389   5.453 -0.0759  0.0184  0.2214
24971W        W41819   5.950   7.056   0.880  0.1285  0.2012 -0.1711
24972W        W41820  15.909  17.768  10.225 -0.0482 -0.0938  0.0027
24973W        W41821  12.989   5.322  15.213 -0.2733 -0.1837  0.1212
24974W        W41822  14.211  14.268   1.096  0.3550 -0.1189  0.2000
24975W        W41823  15.999   7.876  14.981  0.1717 -0.0572 -0.2337
24976W        W41824  10.771   0.131  13.710 -0.1719  0.1162 -0.0178
24977W        W41825  12.846  13.951  14.293 -0.1292 -0.0938  0.1572
24978W        W41826   9.817   4.930   4.337 -0.2077  0.0873  0.1499
24979W        W41827  15.034   1.514   0.003 -0.0018 -0.0732  0.0709
24980W        W41828   8.655  10.138  12.887  0.1724  0.0661  0.0881
24981W        W41829   6.828  12.875   1.726 -0.0104  0.2339 -0.0895
24982W        W41830  14.674   9.380   5.174 -0.1669 -0.3484  0.0558
24983W        W41831   7.621   1.103   2.759 -0.0116  0.0669 -0.2561
24984W        W41832  10.677   3.948   2.775 -0.0105 -0.3693 -0.1171
24985W        W41833  12.650   8.741   6.113 -0.1965  0.1676 -0.0439
24986W        W41834   2.909   0.222  15.878 -0.3893 -0.2317 -0.0010
24987W        W41835   0.982  12.457   2.139  0.2575 -0.1969  0.4319
24988W        W41836   5.402   2.583   2.139  0.0693  0.2828  0.2451
24989W        W41837  17.081  11.090  11.211 -0.0065  0.0302 -0.2524
24990W        W41838   1.959  11.722  12.548  0.0664  0.1968  0.4897
24991W        W41839  12.287   7.289   5.188 -0.0949 -0.1057  0.3341
24992W        W41840  12.612  13.160   5.092  0.1216  0.1575  0.0178
24993W        W41841  10.457   1.829  11.694 -0.2309  0.0227 -0.1044
24994W        W41842   5.322   1.108  13.211 -0.1059  0.0460 -0.0740
24995W        W41843   1.883   5.515  13.553  0.3182 -0.1597 -0.1749
24996W        W41844   8.996  14.626  15.300  0.1143  0.0297 -0.0793
24997W        W41845   9.425  10.050   3.106  0.0975  0.0198 -0.0739
24998W        W41846   0.376  10.757  15.562 -0.4509 -0.1669  0.2773
24999W        W41847   1.909  14.781  11.024 -0.1505 -0.0939  0.0845
25000W        W41848   6.839   5.417  13.726  0.0038  0.0690 -0.0737
25001W        W41849  14.685   2.875  11.321 -0.2469  0.0611 -0.0241
25002W        W41850   7.731   4.605  12.639 -0.2168 -0.2072 -0.0318
25003W        W41851  17.872  11.948   5.490 -0.6488 -0.3407 -0.1121
25004W        W41852   5.554  17.185   1.066 -0.0409 -0.1552 -0.0298
25005W        W41853   2.612   4.286  11.533 -0.1171  0.0519 -0.0080
25006W        W41854   0.961   2.053   1.916  0.2086 -0.2583  0.2797
25007W        W41855   0.018   0.496  13.861  0.2252 -0.2031  0.3745
25008W        W41856   7.934   8.039  13.254  0.1783  0.0794  0.0666
25009W        W41857  16.188  16.872  15.725 -0.0244 -0.1644  0.1083
25010W        W41858   0.494   8.445  14.216 -0.1071  0.1295 -0.1525
25011W        W41859   9.862  16.334  14.714 -0.1530  0.3255 -0.0906
25012W        W41860   3.019   9.171  13.880 -0.2520 -0.0494 -0.3042
25013W        W41861   1.626   3.880   0.951 -0.0592 -0.2068 -0.2100
25014W        W41862  14.521  15.495   4.608 -0.1036  0.0454  0.0427
25015W        W41863  13.865   7.061   4.292 -0.1165  0.2409  0.1270
25016W        W41864  10.003  14.056  13.246  0.2631 -0.1530 -0.0858
25017W        W41865   4.822  17.265  14.329  0.1364  0.1106  0.1358
25018W        W41866  17.648   5.906   1.172  0.4781 -0.0219 -0.2442
25019W        W41867   6.946  15.232   2.331  0.0681 -0.1465 -0.1502
25020W        W41868  17.204  11.451   3.345 -0.1077 -0.3821 -0.0407
25021W        W41869   9.530   2.774  14.412 -0.1387  0.3681 -0.1478
25022W        W41870  17.450  10.788  12.553 -0.1753 -0.2289 -0.0339
25023W        W41871  14.154   1.200   5.635 -0.1057  0.1053 -0.1419
25024W        W41872  13.982   9.139  16.455  0.4421 -0.0266  0.0604
25025W        W41873   3.841   6.732   0.482 -0.3536  0.1058  0.0755
25026W        W41874  17.096  15.788  15.972  0.0867 -0.1403  0.1023
25027W        W41875   6.669   2.561   3.449  0.0205  0.2718  0.2418
25028W        W41876   4.419   8.967  13.578  0.0515 -0.0998  0.0777
25029W        W41877   0.235   5.537   1.283  0.1163  0.0013 -0.0834
25030W        W41878   8.126   9.125  14.571 -0.1445  0.0214  0.1124
25031W        W41879  11.926   4.387  15.571  0.2933 -0.1804 -0.0204
25032W        W41880  12.905  17.167   2.005 -0.1405  0.2436  0.2660
25033W        W41881  10.376   5.103   4.672 -0.2329 -0.0033 -0.1031
25034W        W41882   6.590   8.370  14.911  0.2660 -0.0050  0.0709
25035W        W41883  12.887  15.238  12.368 -0.2041 -0.1789  0.4365
25036W        W41884   4.707   2.387  13.333  0.2608 -0.1896  0.2292
25037W        W41885   1.527   5.923   2.025 -0.2262 -0.0843 -0.2097
25038W        W41886  10.141   8.177   0.296 -0.2033  0.1036  0.1996
25039W        W41887   5.169  11.540   4.147 -0.0136 -0.0643 -0.0545
25040W        W41888   4.169  15.309  15.307 -0.0658 -0.3183  0.0742
25041W        W41889  14.247   1.166  12.055  0.1163 -0.2524 -0.1923
25042W        W41890  15.842  15.317   0.869  0.1768  0.0123 -0.1111
25043W        W41891  11.209  10.051   3.693 -0.0866  0.1428  0.0975
25044W        W41892   0.579   8.125   1.193  0.2624 -0.2698  0.0248
25045W        W41893  11.358   9.906   1.026 -0.0033  0.0337  0.1663
25046W        W41894   6.785  16.439   1.608 -0.4265  0.1175 -0.1368
25047W        W41895  10.947   0.092   3.200 -0.1629 -0.0262  0.0290
25048W        W41896  14.528   4.555  16.239 -0.1680 -0.5467  0.0428
25049W        W41897  11.096   8.834  14.643 -0.1349 -0.0888  0.0953
25050W        W41898  15.382  13.906   2.690  0.0331  0.0986 -0.1416
25051W        W41899   3.472   2.634  15.354  0.0022 -0.1397  0.0935
25052W        W41900  10.216  17.371  15.310 -0.1071 -0.1120  0.0392
25053W        W41901   4.070   8.418  15.679 -0.1138  0.1211 -0.1208
25054W        W41902   5.462  15.079  11.613  0.0164  0.1233 -0.0113
25055W        W41903   2.807  11.184   5.163 -0.3441 -0.1767  0.1174
25056W        W41904  14.957   8.202  11.473 -0.3353 -0.0656 -0.2147
25057W        W41905   3.433   3.901   4.057 -0.0402 -0.0340  0.0558
25058W        W41906  15.803  11.641   3.401 -0.0762  0.3572  0.0718
25059W        W41907   6.480   1.968  12.845 -0.0167  0.2561  0.3208
25060W        W41908  10.092  13.253  13.915 -0.1056  0.0373 -0.0100
25061W        W41909   5.795  17.148   0.540  0.1307  0.0634 -0.1217
25062W        W41910   8.671   5.464   3.229 -0.3123  0.1340 -0.3670
25063W        W41911   2.788   1.841   4.628 -0.0400 -0.1954 -0.1125
25064W        W41912  11.175  12.958   2.205 -0.0706 -0.1121  0.1377
25065W        W41913  14.886  15.420   3.718 -0.0936  0.0617 -0.4026
25066W        W41914  10.247  14.878  16.140  0.1678 -0.0613 -0.3660
25067W        W41915   8.383   7.452  16.327  0.2251 -0.0587 -0.1013
25068W        W41916   5.041  12.102   4.943  0.1047  0.0999 -0.0108
25069W        W41917   1.355   8.515  14.146 -0.2461 -0.2312 -0.1178
25070W        W41918  11.145  14.762  15.574 -0.1180 -0.1797 -0.0077
25071W        W41919   6.694   2.072   0.097  0.1963  0.2123  0.0930
25072W        W41920  14.138   6.183   4.155  0.0708  0.1489 -0.0411
25073W        W41921  16.269   8.388  11.867 -0.0190 -0.1245  0.0892
25074W        W41922   5.715  11.351  13.668 -0.0516 -0.0191 -0.0365
25075W        W41923   6.404   0.350  13.868  0.0618  0.1134  0.1390
25076W        W41924  10.863   4.008   0.552  0.2714 -0.1960  0.2804
25077W        W41925  10.723   5.014  15.894  0.0404 -0.0460  0.1784
25078W        W41926  17.054   9.734   0.506  0.0279  0.0188  0.2774
25079W        W41927   6.826  15.701  15.088  0.0008 -0.0728  0.0113
25080W        W41928   7.122  14.807   0.706 -0.0319 -0.0127 -0.0497
25081W        W41929   8.274   2.489  14.221  0.2352  0.1262  0.2495
25082W        W41930   8.848  16.510   5.054 -0.0766  0.0352 -0.2101
25083W        W41931   0.041   9.181  10.778  0.1614  0.0901 -0.1095
25084W        W41932   2.062   8.851   2.801 -0.0336 -0.0571 -0.0391
25085W        W41933  10.712  16.291  13.151  0.0094  0.1876 -0.2267
25086W        W41934   4.742  12.869  13.393  0.0712  0.2437 -0.0429
25087W        W41935   9.293   4.455  14.443  0.1293 -0.1016 -0.0797
25088W        W41936  15.193   6.137  16.032 -0.1608 -0.1582 -0.1729
25089W        W41937  10.974   7.956   2.160  0.0574  0.0454  0.3276
25090W        W41938  13.951  13.645  12.917  0.1214  0.0414  0.3205
25091W        W41939   8.135   8.430  14.608 -0.0908  0.1725 -0.1552
25092W        W41940  12.834  14.994   1.815  0.1079 -0.1673  0.1751
25093W        W41941   1.150   2.729   3.683  0.1175 -0.0807 -0.2596
25094W        W41942   4.615   6.297  14.162 -0.2665  0.3156  0.1400
25095W        W41943   8.912  13.261  11.764 -0.0276 -0.1098 -0.0310
25096W        W41944  15.269  15.143  13.562 -0.0024  0.0372  0.0158
25097W        W41945  16.991  16.703  13.603 -0.2090  0.0732  0.2167
25098W        W41946   2.667  11.657  15.586  0.0988  0.1051  0.2018
25099W        W41947   0.088  10.475  11.193 -0.0680  0.2742  0.1996
25100W        W41948   1.634  16.095   3.574  0.1210  0.1251  0.1234
25101W        W41949   3.773   1.556   2.676  0.1653 -0.0813 -0.1517
25102W        W41950  10.508   6.510  12.880  0.0883  0.0564  0.0095
25103W        W41951  14.318   7.744   1.648  0.0303 -0.0486 -0.1662
25104W        W41952   2.441   6.076   5.068  0.0185 -0.1552  0.2454
25105W        W41953   0.765  10.857   2.139 -0.0387 -0.3643  0.1675
25106W        W41954   5.923   8.899  14.488  0.1040 -0.1809 -0.0339
25107W        W41955   8.738   5.937   3.481  0.2794 -0.0331 -0.0136
25108W        W41956  15.627  10.534   4.881  0.3017 -0.0874  0.0917
25109W        W41957  15.266  16.234  11.582  0.0616 -0.1102  0.1397
25110W        W41958   6.130   8.864  11.059 -0.1505 -0.0172  0.0415
25111W        W41959  14.072   2.106   0.639  0.1764 -0.0517  0.1022
25112W        W41960  15.907  14.693   3.397  0.1640  0.1150  0.1755
25113W        W41961   9.600   5.916   3.185 -0.2213  0.3997 -0.0303
25114W        W41962  17.273   5.315  15.815 -0.0308  0.1451 -0.1769
25115W        W41963   2.964  13.930  11.342 -0.2783 -0.0059 -0.0218
25116W        W41964   2.553  15.664   3.460  0.0817 -0.0684 -0.1857
25117W        W41965   1.026  11.983   1.036  0.0172  0.1385  0.1227
25118W        W41966   4.909  14.353  11.404  0.4012  0.0180  0.1573
25119W        W41967   6.409   8.819  14.438  0.2689 -0.2147  0.1703
25120W        W41968   5.468   9.622   3.627 -0.3085 -0.1428 -0.1409
25121W        W41969   4.700   5.941  15.696  0.0685 -0.0096 -0.0218
25122W        W41970  14.798  15.295   0.138  0.3090 -0.2397  0.0746
25123W        W41971   8.433   2.063   0.656  0.0091 -0.0729 -0.0304
25124W        W41972  10.151   2.294   3.508  0.0861  0.1597 -0.0280
25125W        W41973   9.833  17.157   2.851  0.0579 -0.0421  0.0568
25126W        W41974   0.061   6.675  14.404  0.0112  0.3239  0.1256
25127W        W41975   4.946   6.282  10.858  0.0656  0.1861 -0.1095
25128W        W41976   2.332  14.982   0.253  0.0562 -0.2740 -0.1484
25129W        W41977   5.797  10.436  12.807  0.0624 -0.3829  0.0192
25130W        W41978  14.392   0.477  15.073 -0.0489 -0.2217 -0.3665
25131W        W41979   1.896   4.889   1.289  0.0074  0.2193  0.2670
25132W        W41980   0.107  16.573   0.974  0.1685 -0.0113 -0.0715
25133W        W41981   5.957   4.729   5.118  0.0746 -0.3728 -0.2134
25134W        W41982   9.015   9.476   1.872 -0.4025 -0.0290  0.1975
25135W        W41983  14.199  10.520  11.497 -0.0952 -0.4260  0.1672
25136W        W41984  13.209  11.467  12.633  0.1525 -0.0921  0.1423
25137W        W41985   7.820   7.635  12.075  0.0564  0.0321 -0.1019
25138W        W41986   3.813  15.027  11.421  0.3847  0.1110  0.0487
25139W        W41987  16.664   0.340  11.644  0.2327 -0.0318 -0.0680
25140W        W41988  15.109   7.887   5.989  0.1267  0.1035 -0.2394
25141W        W41989   7.922   6.197   4.718 -0.2250  0.0837  0.0902
25142W        W41990   4.790  11.208  14.687  0.0165 -0.2672  0.1538
25143W        W41991  11.249   7.447  14.565 -0.1789 -0.2985  0.1301
25144W        W41992   0.530   6.122  13.474  0.2054  0.1837 -0.0131
25145W        W41993  14.578  14.786   4.697 -0.0383 -0.0895  0.0109
25146W        W41994  16.195  16.180  11.755  0.0874 -0.0404 -0.4258
25147W        W41995  12.563   2.497  16.374 -0.1154 -0.1571 -0.0487
25148W        W41996   6.343   6.184  10.536 -0.0400 -0.0810  0.3368
25149W        W41997   0.254  12.599  12.899  0.0643 -0.2152 -0.0811
25150W        W41998  13.247   2.040  14.574 -0.0153 -0.1040  0.0935
25151W        W41999   7.332  11.528  12.371  0.0952 -0.0794 -0.2883
25152W        W42000   5.676   5.993   0.308 -0.0684 -0.1540  0.2940
25153W        W42001   1.592  13.562  14.557 -0.1486 -0.0363  0.3542
25154W        W42002   2.013   5.200  12.395  0.0122 -0.1065  0.2374
25155W        W42003   8.051  15.845  13.682 -0.0177 -0.2162 -0.1673
25156W        W42004  11.868  10.414   1.837 -0.0999  0.0662 -0.2792
25157W        W42005   6.108  13.073  15.818  0.0155  0.1996  0.1931
25158W        W42006  12.350   1.766  14.553 -0.1995  0.1345 -0.1662
25159W        W42007   5.873   4.288  15.651  0.5903  0.1207 -0.1253
25160W        W42008  13.925  10.871  12.940  0.0685 -0.0823  0.0109
25161W        W42009   1.268   1.218   2.322 -0.0042 -0.0441  0.0705
25162W        W42010   8.026   7.829  14.867  0.2606  0.3219 -0.0383
25163W        W42011  10.817  11.253  15.885  0.0904 -0.0306  0.1303
25164W        W42012  15.771  11.528  15.184  0.0159 -0.1698  0.0862
25165W        W42013  14.709  11.631   4.973  0.1924  0.0348  0.0686
25166W        W42014  16.010  10.677  15.493  0.0545 -0.1052  0.1472
25167W        W42015  12.726   3.147  10.489 -0.0053 -0.0815 -0.1797
25168W        W42016   5.135  12.442   0.361 -0.3572 -0.0268  0.1122
25169W        W42017  14.794  12.730  14.355  0.0337 -0.2190  0.1799
25170W        W42018   4.127   5.769   4.668 -0.0837  0.0391  0.2718
25171W        W42019   3.058   3.108   3.822 -0.0894 -0.0118 -0.1919
25172W        W42020   9.292  16.866   0.935  0.1710  0.0115 -0.0477
25173W        W42021  12.813  15.046  16.067  0.1923 -0.0931 -0.0098
25174W        W42022   9.827   9.075   0.055  0.3542  0.0003 -0.0178
25175W        W42023   7.684  14.002  12.407 -0.0482  0.0210 -0.0745
25176W        W42024   8.821   5.042   2.786  0.1268 -0.3205  0.2023
25177W        W42025   7.933  11.550   3.447  0.5207  0.0223  0.1275
25178W        W42026  16.635  13.690  15.549 -0.1460  0.0519  0.1087
25179W        W42027   7.949  16.743   2.695  0.1813 -0.0102 -0.2318
25180W        W42028  11.881  16.516   3.553 -0.0910  0.1202  0.4765
25181W        W42029   6.390   1.154   5.383  0.1496 -0.0845 -0.1896
25182W        W42030  11.515   8.376  13.130 -0.4081 -0.1372 -0.3511
25183W        W42031  11.972   2.453  12.678 -0.0532  0.2537  0.1456
25184W        W42032  15.772   9.785   1.296  0.1195  0.3412 -0.2038
25185W        W42033  11.530   4.715  12.438  0.1596  0.1783  0.0002
25186W        W42034  16.305  13.683  16.101 -0.3341 -0.1052  0.1134
25187W        W42035   6.173  17.689  13.203  0.1746  0.2441 -0.0487
25188W        W42036   9.634  10.437  11.301  0.0293  0.1654 -0.1218
25189W        W42037   0.821  11.187  12.701 -0.0467  0.1521 -0.0875
25190W        W42038  10.385   4.784   0.141 -0.1277  0.0609 -0.0891
25191W        W42039  16.756  15.835   1.973 -0.2258 -0.0874  0.0065
25192W        W42040   9.109   2.661   4.423 -0.2363 -0.0628 -0.0212
25193W        W42041  12.695  10.442  13.353 -0.1602  0.3849  0.2581
25194W        W42042   7.601  15.993   2.473  0.1786  0.3481 -0.1863
25195W        W42043  16.849  12.328   2.607 -0.1263  0.0529  0.0851
25196W        W42044   6.165   1.060   3.294  0.1726  0.1038 -0.0600
25197W        W42045  10.348  11.305   5.084  0.0555 -0.1103  0.1053
25198W        W42046  13.395   6.060   2.107  0.1405  0.1876  0.2664
25199W        W42047   0.061  12.884  14.199  0.0119  0.1829  0.1519
25200W        W42048   3.241   0.267   2.247 -0.4137  0.0947  0.0772
25201W        W42049   4.185  11.638  16.224 -0.0161  0.1945  0.0749
25202W        W42050  16.148   1.295  14.040  0.0945 -0.1434 -0.0832
25203W        W42051   2.917  13.464   5.101 -0.2140  0.0202 -0.0491
25204W        W42052  13.739  11.148   2.724  0.0141 -0.1797  0.0310
25205W        W42053   8.976  17.574   1.267  0.1600 -0.3162  0.0334
25206W        W42054   8.444   5.879   3.083 -0.0230 -0.1956 -0.0041
25207W        W42055   0.745   8.836  15.192  0.1146  0.3779 -0.0407
25208W        W42056   6.340  10.066  14.869 -0.0401  0.0414  0.3729
25209W        W42057   5.320  13.016   3.592  0.2735 -0.1748 -0.1254
25210W        W42058   3.820  11.211  13.499  0.2144 -0.2795  0.1857
25211W        W42059   1.196  17.340  14.626  0.0081  0.1336  0.2936
25212W        W42060   1.776   7.191   3.630  0.2602  0.2196  0.0165
25213W        W42061   0.465  12.513   2.314 -0.2500  0.1068 -0.3449
25214W        W42062   5.683  16.193   0.525  0.1446 -0.0032  0.0485
25215W        W42063   8.876   8.121   3.853 -0.1028 -0.1484  0.0765
25216W        W42064   4.151  11.172  11.269 -0.0892 -0.0214  0.1594
25217W        W42065   5.477   6.683  16.348 -0.1163 -0.1745  0.4717
25218W        W42066   2.740  13.643  16.292  0.3039  0.0526  0.0506
25219W        W42067   7.293   1.468   0.806 -0.2197  0.2608 -0.3478
25220W        W42068  12.292  10.147  10.614 -0.1485 -0.2656  0.0968
25221W        W42069   7.914  16.445  15.999  0.0510  0.1958 -0.1960
25222W        W42070   2.699  14.122  12.408 -0.0890 -0.0536  0.1124
25223W        W42071  15.368  10.883  12.004 -0.0447  0.1138  0.1411
25224W        W42072   0.900   6.376   1.204  0.1971 -0.2275 -0.0819
25225W        W42073  15.709  10.316   0.638 -0.0680  0.0050 -0.3220
25226W        W42074  17.687   7.378   4.737  0.2170 -0.0985 -0.2254
25227W        W42075   6.817   3.385  16.115 -0.0046  0.2239  0.0696
25228W        W42076   6.609  10.323  13.072 -0.2595  0.0961 -0.2033
25229W        W42077   4.030   1.959  13.859 -0.1377  0.1050 -0.0903
25230W        W42078   3.216  12.639  16.165  0.2136  0.0273  0.0851
25231W        W42079   7.956   1.507   3.909 -0.3034 -0.0648 -0.1995
25232W        W42080  14.202  15.214  14.478  0.1834  0.4513  0.1324
25233W        W42081   0.178   9.206   3.271 -0.0402  0.0313  0.1609
25234W        W42082   6.256  17.391  13.576 -0.1278  0.0138  0.2493
25235W        W42083  13.198  12.975  16.263  0.2154 -0.0696  0.0880
25236W        W42084   6.740   6.831  14.215  0.2902  0.5880  0.1039
25237W        W42085   1.159  11.030   2.343 -0.2214  0.2428  0.2083
25238W        W42086   2.150   5.474   2.604  0.0789  0.0461  0.0493
25239W        W42087   9.945   1.585  11.944  0.1096 -0.2362  0.3628
25240W        W42088   4.879  12.905  14.603  0.2713 -0.1764  0.1031
25241W        W42089   6.868   3.155   3.836  0.0408  0.2239  0.2421
25242W        W42090  17.636   4.090  14.203  0.1810  0.0258 -0.0155
25243W        W42091  10.094   2.951   4.649 -0.2114  0.0943  0.1049
25244W        W42092  11.584  16.770  11.575 -0.0927 -0.0259  0.0455
25245W        W42093   2.783  11.547  11.882  0.1334  0.1957 -0.3595
25246W        W42094   5.974   6.103   3.597  0.4374 -0.1714  0.1929
25247W        W42095   4.302  12.009  12.848 -0.2508  0.2628 -0.1347
25248W        W42096   3.929  13.416   4.553 -0.1344  0.1868  0.2166
25249W        W42097  10.147  11.064   2.191  0.1743  0.0405 -0.1473
25250W        W42098  11.752   4.803   0.056 -0.0598  0.0065  0.0889
25251W        W42099   0.959   7.495   4.810 -0.1396 -0.4307  0.0972
25252W        W42100   7.515   7.084   3.668  0.2294  0.0157  0.0042
25253W        W42101  12.690  13.857   5.645  0.1186  0.1506  0.2454
25254W        W42102   4.703   4.398  12.659 -0.1150  0.1309 -0.1032
25255W        W42103   4.447   9.282  13.118  0.0285  0.2464  0.2508
25256W        W42104   7.682  13.411   4.761  0.1339 -0.2806  0.1002
25257W        W42105   3.604   2.407   4.816 -0.0599  0.0075 -0.0559
25258W        W42106  12.433  17.191   2.076 -0.2291 -0.0567 -0.1704
25259W        W42107  11.553   7.539   4.030  0.0878 -0.0385 -0.0086
25260W        W42108   9.922   5.819  13.250  0.0234 -0.0815 -0.3716
25261W        W42109  16.947  14.480  14.574  0.0531  0.4762 -0.0237
25262W        W42110  15.032  11.896   4.659  0.0035 -0.2389  0.1022
25263W        W42111  12.584  12.794   5.444 -0.0453  0.0842  0.1661
25264W        W42112  15.263  17.784   2.941 -0.0460  0.1321 -0.1204
25265W        W42113  17.050   4.605   4.820  0.0083  0.0679 -0.4179
25266W        W42114  13.673   2.842  14.908  0.1510  0.2072 -0.3406
25267W        W42115  10.696  10.574   3.282 -0.0452 -0.2190 -0.2365
25268W        W42116   4.728  12.133   5.762  0.0047 -0.0916  0.1544
25269W        W42117  17.231   2.364  14.556  0.1506 -0.2513 -0.2440
25270W        W42118  10.586   0.099   3.532 -0.0184  0.0160  0.2830
25271W        W42119  13.138  10.137  13.283 -0.0053  0.2692  0.1458
25272W        W42120   5.954  12.469  14.709  0.1565  0.1347 -0.0410
25273W        W42121   6.543   3.368  13.203  0.3655 -0.0702 -0.0686
25274W        W42122   4.336   9.705   1.676  0.1084 -0.2933  0.1287
25275W        W42123  17.757  16.577   4.447  0.1150  0.0434 -0.2802
25276W        W42124   4.609  10.807  16.384 -0.2137 -0.5095  0.1454
25277W        W42125   4.949   3.020   0.274 -0.2285  0.1054 -0.2887
25278W        W42126   4.408   5.406  14.186  0.0126 -0.0212  0.0866
25279W        W42127   1.350   8.352  12.939  0.5040  0.0724  0.0846
25280W        W42128   4.876   5.256  14.300  0.0214 -0.1885  0.0215
25281W        W42129   6.550  16.401   6.011  0.0263 -0.0320  0.0722
25282W        W42130   3.651  13.845  12.246  0.2235  0.1731  0.2698
25283W        W42131   8.800   1.595   3.067 -0.0517 -0.0335  0.0799
25284W        W42132   0.890   5.196   6.167 -0.1463  0.0074 -0.0933
25285W        W42133   9.808  15.802   0.775 -0.2351 -0.0695 -0.1056
25286W        W42134   8.107   2.495   4.413  0.2628 -0.1045 -0.0260
25287W        W42135   8.290   4.780   1.934 -0.0818  0.0946 -0.0063
25288W        W42136   3.962   2.993   0.872  0.0859  0.1874  0.2810
25289W        W42137   8.923   6.193   1.306 -0.0212 -0.0607 -0.2074
25290W        W42138   2.693   1.357   0.657  0.2915 -0.1819 -0.2083
25291W        W42139   6.093   3.408  14.539 -0.3468  0.3144 -0.1441
25292W        W42140  13.319  16.188   2.856 -0.3076 -0.2051 -0.0722
25293W        W42141   8.542   3.353   1.545  0.0506 -0.0068  0.1300
25294W        W42142   1.226   3.103   2.533  0.3966  0.1320  0.2788
25295W        W42143   1.632  12.864   4.770  0.4799  0.0855  0.0575
25296W        W42144  10.475   9.945  15.341  0.0507  0.0265 -0.0578
25297W        W42145   4.415   3.498  14.229 -0.1185  0.3251  0.1120
25298W        W42146  12.966   7.593   4.525 -0.0746 -0.0281  0.0082
25299W        W42147   3.934   4.536   4.434  0.0779  0.1328 -0.1692
25300W        W42148  13.387   5.970   1.119  0.0012  0.1184 -0.1218
25301W        W42149   3.210  16.016   3.901 -0.0152 -0.4041 -0.2133
25302W        W42150   6.197   8.091   0.064  0.2219 -0.3856  0.3398
25303W        W42151   4.861  17.498   4.918  0.0924  0.0551 -0.1917
25304W        W42152   3.922   9.064   5.313 -0.2122 -0.0070  0.0541
25305W        W42153   7.887   6.865  14.963 -0.1975 -0.0335 -0.0252
25306W        W42154   7.621  14.165   2.301 -0.0536  0.0747 -0.1562
25307W        W42155   0.608   0.502   1.558 -0.0443  0.0861  0.0495
25308W        W42156  16.753   3.331   1.331 -0.2959  0.2862  0.3041
25309W        W42157   3.304  16.184   0.339  0.4179  0.0250 -0.1512
25310W        W42158   6.984  10.037   1.151 -0.1908 -0.0507  0.0531
25311W        W42159  13.834  10.893  11.373  0.0164  0.0970 -0.0439
25312W        W42160   3.482   6.527  10.473  0.0504 -0.0447  0.0596
25313W        W42161   5.696  10.289   4.980 -0.0360 -0.0065 -0.0488
25314W        W42162   4.457  16.930   6.093 -0.0863 -0.2197 -0.2378
25315W        W42163  10.950   8.744  14.134  0.1704  0.0866 -0.0382
25316W        W42164   2.169  12.333   4.067  0.2456  0.0988 -0.2186
25317W        W42165  10.825  11.697   5.689 -0.0080  0.0475  0.0715
25318W        W42166  14.940   4.015   2.159  0.2433  0.2274 -0.0789
25319W        W42167   2.025   5.525   4.517  0.0290 -0.1692 -0.3282
25320W        W42168   4.087   4.194  13.132  0.5560  0.3528  0.1169
25321W        W42169   1.312  10.211   4.198  0.1188 -0.0523 -0.1432
25322W        W42170   8.819   4.699   1.957  0.4054  0.0020  0.0023
25323W        W42171  12.757  14.325   3.210  0.0645  0.0208 -0.3178
25324W        W42172  12.262  15.280  15.300 -0.1541  0.2039 -0.1399
25325W        W42173   4.782  13.648  15.401 -0.1376  0.0942  0.1011
25326W        W42174  12.819  13.480  13.559 -0.1422  0.3612  0.0062
25327W        W42175  12.670   1.034  15.274 -0.1454  0.0402 -0.1670
25328W        W42176   5.075   6.615   3.368 -0.0402  0.0983  0.0352
25329W        W42177  14.013   0.706  13.311 -0.2660  0.3225 -0.3333
25330W        W42178  16.745   6.561   2.945  0.1021 -0.0380  0.0179
25331W        W42179   4.134  13.897   3.571  0.4898  0.0555  0.1068
25332W        W42180   7.240  13.215  12.087 -0.2508 -0.1435  0.4950
25333W        W42181  11.620   2.674   3.350  0.1530 -0.1677  0.1322
25334W        W42182  17.280   7.008  15.866  0.1125 -0.5144  0.0030
25335W        W42183  11.631   5.509   0.795  0.1396 -0.0834 -0.1321
25336W        W42184   2.640  16.649   5.451 -0.0677  0.0985  0.3069
25337W        W42185   7.788  15.993  12.401 -0.2402 -0.0681 -0.2988
25338W        W42186  11.511  15.819  13.128 -0.1172 -0.3303  0.1423
25339W        W42187  12.756   9.676  12.676 -0.1416  0.0561  0.1495
25340W        W42188   9.172   9.707  10.790  0.0455 -0.0557 -0.2818
25341W        W42189  10.798  14.075   3.918 -0.0244  0.1229 -0.3099
25342W        W42190   3.486  15.420   1.166  0.1117 -0.1193  0.0432
25343W        W42191   0.032  13.065   1.366 -0.0846 -0.1604 -0.3059
25344W        W42192  14.725   4.935   0.741  0.2381 -0.0600 -0.1980
25345W        W42193   4.820   2.070  12.405 -0.1502 -0.0043 -0.2871
25346W        W42194  13.751  17.412   2.345  0.2321 -0.0789 -0.2683
25347W        W42195   1.434  10.384   2.771  0.0992  0.0988  0.2309
25348W        W42196  17.851   2.746   1.229  0.0843  0.0987 -0.2084
25349W        W42197  12.974   8.003   1.694  0.1222  0.1342  0.0200
25350W        W42198  11.185   0.584   1.288  0.1343 -0.5346  0.0649
25351W        W42199  16.554  14.097  16.389  0.2012 -0.1817  0.1558
25352W        W42200  11.330   1.153   1.232 -0.2262 -0.1024 -0.1733
25353W        W42201   9.299   0.067  14.673 -0.0123 -0.1827  0.1863
25354W        W42202   0.780   8.999   1.900 -0.0504 -0.0304 -0.5042
25355W        W42203   1.248   6.474   4.434  0.0985 -0.0853 -0.3833
25356W        W42204   4.810   8.390  14.321  0.1674 -0.2095  0.4726
25357W        W42205  11.950   0.090   0.696  0.1850  0.2048 -0.2718
25358W        W42206  16.155  14.635  15.224 -0.0320 -0.0828 -0.3931
25359W        W42207  10.415  11.927  16.422 -0.0245  0.2406 -0.1326
25360W        W42208   6.613   4.380   3.385  0.1940  0.1508 -0.1450
25361W        W42209   8.181   0.672   4.439  0.0431  0.1911  0.0351
25362W        W42210   8.912  17.667  12.580  0.0212  0.0120  0.2479
25363W        W42211   9.619  15.587  12.188  0.1080 -0.1817  0.1881
25364W        W42212   1.116   8.752   2.432  0.1705 -0.0222  0.0539
25365W        W42213  14.712   2.448   2.927 -0.2552  0.1052 -0.1336
25366W        W42214  17.759   3.219  14.620 -0.2068 -0.0233  0.1194
25367W        W42215   1.474   5.587   0.565  0.2777  0.0007 -0.3946
25368W        W42216   6.118  10.954   2.353 -0.0863 -0.1032 -0.0732
25369W        W42217   2.245  17.830  12.702 -0.2318  0.1497  0.0946
25370W        W42218   1.045  11.134   4.841  0.0603 -0.0593 -0.2221
25371W        W42219  12.498   5.850   3.862 -0.1224 -0.1537 -0.0289
25372W        W42220   1.054   3.665   1.700  0.0814 -0.1686  0.2113
25373W        W42221  11.880   6.452   3.895  0.0421  0.0359 -0.0601
25374W        W42222   5.028   7.109   0.879 -0.1316 -0.0575 -0.3598
25375W        W42223  10.739  10.772  12.914 -0.0655  0.0560 -0.0654
25376W        W42224  10.885   2.535  14.571 -0.3796  0.0192  0.1139
25377W        W42225   8.698  14.721   2.459 -0.1044 -0.2720 -0.0177
25378W        W42226   5.220  11.913   1.945  0.0315 -0.1665  0.2270
25379W        W42227  16.509  11.619   1.046  0.3499  0.0174 -0.3555
25380W        W42228  14.784   6.349  14.576  0.2470 -0.0222  0.1678
25381W        W42229  11.169   2.046   0.599  0.2029  0.0134  0.0635
25382W        W42230  10.313   5.506   4.384 -0.0470  0.3867 -0.1520
25383W        W42231   3.065   0.439   3.573  0.0777 -0.0353 -0.3920
25384W        W42232  15.299  11.790   4.134 -0.0229 -0.2683  0.0498
25385W        W42233  17.569   5.536   3.469 -0.2243  0.0479  0.0372
25386W        W42234   8.495  11.626   0.174  0.0241 -0.0248 -0.1611
25387W        W42235   1.805  15.889   2.303 -0.0621  0.1328 -0.1842
25388W        W42236   9.519   5.055  15.609  0.2113 -0.1555 -0.1265
25389W        W42237   2.734  10.572  11.468 -0.1642 -0.2937 -0.0890
25390W        W42238   8.711  15.778   4.467 -0.0127 -0.0057 -0.0839
25391W        W42239  12.203   4.841   4.718 -0.0061 -0.0558  0.2060
25392W        W42240  17.179   5.771   3.267  0.0870  0.1089  0.2111
25393W        W42241   6.924  14.429   5.256  0.2658 -0.0430 -0.0605
25394W        W42242   0.455  17.808  12.015 -0.2512 -0.3891 -0.0054
25395W        W42243   5.713   2.296  13.288  0.0275  0.0052  0.0271
25396W        W42244   0.207  13.063  13.555  0.0985  0.1285  0.2281
25397W        W42245   6.521   9.243  15.216 -0.1925 -0.1189  0.1878
25398W        W42246  12.943   5.990  13.937  0.6163  0.1926 -0.1214
25399W        W42247  13.709  15.181   2.988 -0.1181 -0.0767  0.0823
25400W        W42248   9.862   4.471   3.104  0.0012 -0.3304 -0.0181
25401W        W42249  12.159   6.244   3.121  0.1395 -0.0966  0.2416
25402W        W42250   1.082  13.729  14.908 -0.2457 -0.2281  0.0510
25403W        W42251   1.151  14.203  14.045  0.0176 -0.2676 -0.2036
25404W        W42252   6.525   9.008   3.558  0.1724  0.1122  0.2477
25405W        W42253   5.006  12.962   4.490  0.1942  0.1648 -0.0563
25406W        W42254   4.274   8.713  10.390 -0.1732 -0.0814 -0.1256
25407W        W42255  14.396  10.565  14.457 -0.2660  0.2162  0.0858
25408W        W42256   9.618   1.906   0.874  0.1241 -0.1018  0.2701
25409W        W42257  14.688  15.002   1.877 -0.2923  0.0709 -0.1874
25410W        W42258  12.390   8.272  14.664  0.1504  0.3283  0.0364
25411W        W42259   6.889   6.648   2.971  0.0914 -0.0450  0.0210
25412W        W42260  12.540   3.700  14.191 -0.2240 -0.2862 -0.2188
25413W        W42261   5.815   4.303   0.159 -0.1006 -0.1625  0.1300
25414W        W42262  15.641   9.902  10.974 -0.1160  0.0109 -0.0140
25415W        W42263  11.367  11.667  11.857  0.1427 -0.3034  0.1163
25416W        W42264  11.865   1.769  15.396 -0.0361 -0.1398  0.2228
25417W        W42265   0.915  16.861   0.108 -0.1645  0.4095  0.1164
25418W        W42266   3.168   6.252  12.315 -0.2683  0.0051  0.0110
25419W        W42267   1.287  12.167  16.358 -0.1058 -0.2878 -0.0878
25420W        W42268  17.262   9.567  15.795  0.0389 -0.1232 -0.0215
25421W        W42269  15.698  14.657  16.056 -0.0795 -0.0164  0.0944
25422W        W42270   3.987   7.361   1.909  0.0247 -0.0250 -0.2541
25423W        W42271   3.356   1.336  13.802 -0.1112  0.0736 -0.2559
25424W        W42272  17.228   7.752  13.881  0.0273 -0.2115 -0.0086
25425W        W42273  16.582   1.739   0.571  0.1370  0.1092  0.3601
25426W        W42274   9.770  12.681  14.947 -0.1937  0.0021  0.1237
25427W        W42275  11.211  12.356   4.382  0.0904  0.1558  0.1077
25428W        W42276   7.688   1.111  13.992  0.0616  0.2160 -0.1462
25429W        W42277  10.950  12.244  13.376  0.1106  0.0130 -0.0081
25430W        W42278   0.410  17.495  13.435  0.0023 -0.0484 -0.0207
25431W        W42279  13.712   2.836   3.444  0.0493 -0.1890  0.2700
25432W        W42280  12.227   8.618   5.745 -0.1893  0.0130  0.0762
25433W        W42281  15.033  12.028   1.177  0.2260 -0.1722 -0.0259
25434W        W42282  11.461  15.342   5.286 -0.1721 -0.0295  0.1278
25435W        W42283  16.042  16.021  15.754  0.1218  0.0245 -0.1611
25436W        W42284  15.006  10.638   2.423  0.2289 -0.2168 -0.2535
25437W        W42285   3.373   4.656  11.394  0.0000 -0.0878  0.1125
25438W        W42286   0.359  16.447   3.283  0.0892 -0.0796  0.0230
25439W        W42287  17.524   8.839   5.545 -0.1771  0.2050  0.0150
25440W        W42288   9.512  16.838  15.445 -0.0930  0.2931  0.1206
25441W        W42289  14.970  17.632   2.497 -0.1789  0.1846  0.0361
25442W        W42290  14.405   1.773  12.371 -0.2838 -0.1308  0.0983
25443W        W42291   0.415  13.655   4.045 -0.2752 -0.2461 -0.3212
25444W        W42292  14.389   8.944   2.385  0.2142  0.0968  0.0512
25445W        W42293   0.108   9.844   5.445  0.2161 -0.2908 -0.0206
25446W        W42294   6.912  16.913  12.758  0.1910 -0.1832 -0.2034
25447W        W42295   1.280   4.251   1.074 -0.0308  0.0042  0.0464
25448W        W42296   1.065   1.389  12.441  0.0057  0.1250 -0.0442
25449W        W42297   9.286   2.220   4.357 -0.3635 -0.0942  0.2682
25450W        W42298  15.895   0.559  14.842  0.1581  0.1086 -0.3637
25451W        W42299  13.083   3.580  15.438  0.2735 -0.1331 -0.2374
25452W        W42300  16.818  10.872   4.699 -0.2224 -0.0342  0.1240
25453W        W42301  11.417   1.487  10.900  0.0652 -0.3342  0.5880
25454W        W42302   8.683  10.638  11.274 -0.4731 -0.0931 -0.2878
25455W        W42303  14.643  13.857  12.461 -0.1373  0.1240 -0.1769
25456W        W42304  15.966  16.182  16.305 -0.1361 -0.3358  0.1168
25457W        W42305   3.824   7.548  14.512  0.0673 -0.1152 -0.0145
25458W        W42306  17.215   2.671  12.323  0.1337 -0.1220  0.2635
25459W        W42307   0.393  12.311  13.917 -0.3816 -0.1003 -0.0411
25460W        W42308   9.270  14.798  16.364 -0.1111 -0.4954  0.1751
25461W        W42309  16.443   8.280  12.802  0.0801 -0.2153  0.0184
25462W        W42310  11.729   6.399  14.509 -0.3245  0.2760 -0.0694
25463W        W42311   0.063   3.265   1.854 -0.2779 -0.0839 -0.1329
25464W        W42312  10.158   1.800   4.211 -0.4506  0.1404 -0.3908
25465W        W42313   4.732   6.678   2.906 -0.0470  0.1054  0.0855
25466W        W42314   0.699   0.651  14.693  0.0701  0.1043 -0.0033
25467W        W42315  13.372   5.813  14.098 -0.0639 -0.0043  0.0206
25468W        W42316   8.880   2.629   1.882 -0.1071 -0.1363 -0.2567
25469W        W42317  10.611   2.083  16.412 -0.0218 -0.1427 -0.1599
25470W        W42318  13.310   0.170   0.882 -0.2889  0.1661 -0.1899
25471W        W42319  13.877   3.742   3.198  0.1400 -0.2184 -0.2400
25472W        W42320  10.900  16.396   2.696 -0.1962 -0.0660 -0.2022
25473W        W42321   9.530  10.874  13.588 -0.0113  0.1349  0.0594
25474W        W42322   7.096  10.178   1.861 -0.0155  0.0357  0.4304
25475W        W42323   2.733   0.817   3.238  0.1824 -0.4568 -0.0438
25476W        W42324  13.301  17.720  15.647 -0.1468 -0.1985  0.2489
25477W        W42325   1.502  10.688  12.717 -0.1131 -0.0626 -0.0824
25478W        W42326   3.714   4.059  15.280  0.1784  0.3072 -0.0761
25479W        W42327  17.056   3.287   1.840  0.0372  0.2497 -0.0309
25480W        W42328   3.257   1.442   2.759  0.0766  0.0828  0.0211
25481W        W42329   8.052   7.170   4.657  0.0080 -0.0992  0.2490
25482W        W42330  11.872   9.190  15.438 -0.0850  0.0252  0.2149
25483W        W42331  11.707  13.230   0.336 -0.0546 -0.0826 -0.0997
25484W        W42332   4.588  11.302  12.026  0.0778  0.3126 -0.2083
25485W        W42333  15.397  11.720  12.203 -0.1224  0.0340  0.4853
25486W        W42334  12.774   9.190  11.775 -0.0500 -0.1553  0.0143
25487W        W42335  10.125   7.047  15.303 -0.0971 -0.3509 -0.2784
25488W        W42336   5.985   2.726   6.196 -0.0606 -0.2872 -0.0608
25489W        W42337   7.317   1.802  15.460 -0.0555  0.0221  0.0117
25490W        W42338   4.458  12.732  11.103 -0.0421  0.1666 -0.0398
25491W        W42339   4.139  10.174  11.014 -0.1079 -0.0325  0.1313
25492W        W42340   0.758   0.846  13.499 -0.0107  0.1630  0.2092
25493W        W42341   8.249   2.868  16.165  0.0562  0.0483  0.0111
25494W        W42342   6.006  10.567   1.838  0.4726 -0.1694 -0.1791
25495W        W42343   1.175   9.853  12.918  0.0352 -0.0750  0.1153
25496W        W42344  11.020   6.732  12.474 -0.0778  0.0165  0.1360
25497W        W42345  10.618  14.826   3.082 -0.0576 -0.0300  0.1137
25498W        W42346   3.053  10.548   3.365  0.1202 -0.2017  0.3663
25499W        W42347   0.847   6.799   2.454 -0.0006 -0.0443  0.4137
25500W        W42348   3.421  10.295   0.776 -0.2186  0.1543  0.2768
25501W        W42349   5.892   5.516   1.911 -0.2407 -0.0331  0.0663
25502W        W42350   2.854  15.159  14.229  0.0362  0.0322  0.0166
25503W        W42351   9.726  16.278   5.495 -0.0126 -0.1243  0.1971
25504W        W42352  17.372   9.756  14.124 -0.0538 -0.2878 -0.2375
25505W        W42353   9.866   9.679   5.081  0.2215 -0.3623 -0.2211
25506W        W42354   9.769   6.563   1.492  0.3498  0.1951 -0.0507
25507W        W42355   4.017  16.056   5.923  0.0933 -0.2282  0.1506
25508W        W42356   9.255   6.242  14.363  0.1070 -0.2164  0.1863
25509W        W42357   1.903   8.890   4.582 -0.2779  0.0144  0.0667
25510W        W42358  17.090  10.920   2.654  0.0121 -0.0362  0.1293
25511W        W42359   1.945  15.555   5.089 -0.0512  0.2727  0.0550
25512W        W42360   9.388  10.099   1.798 -0.0748  0.1880  0.1296
25513W        W42361   9.477  17.434  16.029  0.0041  0.1266  0.0393
25514W        W42362  15.828  17.743  15.885 -0.1400  0.0169  0.1294
25515W        W42363  16.019  16.469  15.511  0.0114  0.1906  0.1800
25516W        W42364   8.900  13.689  16.372 -0.0156 -0.0265  0.2405
25517W        W42365  11.264   6.286   2.621  0.1755 -0.0156 -0.3640
25518W        W42366   4.527   9.495  12.205 -0.1475 -0.0779 -0.0211
25519W        W42367   5.349   9.040  14.579  0.1057  0.0506  0.2411
25520W        W42368   5.337   3.474  10.805  0.5625 -0.0398  0.2612
25521W        W42369   3.017   6.428   2.099 -0.2434  0.0779 -0.0345
25522W        W42370   2.284   7.449  15.276  0.2063 -0.0269  0.1514
25523W        W42371   3.897   8.274   2.294  0.0374  0.2709 -0.1927
25524W        W42372   2.804   5.116   0.575  0.2728  0.0127  0.1350
25525W        W42373   3.973   3.296   1.412  0.2438  0.1772 -0.0519
25526W        W42374   2.208  11.391   1.047 -0.0824 -0.2788  0.0189
25527W        W42375   8.630   2.956  15.817 -0.0753 -0.0078  0.0816
25528W        W42376  11.136   9.246   2.057  0.0803  0.2398 -0.0504
25529W        W42377  14.892   3.289   4.677  0.1003 -0.0744  0.1617
25530W        W42378   2.000  12.618   4.970  0.1502 -0.4370 -0.0364
25531W        W42379   0.381  16.610   4.545 -0.1266 -0.0999  0.0254
25532W        W42380   3.005   7.731  13.858 -0.0447  0.0731  0.1220
25533W        W42381  11.223  17.868   1.344  0.0829  0.2814 -0.0526
25534W        W42382  17.711   0.742   5.278 -0.0324 -0.2075  0.1616
25535W        W42383   7.950  15.683   5.508  0.0704  0.1163  0.0886
25536W        W42384   4.716  10.732  12.613 -0.2973  0.1987 -0.0703
25537W        W42385   7.834  14.922  14.136  0.0193 -0.3108  0.5310
25538W        W42386   5.384   1.091  14.380 -0.0594  0.3140 -0.0926
25539W        W42387  16.629   5.235   3.669  0.0403  0.0312  0.0779
25540W        W42388  16.538   4.506  14.829 -0.2542  0.0596  0.1536
25541W        W42389   7.035  15.324   4.690  0.0480 -0.2161  0.1935
25542W        W42390   2.244   7.044   3.710  0.0735  0.2038 -0.0331
25543W        W42391   2.277   6.913   4.461  0.0214  0.2991  0.1335
25544W        W42392  14.178  14.643  15.282 -0.0663 -0.1046 -0.0078
25545W        W42393   5.531   3.256   1.186 -0.0598  0.0726  0.0470
25546W        W42394   8.828   0.786   1.273  0.0623  0.1470 -0.3354
25547W        W42395   3.834   7.918  16.296 -0.0180 -0.0702 -0.0508
25548W        W42396   2.667   7.552   2.601  0.1054  0.1312 -0.2014
25549W        W42397  16.159   3.445  13.172  0.0924  0.1727 -0.0659
25550W        W42398  13.508  14.291   3.568  0.0576 -0.1630  0.1298
25551W        W42399   6.077  16.494  14.813 -0.3117 -0.0381 -0.0705
25552W        W42400   2.785  17.481  16.440 -0.2096 -0.1970  0.0331
25553W        W42401   8.899   9.197   3.258  0.0802  0.0677 -0.2328
25554W        W42402   7.445   2.214   1.305  0.1382  0.3283  0.2011
25555W        W42403   5.864  17.284   6.830 -0.0398 -0.0092 -0.3327
25556W        W42404  12.022   8.437  11.885 -0.0838 -0.1410  0.3741
25557W        W42405   7.604   6.393  14.363  0.0755  0.0701 -0.0088
25558W        W42406   1.973  10.838   5.085  0.0897  0.1099 -0.1190
25559W        W42407   5.129   9.830  12.811  0.1969 -0.1606 -0.1844
25560W        W42408  17.626  14.494   4.350  0.1600  0.2424 -0.0988
25561W        W42409   7.147  14.003  15.592  0.0240 -0.2912 -0.0881
25562W        W42410  17.738   6.323  14.136  0.2871  0.2556 -0.0838
25563W        W42411  14.681   3.605   1.335  0.0545  0.0194 -0.1240
25564W        W42412   7.789   2.048  16.192 -0.0294  0.0771  0.3362
25565W        W42413  13.453   4.091   1.045 -0.0831  0.1741  0.1086
25566W        W42414   9.828  16.448  12.104 -0.2838  0.0847 -0.0489
25567W        W42415  10.252   5.466  16.456  0.2097  0.1103  0.1853
25568W        W42416  10.777  10.955  16.283  0.0141  0.0298 -0.0924
25569W        W42417   9.080  12.110   1.340  0.0802  0.1884  0.0070
25570W        W42418  12.446   9.952  16.383  0.0317 -0.1503 -0.0384
25571W        W42419   1.589   4.642  15.020  0.1519  0.0681 -0.2071
25572W        W42420   4.124   0.280   1.682 -0.2250 -0.0293 -0.1323
25573W        W42421   2.714   7.314  13.055 -0.1351  0.0049  0.1139
25574W        W42422   4.952   2.679  14.629 -0.2730 -0.0054  0.2362
25575W        W42423   1.471  10.898   3.425 -0.0544 -0.2999  0.0399
25576W        W42424   1.099   2.112   4.347 -0.0641  0.2079 -0.1543
25577W        W42425   2.526  10.219   4.642  0.1793 -0.1195 -0.0055
25578W        W42426  17.085   8.069   1.452 -0.3140  0.0002  0.3597
25579W        W42427   0.851  12.252  11.095 -0.1964 -0.0524 -0.0418
25580W        W42428  14.189   4.696  13.871  0.1715 -0.2681 -0.4976
25581W        W42429   0.615   9.289  12.433  0.5109 -0.1854 -0.0011
25582W        W42430  11.202  10.640  12.167 -0.0390 -0.0991 -0.2769
25583W        W42431  11.307  14.438   2.589  0.0098 -0.2278  0.1833
25584W        W42432   0.102  13.596  11.593 -0.1188 -0.1944 -0.1660
25585W        W42433  17.626   7.097   2.659  0.2115  0.1345 -0.0217
25586W        W42434   5.589   7.408  14.622  0.0436 -0.3010  0.2519
25587W        W42435  10.740   3.519   2.960 -0.1926  0.0083  0.2110
25588W        W42436   0.702   7.633  11.304 -0.0439 -0.1070 -0.0502
25589W        W42437  10.687   7.387   1.013 -0.1553 -0.2553  0.1646
25590W        W42438   9.720  13.239   1.672  0.1246 -0.1160 -0.1200
25591W        W42439  15.474  17.070  15.036 -0.0360  0.1237 -0.0855
25592W        W42440  16.223  16.124   3.238 -0.1385 -0.1261 -0.1373
25593W        W42441  11.635  10.301  11.983 -0.0044  0.0288 -0.2355
25594W        W42442  11.278   9.601  15.717 -0.0110  0.0055 -0.0643
25595W        W42443   0.069   4.990   3.049  0.3808  0.0966 -0.0722
25596W        W42444   2.397   9.925  16.115 -0.0660  0.2573 -0.2003
25597W        W42445   6.788  11.980   0.944  0.1434 -0.0968 -0.1086
25598W        W42446   2.390   2.323   0.976  0.0772  0.2739 -0.1079
25599W        W42447   8.620   2.754   4.567 -0.1773 -0.3148  0.1068
25600W        W42448   8.701   6.115   6.011 -0.1182 -0.5948  0.0277
25601W        W42449   3.156  12.426   1.528 -0.1579 -0.0879  0.4301
25602W        W42450   5.096   7.215  10.685 -0.1342 -0.0042  0.0502
25603W        W42451  11.827  16.179  14.023  0.1722 -0.1998 -0.0359
25604W        W42452   1.387   8.002   0.781 -0.4086  0.0289 -0.0781
25605W        W42453   2.507   8.332  11.447  0.0795 -0.2859 -0.0455
25606W        W42454   2.887   8.617   4.245 -0.1199 -0.0295 -0.1866
25607W        W42455  10.854  14.428  16.471  0.0525 -0.2811  0.0358
25608W        W42456   8.862  13.022   1.529  0.1819 -0.0527 -0.1801
25609W        W42457   9.120  17.002   3.899  0.0693 -0.0118 -0.0508
25610W        W42458  11.338   7.600   3.548 -0.0434  0.1612  0.2300
25611W        W42459   6.533   9.587   4.942  0.0213  0.2942  0.3477
25612W        W42460   2.134  12.324   1.624 -0.0950  0.0396  0.0511
25613W        W42461  15.769   8.640  14.623  0.3322 -0.0598  0.3591
25614W        W42462  16.391   6.242   5.256  0.1116  0.0391 -0.1545
25615W        W42463  11.164   4.966  14.481  0.1995 -0.0044  0.0609
25616W        W42464  17.078   0.064  10.816 -0.0029 -0.1015  0.3823
25617W        W42465   7.194  17.488   3.405  0.0696  0.0113  0.2019
25618W        W42466  14.868   0.223   0.857 -0.0620 -0.2080 -0.1353
25619W        W42467   7.245  15.807  14.253  0.0683  0.0006  0.0464
25620W        W42468   3.023   8.111   2.075  0.2672  0.1211  0.1564
25621W        W42469   3.458  15.637   4.240 -0.2620  0.0742  0.1408
25622W        W42470   3.130   1.248   0.489  0.1895  0.0021 -0.2392
25623W        W42471  11.684   4.839  15.348 -0.0626  0.2976 -0.0448
25624W        W42472  15.818  16.895   4.781  0.0029  0.0140  0.0729
25625W        W42473   7.351  17.557   1.422 -0.1680  0.1260 -0.2463
25626W        W42474  10.739  15.913   1.237  0.1325  0.4232 -0.0078
25627W        W42475  17.832   4.250  16.140 -0.1009 -0.0020 -0.1326
25628W        W42476  15.831   5.221  15.281 -0.1482  0.2444 -0.1548
25629W        W42477  11.700   3.242  11.647 -0.0668 -0.0055  0.2315
25630W        W42478   5.106   2.453  13.691  0.0415 -0.3900 -0.0055
25631W        W42479  14.963   0.871  10.892  0.1734 -0.1592 -0.0074
25632W        W42480   1.553  12.199   1.675 -0.2939  0.0772 -0.3285
25633W        W42481   9.015   3.833   0.211 -0.0125 -0.1418 -0.2373
25634W        W42482   8.837   6.800  13.238 -0.0483 -0.0313  0.1434
25635W        W42483  10.843  17.630   4.497  0.0367 -0.1608 -0.0246
25636W        W42484   0.605   7.155   0.007 -0.2283 -0.0133 -0.1848
25637W        W42485  17.421   6.105  16.435 -0.0406  0.0250 -0.0286
25638W        W42486  14.996  17.060   1.858 -0.0866  0.1240  0.0201
25639W        W42487  10.266  13.059  13.052  0.1363  0.1481 -0.0289
25640W        W42488   4.686  14.114  10.485  0.0838  0.0807  0.1822
25641W        W42489  10.865   3.568   0.329 -0.2427 -0.2792  0.2576
25642W        W42490  13.477   2.956  13.678  0.3111  0.3109 -0.2045
25643W        W42491   8.191  12.769   2.889 -0.0100  0.2559  0.0361
25644W        W42492  13.543   9.298  14.331 -0.0047 -0.1186  0.2111
25645W        W42493   3.290  15.508  11.293  0.0999  0.1779 -0.0925
25646W        W42494  10.530  12.897   4.444 -0.0543  0.1669 -0.2971
25647W        W42495   6.838  16.581   2.645 -0.5851  0.1232  0.1697
25648W        W42496   3.884  14.860  12.326  0.0137 -0.2139  0.0109
25649W        W42497  16.173   1.848  14.229  0.1238 -0.0843  0.2614
25650W        W42498   2.555  17.606  12.356  0.0305 -0.1218  0.1207
25651W        W42499  14.759   2.112  15.350  0.3255  0.2496  0.1466
25652W        W42500  17.618  16.732  12.562 -0.0316 -0.0745  0.1314
25653W        W42501  15.203   7.229   2.210  0.0895 -0.0042 -0.1893
25654W        W42502   3.262  17.722  15.430 -0.1802 -0.0072  0.0055
25655W        W42503   5.241  16.106  11.911 -0.1974  0.1838 -0.0656
25656W        W42504   1.121   4.890   2.076 -0.0818 -0.0249 -0.2753
25657W        W42505  15.019   4.589  12.191  0.1137  0.0792  0.0643
25658W        W42506   5.825   8.526   0.655 -0.1125 -0.1015  0.0474
25659W        W42507   2.226  17.426  10.957  0.3176  0.2140 -0.2037
25660W        W42508   7.184  13.261   5.353  0.0767  0.2270  0.0294
25661W        W42509   0.612  14.521   2.547 -0.1792 -0.2349  0.1991
25662W        W42510  14.838   6.542  15.838  0.1002 -0.1477  0.0537
25663W        W42511   2.565  10.336   0.254  0.1970 -0.1034  0.0034
25664W        W42512  15.344  10.692  12.860  0.1078  0.0585 -0.2533
25665W        W42513  13.307   0.105  14.743  0.0184  0.0093 -0.1802
25666W        W42514   7.736  17.319  15.128 -0.1711 -0.1878  0.0926
25667W        W42515  16.224   3.963  15.465 -0.0588 -0.2702  0.0403
25668W        W42516   5.974   4.157   2.105 -0.1790  0.0489 -0.0229
25669W        W42517  11.217  10.826  13.029  0.0034  0.1983 -0.2697
25670W        W42518  11.413   3.010  13.486 -0.1345  0.1494  0.3695
25671W        W42519   1.577  13.592  16.218  0.0697 -0.3119  0.0950
25672W        W42520   1.353   0.863   3.230 -0.1623 -0.3828  0.1844
25673W        W42521   1.353   3.602  12.179 -0.0862 -0.1302 -0.0138
25674W        W42522   8.978  15.488   1.123 -0.1249 -0.0717  0.1626
25675W        W42523   0.704   1.002   4.125 -0.0014 -0.0667 -0.1258
25676W        W42524  11.176   7.801  12.705  0.1931 -0.2663 -0.3611
25677W        W42525   2.050  16.934  11.842 -0.0983 -0.1703  0.5724
25678W        W42526   6.897  11.688  13.312 -0.0206 -0.1032 -0.0706
25679W        W42527  10.788  15.314   2.092  0.1177  0.0566 -0.1073
25680W        W42528  10.950   6.290   0.146  0.0201 -0.1806  0.0426
25681W        W42529   3.052  14.592   2.124  0.1725 -0.0504 -0.0546
25682W        W42530   1.478   8.088   3.044 -0.3075 -0.0207 -0.0715
25683W        W42531   1.466   8.791  11.541  0.0153 -0.3052 -0.0618
25684W        W42532  16.834   9.310  13.863  0.0239 -0.0093 -0.2137
25685W        W42533  10.648   1.687  14.476  0.0012 -0.1610  0.0774
25686W        W42534   2.028  13.455  13.180  0.1414  0.0104  0.0020
25687W        W42535  14.116   7.141  12.190  0.1530 -0.0523  0.0249
25688W        W42536   1.353  15.294   2.670  0.0491 -0.0206  0.0323
25689W        W42537   3.687   0.118  10.638 -0.6483  0.0840  0.2126
25690W        W42538  13.935  10.928   0.933  0.3251  0.0725 -0.0532
25691W        W42539   2.008   0.400   1.329 -0.0184 -0.1393  0.0992
25692W        W42540   4.924   4.338  14.526 -0.1233 -0.1502 -0.1803
25693W        W42541  11.366  15.026  15.151  0.0470 -0.3551  0.0657
25694W        W42542  11.396  15.141  12.323  0.1479  0.0931 -0.0109
25695W        W42543   8.698  17.706   5.917  0.0789 -0.1231 -0.0710
25696W        W42544  16.416   2.657   0.075 -0.0159 -0.3260  0.1380
25697W        W42545   3.114  13.024  11.777  0.4442  0.1256 -0.1379
25698W        W42546   0.013   8.921  16.354  0.0578  0.3995 -0.1990
25699W        W42547  17.836   4.049  14.682 -0.0269  0.0275 -0.1375
25700W        W42548  10.782  10.441   2.464  0.0422  0.0229  0.1361
25701W        W42549   5.262   3.007  14.899  0.1281 -0.0556  0.2505
25702W        W42550   8.432   4.977  16.159  0.0640  0.1242 -0.1553
25703W        W42551   1.640   8.374   2.462  0.1866  0.2911 -0.0386
25704W        W42552   6.226   7.574  15.176 -0.1828 -0.0294 -0.3586
25705W        W42553  13.002  10.114   4.131  0.1893 -0.1412  0.1454
25706W        W42554  14.392  12.568  11.362  0.1300  0.3081 -0.1632
25707W        W42555  16.874   8.278   4.107 -0.0451  0.3816  0.0084
25708W        W42556   9.430  16.062   2.503 -0.0683 -0.2775  0.2395
25709W        W42557  12.087  15.604   5.713 -0.0015 -0.0337 -0.3625
25710W        W42558  10.713  12.419   4.138 -0.0434  0.0561 -0.3749
25711W        W42559   3.224   4.935   0.410 -0.0210 -0.1977 -0.1728
25712W        W42560  15.847   0.284   4.179  0.0003  0.0185 -0.2539
25713W        W42561  13.838  13.361  14.535 -0.0878  0.3276  0.0476
25714W        W42562  13.994   4.194   0.184  0.3107 -0.1542 -0.1974
25715W        W42563   9.129  11.290  11.416  0.0366  0.2003 -0.2580
25716W        W42564   5.132   9.450   3.211  0.0843 -0.0811  0.1021
25717W        W42565  17.683  11.829  11.141  0.1938  0.6836 -0.0974
25718W        W42566  14.322   9.903   2.139  0.1965  0.4385 -0.1662
25719W        W42567  10.367  13.708   0.083  0.1431 -0.1277 -0.0469
25720W        W42568  13.819  13.459   0.799  0.0160  0.0221 -0.0127
25721W        W42569   9.937   9.303   4.197  0.4369  0.0566  0.2138
25722W        W42570  15.817   7.140   4.660  0.0351  0.0066 -0.0591
25723W        W42571   7.842  14.648   4.047  0.0109 -0.0839 -0.0303
25724W        W42572  16.425   5.191  12.978  0.0781  0.2685 -0.2546
25725W        W42573   5.321   6.680   1.178  0.2460  0.0903  0.1335
25726W        W42574  13.451  15.818   1.635 -0.0001 -0.0596  0.2290
25727W        W42575  11.442  14.194  12.224  0.3252 -0.2228 -0.2423
25728W        W42576   0.205   2.918   4.805 -0.3144  0.0585 -0.0714
25729W        W42577   1.254  17.329   1.370  0.0788 -0.1033  0.2698
25730W        W42578   7.732   2.121  15.649  0.0644 -0.0238 -0.1619
25731W        W42579   6.592  10.252   2.289 -0.4309  0.1200  0.1289
25732W        W42580   9.020   0.095  14.209  0.3849  0.2504 -0.2845
25733W        W42581  14.269  17.451  13.567  0.2050 -0.0266 -0.1981
25734W        W42582  10.271   7.178   4.089  0.0829  0.1007  0.0775
25735W        W42583  15.266  10.698  16.124 -0.2857 -0.1821 -0.0320
25736W        W42584  13.737  11.027  11.877  0.3542  0.0094  0.0099
25737W        W42585   1.013   4.784   5.902 -0.4390  0.3835  0.3056
25738W        W42586   8.126  17.745   2.340 -0.2181 -0.0608 -0.0113
25739W        W42587   3.663  12.528  15.980 -0.1038 -0.1214  0.0936
25740W        W42588   2.616  13.415   1.580 -0.0891 -0.2932  0.1367
25741W        W42589   4.438   1.733  15.859 -0.0752  0.0785  0.0370
25742W        W42590   0.455   0.722  14.232  0.1465  0.1572 -0.1021
25743W        W42591  12.989   7.292   2.299 -0.0418 -0.2235  0.0504
25744W        W42592   3.688  11.193   4.682  0.0171 -0.1021 -0.0210
25745W        W42593   9.583  14.089  15.073  0.0660  0.0347  0.2073
25746W        W42594   3.538   5.855  13.911 -0.0819 -0.2091  0.0639
25747W        W42595   6.273   2.334  12.510  0.1719  0.2501  0.0334
25748W        W42596   9.340  17.028  11.179 -0.0203  0.2412  0.1411
25749W        W42597   3.019   9.408   1.962 -0.2790 -0.0139  0.1730
25750W        W42598  14.123  17.117  11.435 -0.2455  0.0517  0.2114
25751W        W42599   5.884  12.969   4.489 -0.2231  0.2125  0.1366
25752W        W42600  16.238  11.466  12.171  0.3181 -0.0722  0.1423
25753W        W42601   4.543  10.161   4.242  0.0063 -0.3396 -0.1065
25754W        W42602   6.491   5.864   4.528  0.0473  0.3014 -0.2237
25755W        W42603  15.799  12.383   1.169 -0.0363 -0.1569  0.2213
25756W        W42604  10.776  16.211  12.586 -0.0262 -0.2679  0.2593
25757W        W42605   6.731  15.798   2.509 -0.0056  0.0734 -0.2906
25758W        W42606   9.758  10.489   0.078  0.0372  0.2563  0.0326
25759W        W42607   9.912   6.360  16.446  0.1178 -0.1598 -0.2225
25760W        W42608   5.124   7.645  14.781 -0.2547  0.3457  0.2384
25761W        W42609  17.278   2.146   2.446  0.0219 -0.2115  0.1418
25762W        W42610   3.509   8.664   4.876  0.0970  0.2805  0.1806
25763W        W42611   9.631   2.818  15.860 -0.1274 -0.0469 -0.0156
25764W        W42612   9.675   2.355  16.302 -0.0512  0.1049  0.0169
25765W        W42613   1.011  15.873   0.120 -0.1496 -0.3718  0.0128
25766W        W42614  17.379  16.246  14.713  0.2973  0.0509  0.1141
25767W        W42615  11.919   6.270  12.997  0.4611  0.2026  0.1329
25768W        W42616   2.639   3.001   0.330 -0.2483  0.0105 -0.3821
25769W        W42617   4.092   8.579   5.559 -0.3081  0.2190  0.0645
25770W        W42618   2.557   2.034   3.028 -0.0746  0.1981  0.1470
25771W        W42619   9.304   0.344  13.859 -0.0283  0.2063  0.1088
25772W        W42620  15.041  15.091  12.031 -0.2205 -0.2048 -0.1549
25773W        W42621   0.015  12.075   0.164  0.0503  0.0851  0.0656
25774W        W42622   3.965  12.333  13.566 -0.2884 -0.2321  0.0363
25775W        W42623   7.935   6.599   5.046  0.2142 -0.0867 -0.1278
25776W        W42624  14.393  14.334  12.482 -0.1787  0.2643 -0.1252
25777W        W42625   4.355   1.366  12.024  0.0537  0.1360 -0.0535
25778W        W42626   8.125   5.169   4.364 -0.0625 -0.0533 -0.0942
25779W        W42627   1.049   9.881   2.862 -0.2377  0.0720 -0.2029
25780W        W42628   4.848  14.510   0.481 -0.2788 -0.0394  0.0707
25781W        W42629   2.273   7.042   3.248 -0.1005 -0.0711  0.1960
25782W        W42630  15.137   2.567  14.497  0.0890 -0.2505  0.0791
25783W        W42631   2.120   0.154  11.717 -0.1616  0.0712 -0.1236
25784W        W42632   4.838   7.683  13.491  0.1609 -0.3194 -0.0459
25785W        W42633   1.596   0.985  14.093 -0.1674 -0.1411  0.2095
25786W        W42634   7.499   8.710  13.733  0.0477 -0.2571 -0.1775
25787W        W42635   7.807   5.918  14.825  0.1193  0.1134 -0.2907
25788W        W42636   1.115  10.545  16.223 -0.3720 -0.0768 -0.2288
25789W        W42637   4.555   4.326  14.891 -0.0008  0.4788  0.0609
25790W        W42638   3.034  12.150  11.913 -0.1894 -0.1643 -0.0274
25791W        W42639   9.725   7.229  16.465  0.0776 -0.1913  0.1456
25792W        W42640   9.201   0.193  12.815  0.1304  0.2060  0.3656
25793W        W42641   0.185   8.515   0.678  0.1508 -0.1343 -0.0017
25794W        W42642   4.663   9.455  16.239 -0.0815 -0.3326 -0.3145
25795W        W42643   5.353   7.567   0.060  0.2077  0.4379  0.1322
25796W        W42644   7.890   0.282   1.066 -0.2870 -0.2192 -0.1141
25797W        W42645  10.526   1.060   3.656  0.0948 -0.0920  0.0814
25798W        W42646  13.763   3.455   1.637 -0.2275  0.2692  0.0525
25799W        W42647  14.743   1.660   1.270 -0.3194 -0.1910 -0.2961
25800W        W42648   9.003   0.365  16.405  0.1739  0.3717  0.0241
25801W        W42649  15.611   6.896  12.782 -0.0891 -0.0801  0.1371
25802W        W42650   9.882  10.694   4.560 -0.0819 -0.2900  0.0361
25803W        W42651   1.324   7.468  16.110  0.2821  0.2494  0.3827
25804W        W42652  11.693  14.900   5.376 -0.0065 -0.0679 -0.0967
25805W        W42653   2.766   4.834  13.454  0.2651 -0.3241  0.2237
25806W        W42654  11.939   5.604  12.219  0.0353 -0.0743  0.2637
25807W        W42655  15.926  16.522  12.034 -0.3312  0.1248 -0.1562
25808W        W42656  15.734  11.843  16.020  0.1441 -0.2325 -0.0856
25809W        W42657   5.643  16.249  12.359 -0.1095 -0.0177  0.0328
25810W        W42658   6.412   3.045  13.568 -0.2754  0.2116  0.1071
25811W        W42659   7.540   3.189  10.837 -0.1481 -0.0087 -0.0960
25812W        W42660   7.287  14.226  12.975 -0.2778  0.0015 -0.1988
25813W        W42661   8.324   2.268  14.675 -0.1291 -0.1502 -0.1706
25814W        W42662  15.504  17.734  14.985  0.0198 -0.0067 -0.2195
25815W        W42663   4.022   6.163  13.747 -0.0856  0.1000  0.1850
25816W        W42664  15.991   7.269   2.544  0.1275 -0.1133 -0.0027
25817W        W42665   4.081  17.431   3.266 -0.0628 -0.2176 -0.0955
25818W        W42666  11.080  12.675   0.721  0.3226  0.0773  0.0019
25819W        W42667   5.079   1.898  14.453  0.0864  0.0042 -0.1126
25820W        W42668   8.835  17.723  15.500 -0.0292 -0.2061  0.2107
25821W        W42669  13.653   1.029  13.600 -0.1788 -0.2144  0.1379
25822W        W42670   1.617  10.845  13.792  0.1077 -0.3398 -0.0789
25823W        W42671  13.122   2.051  10.987  0.5151 -0.4381  0.2908
25824W        W42672   1.376  11.442  13.345  0.0962 -0.3350 -0.1027
25825W        W42673  14.847   3.204   4.193  0.1554 -0.1204 -0.2280
25826W        W42674  10.327   0.731  12.340  0.1791  0.1218  0.2146
25827W        W42675  17.350  11.797   4.452  0.1810 -0.1229 -0.3316
25828W        W42676   9.947   0.556   0.588  0.2035 -0.3109 -0.0561
25829W        W42677  10.495   4.537   4.155 -0.1762  0.1802  0.1301
25830W        W42678  11.387  12.354   5.382 -0.0105 -0.0787  0.0344
25831W        W42679  11.305   1.451   0.446 -0.0462 -0.0368  0.1843
25832W        W42680  15.946  14.749  11.632  0.1177  0.4176 -0.1088
25833W        W42681   1.978   4.327  15.115  0.1509 -0.1156 -0.2038
25834W        W42682   5.771  12.275   5.625  0.2327 -0.0088  0.1299
25835W        W42683  12.008  15.539   1.861 -0.1365 -0.0577 -0.0410
25836W        W42684  10.068   4.279  11.365 -0.0031  0.0723  0.0557
25837W        W42685  14.807   6.507  15.261 -0.2148 -0.0144 -0.0507
25838W        W42686  15.318   6.357  13.643  0.1931 -0.0367 -0.0747
25839W        W42687  11.253   4.469  13.793 -0.1566 -0.1011 -0.1816
25840W        W42688  15.970   1.543  12.185  0.1777  0.3619  0.4828
25841W        W42689   3.169   5.938   3.243  0.1000  0.1414 -0.0281
25842W        W42690   2.414  14.817  13.010 -0.0040  0.0021  0.1138
25843W        W42691   2.835  15.463  10.613  0.0084 -0.2095  0.2421
25844W        W42692  13.631   5.596   2.254 -0.1791 -0.3582  0.2752
25845W        W42693  15.379  13.830   1.337  0.1316  0.1036 -0.2179
25846W        W42694   2.460   5.746   2.861 -0.2890  0.3115 -0.0885
25847W        W42695  15.118   9.495  11.810 -0.0762 -0.0816 -0.0685
25848W        W42696   9.665   0.948  16.265 -0.4987  0.3082 -0.0858
25849W        W42697  14.349  17.805   1.114 -0.0420 -0.0091 -0.0592
25850W        W42698   4.046  16.612   6.116  0.3201  0.2267 -0.2014
25851W        W42699   7.074  15.708   0.334 -0.1941  0.1184 -0.2971
25852W        W42700   0.628  11.845   0.539 -0.1503 -0.1131 -0.1177
25853W        W42701  16.140  16.609  11.379  0.2823  0.2966  0.1409
25854W        W42702   6.474   1.273   0.250 -0.0900  0.0048  0.0877
25855W        W42703  17.083  11.435   1.082 -0.0099 -0.0767  0.2516
25856W        W42704  16.342  11.924  14.775  0.0389  0.0679  0.1176
25857W        W42705   7.716   6.533   0.402  0.1761 -0.2618 -0.0154
25858W        W42706  16.492   2.557   0.833  0.2178  0.0324  0.1842
25859W        W42707   8.127   9.859  13.543 -0.5764  0.1234  0.0069
25860W        W42708   9.205  12.030  16.175 -0.3220  0.1296 -0.2336
25861W        W42709   6.988   8.333  12.981  0.3241 -0.0810  0.1085
25862W        W42710  13.279  13.691   0.656  0.1175 -0.1519 -0.1673
25863W        W42711   7.109  16.536  13.327  0.0973 -0.3410  0.2232
25864W        W42712  16.945  14.993  15.254 -0.2102 -0.2288 -0.1130
25865W        W42713  11.284   0.622   3.191  0.1767 -0.4699  0.1201
25866W        W42714   5.096  10.503  11.570  0.0841  0.0288 -0.2173
25867W        W42715   3.401   0.190  13.064 -0.2167 -0.0413  0.2351
25868W        W42716   4.889   5.835  14.181  0.0572  0.2049 -0.0344
25869W        W42717   0.776   9.296  14.555 -0.0526 -0.1865 -0.2201
25870W        W42718  10.735  11.161   0.729 -0.2363 -0.1129  0.0105
25871W        W42719  17.751  14.645   1.635 -0.2063 -0.1439  0.1436
25872W        W42720   8.924   8.536   2.104  0.0287 -0.0782  0.1093
25873W        W42721   9.646  14.753  14.554  0.0140  0.2827 -0.0274
25874W        W42722   6.610   9.134  15.702  0.1366 -0.0945 -0.3927
25875W        W42723   6.926  13.998  11.571 -0.2076  0.1474 -0.2980
25876W        W42724   7.229  13.693  12.764  0.3969  0.2039 -0.1085
25877W        W42725  17.267  11.490  13.892  0.0340 -0.1383  0.0315
25878W        W42726  12.786   0.788   4.488 -0.1583 -0.0180 -0.2613
25879W        W42727   8.169  11.934  12.191 -0.0532  0.1042  0.0146
25880W        W42728   4.075   9.422  15.398  0.2604  0.0690 -0.1056
25881W        W42729  11.801   5.692   5.123  0.0424  0.0058  0.1244
25882W        W42730   9.161   9.344   1.228  0.2451  0.1700 -0.3083
25883W        W42731   4.491   2.698   6.288 -0.1317 -0.1811  0.0748
25884W        W42732  11.858  10.185  10.348 -0.3259  0.2896  0.1272
25885W        W42733   3.285   5.856   4.516  0.0836  0.0405  0.1531
25886W        W42734  17.490   8.578  13.983  0.0958 -0.0558  0.2074
25887W        W42735   8.663  14.681   1.523 -0.0706 -0.2764  0.2474
25888W        W42736   1.052   6.445   4.970 -0.2685 -0.2875  0.0369
25889W        W42737  13.585  14.433  10.142 -0.0265  0.2913  0.0449
25890W        W42738  17.843   8.045  15.719  0.1208 -0.0317 -0.3188
25891W        W42739  16.248   3.167   2.144 -0.1440  0.4085 -0.0406
25892W        W42740  11.277  15.556  11.695 -0.0155  0.0876  0.2812
25893W        W42741  16.674  14.971  16.341 -0.0169 -0.0619  0.1662
25894W        W42742   5.628  11.781  14.766 -0.0548 -0.0983  0.1157
25895W        W42743   2.659   1.534   1.143  0.2435  0.2011 -0.0199
25896W        W42744   6.397  14.855  13.766  0.3247 -0.0355  0.0241
25897W        W42745   1.113  13.437  12.167  0.0209 -0.0049  0.0542
25898W        W42746  17.556  14.662  14.220 -0.1844 -0.0248 -0.0583
25899W        W42747   5.054  14.858   3.799  0.2438  0.1704  0.0894
25900W        W42748   3.530   4.785  12.788 -0.0329  0.0016  0.1392
25901W        W42749   0.237   2.522   1.621  0.1608  0.1148 -0.1078
25902W        W42750  16.261   8.700  13.820 -0.0516 -0.1033 -0.0895
25903W        W42751  16.437  16.631  11.869 -0.0479 -0.2134 -0.3374
25904W        W42752  15.471  14.284  16.294 -0.2420 -0.0430  0.1442
25905W        W42753   2.104   6.704  15.000 -0.1137  0.0564  0.4307
25906W        W42754  16.097   8.989   3.073 -0.1300 -0.2715  0.0555
25907W        W42755   8.199   1.025   3.619  0.1166 -0.2289  0.0010
25908W        W42756  13.596   1.068  14.484 -0.0663 -0.1514 -0.0884
25909W        W42757   1.586   7.740  10.713  0.0642  0.4357  0.1864
25910W        W42758  15.863  14.234   3.667  0.0903  0.1614 -0.3196
25911W        W42759   7.519   8.300   1.025  0.0874  0.0466 -0.1226
25912W        W42760   7.917   9.627   0.535  0.0342 -0.1573  0.1638
25913W        W42761  17.290   3.814   3.025  0.1227  0.3783  0.0929
25914W        W42762  11.846   0.787   0.039  0.0134 -0.1394  0.1683
25915W        W42763  13.891  12.264  14.440  0.1039  0.3709  0.0393
25916W        W42764   8.754  13.328  14.822 -0.2003 -0.1253 -0.2187
25917W        W42765  12.382  16.844  13.749 -0.2612  0.3041 -0.1196
25918W        W42766  14.471   5.665   4.829  0.0534 -0.4408  0.1226
25919W        W42767  14.393  16.258  13.171 -0.0095  0.0032  0.2526
25920W        W42768   9.262   1.583  13.002 -0.0166  0.2883 -0.1156
25921W        W42769   9.347   0.612  14.806  0.0316 -0.0473 -0.0113
25922W        W42770   6.275  10.288   0.501 -0.0890 -0.3116 -0.1492
25923W        W42771   5.756   9.029   0.404 -0.0410 -0.1627 -0.2169
25924W        W42772   6.318  13.996  16.017  0.1409 -0.0696 -0.0938
25925W        W42773  12.374  12.044   0.406  0.1055  0.0128  0.0001
25926W        W42774   7.112  15.392  16.355 -0.2177 -0.0633  0.2232
25927W        W42775   4.750  16.410  11.787 -0.0673 -0.0789 -0.0990
25928W        W42776   4.842   8.468   0.694 -0.0445  0.2276 -0.1483
25929W        W42777   3.974  15.414  15.740 -0.0451  0.1025 -0.0512
25930W        W42778  10.483  15.047  15.738  0.0563  0.0012 -0.0537
25931W        W42779   4.759   2.293   3.937 -0.0234  0.2894 -0.1837
25932W        W42780   1.833  12.067   3.117  0.1843  0.2464 -0.0468
25933W        W42781   7.569   3.386   1.307  0.0290  0.2203  0.0163
25934W        W42782   0.175  15.912  14.088  0.1912  0.0041  0.3494
25935W        W42783   6.148  16.139  12.219  0.1677 -0.0308 -0.0037
25936W        W42784   9.565  10.133  13.009  0.0572 -0.1870  0.1787
25937W        W42785   4.715  16.986  13.367  0.0607  0.1034  0.1797
25938W        W42786   8.353  11.560  13.572 -0.0627  0.2207  0.0269
25939W        W42787   3.694  12.501  14.508 -0.1873  0.0919  0.1001
25940W        W42788   2.314  13.907  14.056 -0.0508 -0.0645  0.4013
25941W        W42789   7.749   1.163   0.045  0.0560  0.0566 -0.0106
25942W        W42790   1.048   2.561   1.049 -0.0653  0.0838  0.4997
25943W        W42791  13.633   9.547   4.547 -0.1627  0.0275  0.1438
25944W        W42792  13.867  15.510  10.869  0.3320  0.0051  0.2433
25945W        W42793  11.961  10.382   3.880 -0.2468 -0.1551 -0.0126
25946W        W42794   8.445   4.622   4.698 -0.2505 -0.0873  0.5389
25947W        W42795   2.074  17.549  14.953 -0.0327  0.1127 -0.2463
25948W        W42796   4.697   1.652   2.568  0.1883  0.0102  0.0566
25949W        W42797   2.711   4.314   3.703  0.2306  0.2778 -0.3478
25950W        W42798  13.677  17.258   4.360 -0.1130  0.1650 -0.4000
25951W        W42799  10.564  15.531  13.920  0.1098 -0.1487 -0.0706
25952W        W42800   2.988  10.781   2.155  0.2881 -0.2633  0.1762
25953W        W42801   5.766   7.743  13.253  0.0477 -0.0172  0.2383
25954W        W42802   9.374   4.666   4.322 -0.2199 -0.1028 -0.0083
25955W        W42803  16.997  16.576  15.628 -0.0786  0.3636  0.0329
25956W        W42804  11.577   2.810  13.016 -0.0330  0.2360 -0.0942
25957W        W42805   3.438   8.020   0.983  0.1048  0.4951  0.1070
25958W        W42806  10.306  13.010   2.849  0.3692  0.1638  0.3107
25959W        W42807   9.839   2.380   4.997  0.1258 -0.1735  0.1878
25960W        W42808  13.335  15.185  11.716 -0.0172  0.0277  0.0251
25961W        W42809  17.083   7.281  13.768  0.2072  0.1718 -0.1106
25962W        W42810   9.980   2.661   1.785  0.0710 -0.2470  0.2584
25963W        W42811  17.024  13.632   4.374  0.2029  0.0943  0.1910
25964W        W42812  14.107  11.475   2.886  0.0795  0.1865 -0.0041
25965W        W42813   4.387  14.010  12.613  0.0036  0.2307 -0.2783
25966W        W42814   5.744  10.492  16.354 -0.0558  0.3056 -0.2623
25967W        W42815   4.981   5.191  13.440  0.3280 -0.2147  0.1526
25968W        W42816  10.496   4.769  15.483  0.2637 -0.0386 -0.2970
25969W        W42817   2.665   8.215   2.510  0.0934 -0.0567 -0.1384
25970W        W42818  14.081  13.229  12.570 -0.0383 -0.0605 -0.2315
25971W        W42819  10.289  17.749  11.921 -0.1533 -0.0439  0.1899
25972W        W42820  13.977   1.552  11.485  0.4136  0.1036 -0.0520
25973W        W42821  13.723   9.479  16.174 -0.1205 -0.0774 -0.1283
25974W        W42822   9.228  16.514   4.058 -0.0606 -0.3547  0.1233
25975W        W42823  13.487  10.116  12.052 -0.2282 -0.1431  0.2105
25976W        W42824  17.044   9.086   5.151 -0.0883  0.2682  0.0690
25977W        W42825   1.217  14.942   4.118  0.1213 -0.0625  0.1610
25978W        W42826  16.023  14.886  15.639  0.0339  0.0347 -0.1993
25979W        W42827  17.523   0.398  14.825  0.1434 -0.2567 -0.0307
25980W        W42828   5.418   4.842   5.121  0.0161  0.3181  0.2038
25981W        W42829   9.546   9.941  11.212 -0.1107 -0.0482 -0.1037
25982W        W42830   2.000   0.301   4.399  0.2658 -0.1904  0.2611
25983W        W42831   0.217   2.811  13.734  0.0978  0.0420 -0.0502
25984W        W42832  16.227  15.084   4.191  0.1403  0.2180 -0.3471
25985W        W42833   6.966  15.101  12.371 -0.1496 -0.0911 -0.1091
25986W        W42834  14.210  11.503  16.200 -0.2481  0.0212  0.1782
25987W        W42835  12.459   9.590  13.152  0.1585  0.1812 -0.0468
25988W        W42836  11.699   9.700   4.603  0.0677  0.2094  0.0810
25989W        W42837   6.187  11.679   4.363  0.0174 -0.0432 -0.2096
25990W        W42838   6.249  10.453  12.165 -0.0238  0.0034  0.1404
25991W        W42839   4.353  13.522   4.837 -0.3023  0.0262 -0.1618
25992W        W42840  10.226   8.994   2.940  0.2352 -0.0675  0.0959
25993W        W42841   3.930  11.925  15.312  0.1026 -0.3500  0.1432
25994W        W42842   3.763   7.526   3.208  0.0158 -0.0974 -0.0466
25995W        W42843   9.577  11.525   5.044 -0.1408  0.1366  0.0119
25996W        W42844   8.593  16.441  15.275 -0.3548 -0.0853  0.1429
25997W        W42845   9.189   0.834  15.274  0.0878  0.0350  0.2667
25998W        W42846   1.114   5.892   1.407  0.2057 -0.1458 -0.2187
25999W        W42847  11.044  13.755   0.617 -0.1502  0.0482 -0.0438
26000W        W42848  17.383  16.722   2.942  0.0364 -0.0916 -0.1682
26001W        W42849  10.350   5.024   4.204 -0.2963  0.2723 -0.1064
26002W        W42850  17.129  11.732  12.377 -0.2647  0.0079 -0.1983
26003W        W42851  12.604   6.282   4.147  0.1420  0.2051  0.0502
26004W        W42852   5.328  10.266  14.969 -0.3658 -0.1025  0.0373
26005W        W42853   8.223  17.210   2.514 -0.3168  0.0932 -0.1703
26006W        W42854   2.558  11.397   3.812 -0.2253 -0.0651 -0.2573
26007W        W42855   9.188   1.508  11.300  0.0484 -0.2334 -0.2660
26008W        W42856  15.996   8.997  14.325  0.3247 -0.2545  0.0488
26009W        W42857  15.466   2.654  10.707 -0.3161  0.0465 -0.3652
26010W        W42858   4.243   1.624   2.829 -0.0281  0.3177  0.2303
26011W        W42859  14.276   8.608   3.308 -0.2534  0.3234  0.1411
26012W        W42860   1.166  12.132  15.911  0.1291 -0.1805 -0.0110
26013W        W42861   6.795  16.446   0.861 -0.0040 -0.0251 -0.0954
26014W        W42862  14.021   6.553   0.659 -0.2280  0.0494  0.1071
26015W        W42863   0.266   8.342   3.819 -0.1692 -0.0411  0.2510
26016W        W42864  12.803   0.585  13.404 -0.2324  0.2434  0.0002
26017W        W42865   8.098   6.424   4.224 -0.1049  0.1445  0.1848
26018W        W42866   0.575  12.189   0.137  0.2165  0.0376 -0.0695
26019W        W42867   3.585  10.275   2.701 -0.1010 -0.1918 -0.1633
26020W        W42868  12.168  10.406  11.876 -0.2568  0.0570 -0.2772
26021W        W42869  16.030   1.435  12.652  0.3580 -0.0162 -0.0092
26022W        W42870   2.621   7.788   5.449 -0.1370 -0.0322 -0.2130
26023W        W42871  16.883   3.128   4.520 -0.1025  0.0582  0.0608
26024W        W42872  17.483   9.968   3.640  0.3238  0.1479 -0.1394
26025W        W42873   2.193  16.477  12.315 -0.0032 -0.0037 -0.1992
26026W        W42874   6.988   4.972  12.339 -0.0882 -0.4181 -0.0506
26027W        W42875   5.719  13.867  15.333  0.0707  0.1669 -0.1656
26028W        W42876  14.332   1.687  13.229  0.1309 -0.1734 -0.1309
26029W        W42877   5.899   1.887   2.565  0.2400  0.3717 -0.0869
26030W        W42878  15.023   9.541   0.330 -0.1157 -0.0682 -0.0274
26031W        W42879  14.921   6.588   0.398  0.0714  0.1103 -0.0872
26032W        W42880   1.284   0.133   2.586  0.0308  0.3748  0.3077
26033W        W42881   9.709  14.677  15.067  0.0487 -0.2797 -0.2014
26034W        W42882   1.249  15.032  15.429 -0.1433 -0.1297  0.1000
26035W        W42883   5.642  11.608   0.928  0.1866 -0.0190  0.3175
26036W        W42884  14.891   5.820  14.424 -0.0987  0.0173 -0.2192
26037W        W42885  17.622   6.341   5.176  0.0361 -0.2705 -0.0424
26038W        W42886  14.549   4.572   2.105  0.1351  0.1037  0.2510
26039W        W42887  12.927   2.720   0.106  0.2357 -0.0269 -0.0082
26040W        W42888  15.005   6.176  11.565  0.2168 -0.0842 -0.0028
26041W        W42889   6.174  17.771   3.306  0.0174 -0.2114 -0.0142
26042W        W42890   3.520  12.061  15.834 -0.1819  0.2228  0.1508
26043W        W42891  11.440   8.714  13.868  0.0443  0.0415 -0.2612
26044W        W42892  11.345  11.549   2.368 -0.0652 -0.1971  0.0548
26045W        W42893  11.603   3.884  14.337  0.2922  0.0448 -0.1172
26046W        W42894   7.271  17.881  15.624 -0.2805  0.4096 -0.3249
26047W        W42895  14.047   8.949   3.721  0.1874 -0.0678 -0.1246
26048W        W42896   5.477  15.709   0.753 -0.0399 -0.0803  0.2405
26049W        W42897   4.319   5.869   3.364  0.0523  0.2021 -0.1574
26050W        W42898   5.818  11.997   4.614 -0.1857 -0.0464 -0.1181
26051W        W42899   9.207   2.569   0.217  0.2525 -0.1139 -0.0395
26052W        W42900  15.176  14.342  14.035 -0.0491  0.1029  0.0616
26053W        W42901  14.185   9.584  11.744  0.1014  0.0375  0.1199
26054W        W42902   2.562   3.395  13.028 -0.0350 -0.0796 -0.0419
26055W        W42903   7.633  12.341  12.883 -0.2653 -0.0186  0.0680
26056W        W42904   7.679   1.761   0.221  0.0644  0.2842  0.0585
26057W        W42905  11.647   9.851  13.424 -0.1418 -0.1188 -0.2841
26058W        W42906   4.202   3.547  12.336  0.2007 -0.0414  0.0900
26059W        W42907   1.530   2.572  15.028  0.2839  0.1048 -0.0984
26060W        W42908   7.328  12.274  11.388  0.1383  0.2129 -0.0247
26061W        W42909  16.506   9.240   4.320  0.0872  0.1660  0.0613
26062W        W42910   1.016  15.423  13.166 -0.1604 -0.1949  0.1295
26063W        W42911   8.524   1.549  11.816  0.2037  0.0283 -0.2036
26064W        W42912   5.900   3.938  12.808  0.1979  0.1072 -0.2251
26065W        W42913  13.294  12.159   0.092 -0.1445  0.0974  0.2283
26066W        W42914   5.814  13.764  13.401  0.0846 -0.0075  0.3264
26067W        W42915   1.367   6.249  13.687 -0.1912  0.0552 -0.2348
26068W        W42916  17.409   6.596   2.741 -0.1877  0.3505  0.3607
26069W        W42917  10.806  10.135   3.378 -0.1625  0.2006 -0.0364
26070W        W42918   6.630   3.591   2.961 -0.0188  0.2082  0.2485
26071W        W42919  17.565   0.228  14.353 -0.2993 -0.1014  0.0450
26072W        W42920   9.685   5.688   2.627 -0.1627 -0.0684  0.1661
26073W        W42921   2.892  17.536   3.020  0.0866 -0.0011  0.0514
26074W        W42922   4.375  16.924  15.261 -0.4115 -0.1452 -0.0070
26075W        W42923   8.654   8.062   3.410  0.0953 -0.0160 -0.0621
26076W        W42924  14.734   0.203   3.547  0.1043  0.0285 -0.0900
26077W        W42925  10.595  17.419  13.471  0.3269  0.1211 -0.0573
26078W        W42926  13.274   6.771  13.590  0.0901 -0.0294  0.1553
26079W        W42927  16.537   8.553   0.233  0.1875  0.0614 -0.1434
26080W        W42928   7.357  11.856   1.365  0.1356 -0.0314  0.0529
26081W        W42929  11.799   2.460   1.082 -0.0549  0.2647  0.0740
26082W        W42930  16.625  10.685  15.842  0.2895  0.1938  0.0824
26083W        W42931   3.233   5.048  13.561  0.0722  0.1531  0.1176
26084W        W42932   9.441  13.396  15.753 -0.2540 -0.0991 -0.0110
26085W        W42933  12.060  12.396   0.731 -0.3319  0.1586  0.2365
26086W        W42934   2.682  10.516   2.627  0.0653 -0.4148  0.1018
26087W        W42935   1.580   8.691   0.642 -0.1960  0.1856 -0.0463
26088W        W42936  14.008   0.984   3.671 -0.2297 -0.0040  0.0587
26089W        W42937  14.891   5.406   5.042 -0.1081  0.2253 -0.4252
26090W        W42938   5.689  15.532  12.615  0.3579 -0.0675  0.1334
26091W        W42939   2.505  10.442   1.692 -0.1246 -0.1395  0.2371
26092W        W42940   5.605  17.013  15.719  0.0137 -0.3160  0.0410
26093W        W42941  14.233   2.611   2.029 -0.0418  0.2895  0.3003
26094W        W42942  16.726  10.898  14.285  0.0790 -0.0555  0.0548
26095W        W42943  14.168   7.380  13.020  0.0274 -0.0615 -0.4314
26096W        W42944  11.639   5.282  14.482  0.0443  0.1438  0.1485
26097W        W42945  12.040  17.370  13.168  0.2063  0.1076 -0.1171
26098W        W42946   0.777  14.528   3.432 -0.0048  0.0469 -0.0886
26099W        W42947   9.825  11.160   4.305 -0.1247  0.2621 -0.1148
26100W        W42948  13.175   3.709   1.294 -0.0021 -0.0211 -0.4006
26101W        W42949   9.379   1.438  13.470 -0.1147 -0.0868 -0.1572
26102W        W42950   0.671  13.566  16.146  0.0882  0.0160  0.1892
26103W        W42951   6.256   8.969   2.051  0.1334  0.0375 -0.1759
26104W        W42952   3.235  11.887   3.900  0.0644 -0.0175 -0.3380
26105W        W42953   5.993   0.625   4.682 -0.0994 -0.2332 -0.2855
26106W        W42954   1.913  14.581   2.409  0.0397 -0.1517 -0.3772
26107W        W42955   2.629  14.938   6.350  0.0028  0.0591  0.1149
26108W        W42956   8.651  16.125  11.882  0.0053  0.2616  0.2311
26109W        W42957  10.013   1.833   5.148 -0.2503  0.2754  0.1685
26110W        W42958  12.749  11.813   4.813  0.3670 -0.1498  0.0277
26111W        W42959  10.767   1.580   3.256 -0.0465 -0.1284 -0.2979
26112W        W42960  17.384   4.756  13.023 -0.1133  0.1586  0.3260
26113W        W42961   9.728  10.219   4.485  0.2632 -0.1421 -0.0176
26114W        W42962  16.178  17.532  16.245  0.2458  0.2442 -0.0955
26115W        W42963   3.682   5.255  11.961 -0.0423  0.0471  0.0407
26116W        W42964  14.669  12.514   2.516  0.1192 -0.1240 -0.2944
26117W        W42965  12.561   1.172  13.424  0.1384  0.2152  0.0119
26118W        W42966  12.425  17.588  15.453 -0.0341 -0.0189 -0.1096
26119W        W42967  17.474  14.166  15.307 -0.2662  0.1281  0.1453
26120W        W42968  10.741   8.989  12.776 -0.1241  0.1604 -0.1900
26121W        W42969  16.648  16.331   3.408  0.1610  0.0927  0.0258
26122W        W42970   7.591   8.991  13.301 -0.0232 -0.1647  0.1698
26123W        W42971   0.365   5.010  12.607 -0.0059 -0.4153 -0.1764
26124W        W42972  12.661   9.941  13.541 -0.0983 -0.1084  0.1960
26125W        W42973  13.630  12.790  11.346  0.0862 -0.0318 -0.1179
26126W        W42974  16.579   1.372   2.639  0.0781 -0.1258 -0.2859
26127W        W42975  10.082   8.620   6.481 -0.1602 -0.3323  0.4564
26128W        W42976  11.164  14.958   2.904  0.0191 -0.5110 -0.0743
26129W        W42977   3.130   7.865  15.715 -0.0693  0.0274 -0.0321
26130W        W42978   9.591   0.699  11.596  0.1085 -0.0756  0.2902
26131W        W42979   3.691  13.343  13.165 -0.0868 -0.0081  0.0878
26132W        W42980   6.470   2.211  13.768 -0.2283  0.0814  0.0640
26133W        W42981   2.808   4.761   0.150 -0.0294  0.0255 -0.1106
26134W        W42982   2.518  14.923   3.735  0.2610 -0.3300  0.2581
26135W        W42983   0.489   2.825  12.271 -0.1256 -0.0480  0.2965
26136W        W42984  14.713   3.371   0.696 -0.0835 -0.1350  0.5053
26137W        W42985   1.540  13.503   3.267  0.0246 -0.0943 -0.1980
26138W        W42986   2.251  14.814  13.478 -0.1029  0.0610  0.1425
26139W        W42987   1.114   1.101   4.491  0.1506 -0.3678  0.0550
26140W        W42988  17.052   2.693   0.833 -0.0184 -0.1772 -0.1024
26141W        W42989  13.220  13.907   3.718  0.1130 -0.1241  0.1256
26142W        W42990   8.856   8.449  15.160 -0.1571 -0.0483 -0.1159
26143W        W42991  14.828   4.861   4.468 -0.1536 -0.1326 -0.2140
26144W        W42992  14.276  14.226   1.587 -0.0602 -0.0556  0.2301
26145W        W42993   1.649   2.032   0.922  0.1771  0.2852 -0.1575
26146W        W42994  13.708   7.324   0.427 -0.0879  0.1657 -0.2735
26147W        W42995  11.462  17.832  12.440 -0.2010 -0.0284  0.1834
26148W        W42996   4.713  16.811   5.636 -0.2150  0.3326  0.2629
26149W        W42997  14.873   5.750  13.002  0.0143  0.0980 -0.1767
26150W        W42998  15.600   6.197  13.125  0.0168  0.1275  0.3028
26151W        W42999   1.995  10.086   4.599  0.0653 -0.1565  0.0740
26152W        W43000   5.253   0.972  16.064 -0.1630 -0.0280 -0.2310
26153W        W43001   4.112   1.901  14.874 -0.1432  0.1020  0.0628
26154W        W43002   7.943  16.735   5.401 -0.1755 -0.1024  0.0199
26155W        W43003   6.601   2.838  11.276  0.3376 -0.0327 -0.1258
26156W        W43004  11.327   5.422   5.636 -0.1723 -0.0343  0.2643
26157W        W43005   1.952   8.993  13.992 -0.0991 -0.2075 -0.0174
26158W        W43006  17.518   9.887   0.570  0.3856  0.0791  0.1161
26159W        W43007  17.752   6.874   0.831  0.3129 -0.3363  0.2583
26160W        W43008  16.853  17.852  11.290  0.2189  0.0005 -0.2224
26161W        W43009   3.195  11.163  14.913  0.1947 -0.0868 -0.0110
26162W        W43010   6.305  17.702  12.725  0.0211  0.1026  0.0460
26163W        W43011   4.919  10.165   3.903  0.1110  0.0016  0.1374
26164W        W43012  10.912  17.486   2.969  0.3050  0.0457  0.3152
26165W        W43013  13.056   9.509   3.992  0.1589  0.0224 -0.1268
26166W        W43014  15.459  14.939  13.974  0.1183  0.0144 -0.0794
26167W        W43015  11.694   1.857   3.602 -0.1659  0.1766 -0.1332
26168W        W43016   2.024  14.040  11.698 -0.0580 -0.2743  0.0783
26169W        W43017   9.147  16.998  16.044 -0.0196 -0.2204  0.0875
26170W        W43018   6.334  17.318  15.106 -0.0163  0.4015 -0.0198
26171W        W43019   8.213  17.334   4.319  0.2787 -0.0091 -0.2207
26172W        W43020  16.209   0.601   2.740 -0.1443 -0.0326 -0.2438
26173W        W43021  16.795   5.358  16.075  0.4874  0.0991  0.1692
26174W        W43022   5.795  15.781  15.875 -0.2677 -0.1093 -0.2524
26175W        W43023  14.396  14.068  13.650 -0.2459  0.1559 -0.3567
26176W        W43024  11.363   2.466  15.734  0.2942  0.1520 -0.3153
26177W        W43025   5.216  15.860   1.265 -0.0221  0.0077  0.1164
26178W        W43026  15.034  11.498   2.298 -0.1225  0.1558  0.1066
26179W        W43027   7.217   4.569   4.560  0.1372  0.1346 -0.1295
26180W        W43028  17.386   2.362   2.015  0.3408  0.4049 -0.0774
26181W        W43029   0.133   5.155   0.414 -0.4417 -0.2072  0.3583
26182W        W43030   8.663   1.083   3.351 -0.2096 -0.4469 -0.0468
26183W        W43031   7.264   8.472   1.532 -0.1342 -0.1793 -0.0519
26184W        W43032  10.085   4.868   1.104 -0.2234 -0.4136  0.1281
26185W        W43033   2.441  15.154   2.241  0.3243  0.0685 -0.0320
26186W        W43034  17.341   4.260  13.018  0.2785  0.2145 -0.2326
26187W        W43035   5.159  12.714  10.589  0.0099 -0.2206  0.1389
26188W        W43036  12.284   5.144   2.075 -0.0567 -0.1346  0.0921
26189W        W43037   8.574   0.909   2.758 -0.2183  0.3132 -0.1127
26190W        W43038   1.394  12.219   2.899 -0.1060  0.0588 -0.1014
26191W        W43039   4.807   9.148   5.124  0.0526 -0.1405  0.0367
26192W        W43040   2.253  15.721  11.201 -0.0025 -0.0822  0.0777
26193W        W43041   4.095   9.561  13.328 -0.0839  0.2806  0.2552
26194W        W43042  10.774  11.165   4.828 -0.2643 -0.3029 -0.0741
26195W        W43043   6.299   1.599   2.641 -0.1154 -0.2215  0.1591
26196W        W43044   6.967  13.156  11.690  0.4169 -0.1944  0.2741
26197W        W43045  12.296   4.174  14.108 -0.1751  0.2142 -0.1715
26198W        W43046   1.046   0.058   0.817 -0.2868  0.0665 -0.1377
26199W        W43047  11.111  15.543  13.074  0.1891 -0.0010  0.0226
26200W        W43048   9.043   4.909   0.555 -0.4783  0.1113 -0.0026
26201W        W43049   4.302  15.751   2.430 -0.2262  0.3940 -0.0904
26202W        W43050   1.995   2.880   3.768 -0.1363 -0.1423  0.1259
26203W        W43051  10.750   0.564   3.398 -0.1364 -0.3450  0.1028
26204W        W43052   3.768  17.585   2.638  0.2335  0.1035 -0.0749
26205W        W43053   2.930  12.382   4.583 -0.0897 -0.1478 -0.0208
26206W        W43054   2.281  16.782   3.126 -0.1801  0.2464 -0.0871
26207W        W43055  12.266   7.735  14.664 -0.3947 -0.0045  0.1274
26208W        W43056  16.134   7.142   3.696 -0.2697 -0.1183  0.0014
26209W        W43057  14.928   1.770  15.018  0.2786 -0.2317 -0.2111
26210W        W43058  11.046   4.681  15.930  0.1723  0.3480  0.3249
26211W        W43059  17.057   4.577  13.361  0.1386 -0.0416 -0.0650
26212W        W43060  12.423  10.736   0.716  0.0077  0.0744 -0.2626
26213W        W43061  10.755  13.744  13.449  0.1898 -0.0403 -0.1773
26214W        W43062   6.925  10.704   2.927 -0.0172  0.1973 -0.0755
26215W        W43063  16.251  10.735   0.358  0.0636  0.2251 -0.2411
26216W        W43064   0.085   0.712   0.786 -0.0169 -0.0860  0.1239
26217W        W43065   2.756   0.379   2.261  0.1088 -0.1626 -0.0873
26218W        W43066   8.975  13.200  15.719  0.1809 -0.2967 -0.0466
26219W        W43067  11.428   6.051  12.971  0.0415 -0.1171  0.1534
26220W        W43068  11.446   2.087  16.247 -0.1033 -0.1519  0.0656
26221W        W43069   4.518  15.726   2.918 -0.1085 -0.1512  0.0921
26222W        W43070   3.794  12.023  14.360  0.1149 -0.0826  0.1729
26223W        W43071  17.270  10.224  13.975 -0.0178  0.0707  0.3897
26224W        W43072  13.976  17.857   2.475 -0.2425 -0.0613 -0.0319
26225W        W43073  14.113  12.471   2.673 -0.0355  0.2308  0.4717
26226W        W43074  16.735  10.545   5.940 -0.2334  0.2690 -0.0864
26227W        W43075   2.938  13.764   4.651  0.0646 -0.1636 -0.2178
26228W        W43076   3.649   5.569   2.846 -0.1817  0.0124 -0.0088
26229W        W43077   9.327   9.234  14.285 -0.2456 -0.1025 -0.4621
26230W        W43078   3.745   1.848   4.664  0.2373 -0.0307  0.0227
26231W        W43079  16.817   4.201   1.545  0.2721 -0.0332 -0.2119
26232W        W43080  10.100  10.590   1.935 -0.1765  0.1180 -0.1355
26233W        W43081   3.796  17.483  13.520  0.1437  0.3162  0.1456
26234W        W43082   2.557   1.316  12.891 -0.0696  0.1713  0.1488
26235W        W43083   5.863  10.907  11.982  0.2184  0.2292 -0.0593
26236W        W43084   8.629   5.995  14.321  0.2037  0.0339  0.2909
26237W        W43085  11.730  14.761   6.035 -0.0188 -0.0381 -0.1049
26238W        W43086   7.795  11.133  16.082 -0.0811  0.0538 -0.1316
26239W        W43087  17.103   8.221  14.045  0.3301  0.2506 -0.0629
26240W        W43088  11.657  10.596  12.964 -0.0253  0.1039  0.2066
26241W        W43089  12.423   2.377   3.730 -0.0540 -0.3326  0.1133
26242W        W43090   9.605   3.302  16.221  0.2009 -0.2240 -0.2018
26243W        W43091  12.173  14.513  12.117 -0.2727  0.1008 -0.1812
26244W        W43092  11.409  15.783  13.674 -0.0603  0.2704 -0.0484
26245W        W43093   2.543  14.415  13.988 -0.0362 -0.1388  0.1826
26246W        W43094  11.927   5.166   2.952 -0.0232 -0.1116 -0.0901
26247W        W43095   8.493   7.926   5.091  0.2391 -0.2778 -0.3348
26248W        W43096   2.890   0.444   4.040 -0.0047  0.1900  0.0727
26249W        W43097  13.898  17.676  12.556 -0.1188  0.0194  0.0583
26250W        W43098   7.648   4.656  15.193  0.1415  0.1042  0.1295
26251W        W43099  11.026   7.511  11.186  0.1816  0.2146 -0.1165
26252W        W43100   8.583   7.292   2.967  0.0477  0.1584  0.3183
26253W        W43101   2.099   0.006   1.628  0.1082  0.1369  0.4253
26254W        W43102   6.114   5.046  14.844  0.0621 -0.0281  0.0283
26255W        W43103   7.121   2.638   1.287  0.2182 -0.1665  0.1251
26256W        W43104   0.543   4.523  13.928 -0.1397  0.2329  0.0209
26257W        W43105   6.832  15.796  14.538 -0.0569 -0.1502  0.0555
26258W        W43106  11.166   2.698   2.508 -0.0568  0.2830 -0.3591
26259W        W43107   8.611  13.347  12.762 -0.0765  0.0013  0.0139
26260W        W43108   6.938  11.383  14.757 -0.0170  0.2582  0.0648
26261W        W43109   1.337   6.647  12.428  0.1077 -0.2224  0.1594
26262W        W43110   9.390   8.061  14.899 -0.2724 -0.0557  0.0168
26263W        W43111  10.184  10.313   4.311 -0.0606  0.2320  0.2894
26264W        W43112   0.880   0.740  12.988  0.0934 -0.0130 -0.2483
26265W        W43113   2.129   4.180  12.697  0.0605 -0.3255  0.0153
26266W        W43114   3.032   4.888  12.581  0.3086 -0.0197 -0.0007
26267W        W43115   2.633  11.739  15.031  0.0708  0.0517 -0.2322
26268W        W43116   0.004  14.157  13.283  0.0534 -0.0916 -0.0349
26269W        W43117   4.555   1.192  13.858 -0.0982  0.0265  0.1011
26270W        W43118  14.482  15.965   0.118 -0.1171 -0.0725 -0.0805
26271W        W43119   5.545   7.990  12.894 -0.1793 -0.2168 -0.2254
26272W        W43120  10.413   1.366  12.607  0.1287  0.2352 -0.1825
26273W        W43121   0.345   6.926   0.565 -0.1042  0.0940  0.2353
26274W        W43122  11.363  17.290  12.614 -0.0190  0.2636  0.0136
26275W        W43123   5.118  13.435  11.837 -0.0116 -0.2640 -0.0727
26276W        W43124   9.379   2.896  15.371  0.0774 -0.1386 -0.0647
26277W        W43125  12.604   7.478  15.514  0.0522 -0.1444 -0.2062
26278W        W43126   2.269   3.623  12.666 -0.1453 -0.0345 -0.2222
26279W        W43127  12.676   9.591  14.767  0.2335 -0.0255 -0.0141
26280W        W43128   3.677   2.906   2.488  0.2550 -0.0780  0.2191
26281W        W43129  10.793  14.323   2.242  0.0583  0.1043 -0.2871
26282W        W43130   9.063  15.641   3.418  0.1523 -0.2241  0.1964
26283W        W43131  17.428  10.762  14.588  0.1058  0.0618 -0.0721
26284W        W43132  14.581   3.628  11.291 -0.2891  0.1150 -0.1437
26285W        W43133   5.526  14.244  14.367 -0.1836 -0.2473  0.0126
26286W        W43134  12.380  17.110   0.898 -0.3525 -0.1310 -0.3196
26287W        W43135  12.877   4.483   4.884  0.2478  0.0317  0.1945
26288W        W43136  17.380   5.514   4.982 -0.1661 -0.3549 -0.2775
26289W        W43137  14.986  16.268   0.141 -0.1400 -0.0933 -0.0476
26290W        W43138   5.003  10.750   0.181 -0.1649  0.1108 -0.0897
26291W        W43139  14.092   2.416  16.165 -0.1881 -0.0207  0.2502
26292W        W43140  10.496   2.923   1.171 -0.1473 -0.0251  0.0589
26293W        W43141   8.374  17.687  15.641 -0.0097  0.3386 -0.0804
26294W        W43142  14.563  15.695   0.977  0.0328 -0.0156  0.0895
26295W        W43143  15.345  17.145  14.173 -0.1624  0.2206 -0.2433
26296W        W43144   9.066  10.397   1.070  0.2543  0.0683 -0.1069
26297W        W43145  16.120   4.520   3.779  0.0646  0.0717 -0.4939
26298W        W43146   0.769  14.536  14.779  0.0934 -0.0887 -0.1062
26299W        W43147  10.265   2.920   5.892 -0.2617  0.0143 -0.1033
26300W        W43148  10.056   8.820   1.329 -0.0573 -0.0088  0.0810
26301W        W43149  12.771   7.286   0.537 -0.0514 -0.0393  0.0636
26302W        W43150   4.537   5.005   4.419  0.0216 -0.1462  0.0184
26303W        W43151   0.466  10.359   4.140 -0.3141 -0.2005 -0.2320
26304W        W43152  15.608  13.472  11.986  0.0427 -0.1209 -0.1587
26305W        W43153   0.227   6.205   1.251  0.0873  0.3351  0.1120
26306W        W43154   2.383   8.581   4.366  0.0036 -0.0114 -0.2655
26307W        W43155  11.313  10.928   3.220  0.1379 -0.1798  0.0079
26308W        W43156   7.738  11.610  12.112 -0.0639 -0.1614  0.0828
26309W        W43157  17.446   6.865  12.521 -0.1724  0.3400 -0.2749
26310W        W43158   6.849  15.777  16.249  0.1490 -0.2008  0.0248
26311W        W43159  16.512   6.840   3.420 -0.0438 -0.2505 -0.0357
26312W        W43160  11.697  13.383  15.928 -0.3145 -0.2008 -0.2770
26313W        W43161   5.273   8.511  14.686 -0.1362  0.1345 -0.0678
26314W        W43162  16.207  12.781   3.679  0.1163  0.0609 -0.2036
26315W        W43163  14.718   4.066   1.080 -0.1974  0.0987 -0.0180
26316W        W43164   4.068  11.139   4.971 -0.3076  0.1624  0.3001
26317W        W43165   7.895   9.151   4.677  0.0723 -0.0066  0.2183
26318W        W43166   2.624   1.770   2.310 -0.3102  0.1901 -0.2528
26319W        W43167   8.448   5.362  11.735  0.0778 -0.0822  0.0554
26320W        W43168   6.046  10.370   3.806  0.2674  0.4174 -0.1702
26321W        W43169  16.668  13.392  10.768 -0.1439 -0.2931  0.0985
26322W        W43170  11.170   8.152   0.162  0.0472 -0.0241  0.1156
26323W        W43171  16.996   0.442  13.181 -0.2008  0.0306  0.0781
26324W        W43172  10.392  15.000  14.490 -0.1474 -0.2593  0.2018
26325W        W43173  10.509   9.016   5.552 -0.1041 -0.0678  0.3445
26326W        W43174   1.677   6.218   0.012  0.4483 -0.0975  0.2254
26327W        W43175   4.485   5.902   5.461  0.0656  0.1063  0.0741
26328W        W43176   0.681   0.432   3.310 -0.1101 -0.0069  0.5608
26329W        W43177   4.546   5.856  12.767  0.1768  0.3254 -0.1286
26330W        W43178   1.737  15.156  15.570 -0.0527 -0.0705 -0.0508
26331W        W43179  12.057   1.955  12.903 -0.1323 -0.2865 -0.0784
26332W        W43180  13.401   0.611  13.351  0.0224 -0.0010 -0.2081
26333W        W43181  16.528   6.465  14.909  0.0131  0.1075 -0.1818
26334W        W43182  12.614   8.660  14.881 -0.3043  0.3881 -0.2160
26335W        W43183   5.616   4.110   2.397  0.0188  0.3995  0.0458
26336W        W43184  10.633  12.734   5.700 -0.2493 -0.1514  0.2815
26337W        W43185  14.508   0.884  11.049  0.1815 -0.0124  0.4265
26338W        W43186   0.210  17.534   3.643 -0.3277  0.0078 -0.0347
26339W        W43187  10.455  11.713  15.130  0.3996 -0.2076 -0.0793
26340W        W43188   0.120  15.675   2.153 -0.0974  0.2143 -0.1863
26341W        W43189  14.191  14.985  14.011  0.1715  0.1433 -0.2108
26342W        W43190   2.414  14.822  11.102 -0.0618  0.2728 -0.2102
26343W        W43191  14.444   1.738  14.584 -0.0187 -0.0014 -0.1061
26344W        W43192  16.962  15.041   3.887 -0.2694 -0.0074  0.1578
26345W        W43193  11.038  11.433   6.471 -0.1233 -0.1921 -0.0005
26346W        W43194   3.054  17.312   5.168  0.1504  0.1475 -0.0327
26347W        W43195   2.881  14.474  14.372 -0.1641 -0.0769 -0.1733
26348W        W43196  12.010  10.915  14.264  0.3592  0.0404 -0.0789
26349W        W43197   6.092  16.282   5.285 -0.0071 -0.0385  0.0841
26350W        W43198   7.250  12.283  16.067  0.0884  0.1827 -0.0287
26351W        W43199   5.112   5.038   0.622  0.3118  0.0985  0.0881
26352W        W43200   2.454  15.644  13.254 -0.0869  0.3335 -0.0761
26353W        W43201   0.877  12.972  15.396 -0.2414  0.1467 -0.0548
26354W        W43202   8.176   4.024   1.903  0.1311 -0.1956  0.1573
26355W        W43203   9.777  10.942   3.354  0.2968 -0.3630  0.0577
26356W        W43204   2.090  13.041  12.244  0.2311 -0.5671 -0.5254
26357W        W43205   5.190   5.022   4.738 -0.2848 -0.1527  0.1058
26358W        W43206  17.067  11.270  12.231 -0.0045 -0.2115 -0.4006
26359W        W43207   1.686   4.853   5.230  0.3760 -0.3498  0.1109
26360W        W43208   5.114  16.609   1.815  0.0142  0.1393  0.3177
26361W        W43209   4.448   2.319  14.996 -0.1191  0.2157  0.0192
26362W        W43210   0.452   4.048  12.703  0.0743  0.1721  0.1085
26363W        W43211  14.548   6.518  11.586  0.0555 -0.0238 -0.0407
26364W        W43212   9.836  15.874   3.069 -0.1979  0.1667  0.0334
26365W        W43213  12.246  12.968  12.750  0.1238  0.1881  0.0902
26366W        W43214   9.574  12.471   1.335 -0.1539 -0.3501 -0.3328
26367W        W43215   2.843  15.964  13.432  0.2391 -0.0723 -0.0006
26368W        W43216   2.834  16.285   0.088  0.1868  0.0951 -0.1611
26369W        W43217  14.734  16.832  15.681 -0.0714  0.0952  0.0381
26370W        W43218   7.896  11.540  10.789  0.2038 -0.0359  0.1476
26371W        W43219  15.808   8.253   3.221  0.0836 -0.4809  0.2379
26372W        W43220  10.413  17.401  12.599 -0.2271 -0.0423  0.2072
26373W        W43221  10.812  13.417  15.038  0.0257  0.2989 -0.1958
26374W        W43222  13.449   2.618  11.165 -0.0773  0.3426  0.1473
26375W        W43223   6.637  14.938  12.008 -0.1352 -0.0128 -0.1816
26376W        W43224   3.398  17.400  12.803 -0.1705 -0.0575  0.1253
26377W        W43225   0.302   5.385  16.433  0.1145  0.4490 -0.0075
26378W        W43226  14.573   0.336   1.268 -0.1091  0.2167 -0.0927
26379W        W43227   5.746  15.192  14.914  0.0267  0.3422 -0.0913
26380W        W43228  11.706  14.063  15.008  0.0994 -0.0034 -0.2629
26381W        W43229  16.970  14.509  11.386  0.2832 -0.1509 -0.2803
26382W        W43230   9.419   8.990   0.325  0.0231 -0.0776 -0.3270
26383W        W43231  17.731   9.580   3.381 -0.1584 -0.2699 -0.0421
26384W        W43232   5.243   5.446   3.383  0.0997 -0.0073 -0.1101
26385W        W43233   3.918  11.726  15.782 -0.4565  0.1467 -0.0476
26386W        W43234   7.387  11.498   0.130  0.0086 -0.2407  0.1944
26387W        W43235   1.174   5.578   4.398  0.0610 -0.1253 -0.2204
26388W        W43236  12.375  16.700   1.193  0.1019  0.2328 -0.1380
26389W        W43237   1.674  15.549   3.636  0.1141 -0.1455 -0.1637
26390W        W43238  10.573  17.206  14.539  0.3238 -0.0552  0.1829
26391W        W43239   4.264  14.898   2.311  0.1436  0.2270  0.1419
26392W        W43240   6.322   2.938  13.077 -0.0244  0.0060 -0.0611
26393W        W43241   7.766  11.000   0.710 -0.1560  0.1599  0.0894
26394W        W43242   8.424   1.074  15.074 -0.0361 -0.0575  0.0876
26395W        W43243   9.970   4.986   5.561  0.0047  0.0693  0.0107
26396W        W43244   1.211  14.076  13.521  0.0355  0.3350  0.0564
26397W        W43245   0.774   1.044  13.958 -0.0803  0.3007 -0.2160
26398W        W43246   7.798   0.613   2.800 -0.0083 -0.2519 -0.0515
26399W        W43247   9.283   8.543   1.704 -0.0178 -0.2108  0.2177
26400W        W43248   9.800   2.563  15.376 -0.2955 -0.3891 -0.0901
26401W        W43249  16.821   8.835   1.117 -0.1630  0.1629 -0.2061
26402W        W43250  15.760  13.385   2.887  0.3409 -0.0432 -0.1107
26403W        W43251   0.154  15.820   1.621  0.1925 -0.0469 -0.0854
26404W        W43252  12.240  15.941   4.022 -0.0301  0.0517  0.0280
26405W        W43253  12.689   7.572  11.911  0.1113  0.0351  0.2388
26406W        W43254   0.225   4.995  11.883  0.1237 -0.2380  0.0479
26407W        W43255   5.804   9.079  12.083  0.0243  0.2849 -0.0051
26408W        W43256   9.729   0.416   3.245 -0.2927 -0.0684 -0.0447
26409W        W43257  17.076  15.970  14.416 -0.3030  0.3392  0.2451
26410W        W43258  13.869   4.662   0.906 -0.0816 -0.0857 -0.0774
26411W        W43259  11.322  11.898  12.342  0.1052 -0.0369  0.0931
26412W        W43260   0.874   6.981   3.542 -0.0411  0.0751  0.2345
26413W        W43261  10.690  12.113   0.290  0.1680 -0.0199  0.0199
26414W        W43262  17.047  15.967   1.111 -0.4879 -0.2291 -0.0404
26415W        W43263   8.098  11.223   3.874  0.1692 -0.1363  0.0594
26416W        W43264  12.598  10.093   3.321  0.0049  0.0188  0.0297
26417W        W43265   1.439  12.857   1.118  0.0752  0.0633 -0.1135
26418W        W43266   4.915  11.581   4.793  0.4405 -0.1200  0.1730
26419W        W43267   9.899  13.565   4.230  0.1131  0.0501  0.3027
26420W        W43268   6.127   1.456  12.069 -0.0547 -0.0270 -0.0385
26421W        W43269   6.331  16.216  13.052 -0.2816  0.3631  0.1296
26422W        W43270  16.470   7.441  15.615 -0.1973  0.3336  0.0966
26423W        W43271   0.409  17.377  16.383  0.1922 -0.1189 -0.0652
26424W        W43272   6.651   9.052   0.472 -0.1031 -0.1113 -0.3907
26425W        W43273   0.491   1.432  11.348 -0.3248  0.1162 -0.1743
26426W        W43274  16.495  10.259   2.974 -0.0377 -0.2076  0.1478
26427W        W43275  11.814  17.078   1.746 -0.2780 -0.2246  0.1382
26428W        W43276   3.338  13.132  15.020 -0.2831 -0.1137  0.0201
26429W        W43277  17.125  13.270  16.238  0.1412  0.2121  0.0873
26430W        W43278   1.035   5.555  14.309  0.1261  0.3486 -0.2429
26431W        W43279  11.744  11.456   0.538 -0.2193 -0.1913  0.0925
26432W        W43280   6.904  11.777   4.915 -0.2029  0.0710  0.0862
26433W        W43281   2.104  10.568   5.466  0.2598  0.1757  0.1797
26434W        W43282   7.791  11.759   0.937  0.1729  0.0469  0.1762
26435W        W43283   0.242   4.858   2.400 -0.0274 -0.2494 -0.3177
26436W        W43284   0.613   8.802  14.657  0.0047  0.1101 -0.0167
26437W        W43285   9.362  14.328  15.447  0.0187 -0.4121  0.0221
26438W        W43286   7.677  13.067  11.697 -0.1436 -0.0750  0.1305
26439W        W43287   8.753  15.508   2.554  0.2410 -0.2480  0.1873
26440W        W43288   0.415  17.035   0.259  0.0066  0.1432  0.0203
26441W        W43289   6.662  13.075  15.208 -0.4934 -0.0337  0.2693
26442W        W43290  13.632  15.753   2.487  0.1889 -0.0284  0.0968
26443W        W43291   1.787  10.720  11.126  0.0475  0.1758  0.0985
26444W        W43292  10.967   6.378  13.414 -0.1062  0.0921  0.0289
26445W        W43293   3.380   0.628   4.264 -0.2459  0.0802 -0.0532
26446W        W43294  15.482  12.344   2.409  0.1227  0.0522 -0.0061
26447W        W43295  13.765  11.416  15.674  0.1769  0.1341 -0.2920
26448W        W43296   3.371  17.262   2.567 -0.1617  0.1366  0.0120
26449W        W43297   7.725   8.849   1.525 -0.2919  0.3221 -0.3058
26450W        W43298  13.668  13.151  12.223 -0.0061  0.2463  0.0275
26451W        W43299   9.192  11.781   5.301  0.1670  0.2430 -0.2448
26452W        W43300   7.857   8.984   3.013 -0.0497 -0.0543 -0.0323
26453W        W43301   8.083  16.785   2.251  0.2183 -0.0542 -0.0720
26454W        W43302  10.908   0.394  13.235  0.1678 -0.3409  0.0488
26455W        W43303   0.519   6.917  11.728 -0.1958 -0.2447  0.0081
26456W        W43304   7.455   5.792   4.693 -0.0958  0.0182 -0.1778
26457W        W43305   9.899  13.664   0.962 -0.1236  0.5282 -0.0395
26458W        W43306   2.931  11.461  10.916 -0.1782 -0.3200  0.1477
26459W        W43307  11.312   5.902   0.154 -0.2064 -0.2504  0.2286
26460W        W43308   6.916  15.481   1.373  0.2828 -0.0305 -0.0169
26461W        W43309   4.776   6.351   2.451 -0.2472 -0.1465 -0.0756
26462W        W43310   0.507  16.791   2.870 -0.1390  0.5256 -0.2776
26463W        W43311   3.603  12.087   2.444 -0.1121  0.1173 -0.0820
26464W        W43312  13.526  14.426  12.240 -0.0524  0.1316 -0.1217
26465W        W43313   4.056  17.343   3.751 -0.1281  0.1016 -0.2681
26466W        W43314   8.497   1.512   3.579 -0.2263 -0.0176  0.1644
26467W        W43315  11.648   5.323   3.488 -0.4059 -0.2537 -0.1110
26468W        W43316  10.942   1.611   4.252  0.2721 -0.1444 -0.3763
26469W        W43317  17.289   1.738  15.272 -0.3922 -0.1717 -0.0872
26470W        W43318  13.578   1.180   0.170 -0.0353  0.3240  0.1613
26471W        W43319  14.920   4.937  13.930 -0.0366  0.0332 -0.1162
26472W        W43320   6.357   4.355   4.268  0.0019  0.3904  0.0603
26473W        W43321   8.162   0.403   0.455 -0.2291 -0.0738 -0.0246
26474W        W43322  14.423  13.763   1.024  0.3654 -0.0352 -0.1745
26475W        W43323  16.005   3.962   1.263 -0.1460  0.0123  0.0017
26476W        W43324  12.815  15.677   4.122  0.0387 -0.1015 -0.2909
26477W        W43325   2.343  17.142  14.806  0.0026  0.2703 -0.1991
26478W        W43326  10.881  15.205   4.704 -0.3245 -0.2440  0.1170
26479W        W43327   5.180   7.577   1.005 -0.0863  0.1051  0.1763
26480W        W43328   6.322  17.209   4.865 -0.1094  0.0076  0.0605
26481W        W43329   5.531  16.811  13.130 -0.3407 -0.2383 -0.3763
26482W        W43330   8.855   0.132  12.217 -0.0397 -0.3002  0.0437
26483W        W43331  11.781   1.368   3.562 -0.4457 -0.0592  0.1709
26484W        W43332   9.510   1.188  15.433  0.0935 -0.0385 -0.0634
26485W        W43333   0.629  15.752  13.954 -0.0306  0.0220 -0.0161
26486W        W43334   9.369  10.221  10.826 -0.1860 -0.4588 -0.4033
26487W        W43335  11.047   6.484  11.713  0.1000  0.3104 -0.1252
26488W        W43336   1.861   4.637  14.099 -0.0504 -0.1016  0.0167
26489W        W43337   5.506  12.336   2.410  0.1537  0.0303  0.1192
26490W        W43338   6.361  17.113  10.959  0.1879 -0.0226 -0.1913
26491W        W43339   2.801  15.111   4.305 -0.0100  0.0278  0.0860
26492W        W43340  13.813   7.499   5.670 -0.2544 -0.1411  0.1259
26493W        W43341   3.922   0.461  14.158  0.2490 -0.1429  0.0874
26494W        W43342  17.112   5.127  12.773  0.1188 -0.0879  0.2361
26495W        W43343  14.228   2.778   0.049 -0.1042  0.1743 -0.0605
26496W        W43344   2.705   4.771   4.784  0.1744  0.0750 -0.1118
26497W        W43345   2.579   3.848   5.090  0.2879 -0.2157  0.2803
26498W        W43346   7.167  11.746  11.357 -0.2934  0.1500  0.0988
26499W        W43347  10.906   7.001  11.504 -0.2690 -0.3469 -0.0264
26500W        W43348   7.448  15.802   0.643 -0.1612  0.1379 -0.0857
26501W        W43349  10.171   3.318   3.498  0.1584  0.1359  0.3374
26502W        W43350   4.753   6.848   1.281 -0.1087 -0.1195  0.2259
26503W        W43351   4.317  12.551  12.581 -0.0413 -0.0432 -0.3318
26504W        W43352   9.206  17.419   5.226  0.2022 -0.3128  0.2379
26505W        W43353   4.179   7.671  15.919  0.0528 -0.0731  0.1254
26506W        W43354  17.845  14.848  13.491 -0.0205 -0.0408  0.2535
26507W        W43355  13.600   0.013  11.638  0.1791 -0.1018 -0.1481
26508W        W43356   7.441  17.858  14.018 -0.0618  0.1743  0.0483
26509W        W43357   4.182  11.771   3.951 -0.1858  0.0976 -0.0947
26510W        W43358   3.473   3.887   5.395 -0.0747  0.2113  0.2512
26511W        W43359   5.488  11.456   2.731 -0.0124 -0.2684 -0.1338
26512W        W43360   7.799  15.705  11.936 -0.0886  0.1555  0.0692
26513W        W43361  11.973  12.351   2.858 -0.3790 -0.0498 -0.1268
26514W        W43362  15.363  13.486   2.330  0.2162  0.1109 -0.3097
26515W        W43363  17.700   2.195  14.480  0.1023 -0.0162 -0.0437
26516W        W43364   0.591   2.664   2.416  0.2367 -0.2295 -0.0563
26517W        W43365  16.352  13.807  14.624  0.0835  0.0911 -0.0297
26518W        W43366   3.962   4.439   1.395  0.0278 -0.1172 -0.3902
26519W        W43367   1.163   2.336   5.454  0.0624 -0.3033  0.2392
26520W        W43368   8.531  14.432   0.411 -0.1813 -0.2250 -0.2245
26521W        W43369  13.819   5.662   4.571  0.0319  0.2818 -0.0426
26522W        W43370  17.520   7.741  13.461 -0.0522 -0.0155 -0.0241
26523W        W43371  14.571   7.092  12.883 -0.2456 -0.1796  0.0012
26524W        W43372   3.290   6.607  13.250  0.1975 -0.3069  0.3881
26525W        W43373   7.986  14.278   4.337 -0.1489 -0.0163  0.0168
26526W        W43374  11.107   8.764  10.106  0.1193  0.0857 -0.0648
26527W        W43375   6.096   0.225  12.961  0.0705  0.1070 -0.0549
26528W        W43376  17.262  12.798   4.455 -0.2277 -0.2176  0.1818
26529W        W43377   1.447  11.798   0.697 -0.0003 -0.1837  0.1686
26530W        W43378  17.626  15.727   4.263  0.1608  0.0164 -0.0301
26531W        W43379  17.483  15.127  12.483  0.0963  0.1522  0.1555
26532W        W43380   8.550   3.624   1.971 -0.3412  0.1127  0.3512
26533W        W43381   9.689   1.351   1.609  0.1962 -0.0848 -0.1997
26534W        W43382   6.488  11.980   3.985  0.0552  0.0476  0.0416
26535W        W43383   5.697   5.225  12.297 -0.5357 -0.2409  0.2094
26536W        W43384  10.486   3.852   0.081 -0.2252 -0.2492 -0.0044
26537W        W43385   1.797   8.255   1.704  0.1615 -0.2008  0.0835
26538W        W43386   3.378  13.030   1.560  0.2933 -0.3180  0.0956
26539W        W43387  11.375  14.349   2.088 -0.1614  0.0233 -0.3153
26540W        W43388  10.555  17.177   1.757 -0.3234  0.0197  0.0457
26541W        W43389  12.038   2.745   4.658 -0.2878 -0.3912 -0.1580
26542W        W43390   2.788   9.086   2.406 -0.2411  0.3542 -0.0921
26543W        W43391   6.820   7.822   3.281  0.0509  0.0825  0.0866
26544W        W43392  10.762  14.268  13.576 -0.1393 -0.0076 -0.1623
26545W        W43393  10.868   3.228   5.340  0.3042 -0.0100  0.1386
26546W        W43394  17.350   5.625  12.593  0.2712  0.3121 -0.0637
26547W        W43395   9.390  12.637   2.996 -0.1523  0.0244 -0.5798
26548W        W43396   1.876  13.131  16.311  0.0537 -0.1472 -0.2512
26549W        W43397  12.874   1.253  16.327  0.0574 -0.0753  0.5001
26550W        W43398  10.284   7.395  10.970 -0.2441 -0.2149  0.1748
26551W        W43399  14.226  14.763   1.298  0.0599 -0.3169 -0.0225
26552W        W43400   7.220  10.309   5.529 -0.3305 -0.0117 -0.3289
26553W        W43401  11.981  14.716   3.551 -0.0843 -0.2354  0.0516
26554W        W43402   8.287  13.967   0.458  0.1262 -0.0852 -0.2823
26555W        W43403   3.462   7.322  11.588  0.2275 -0.3706  0.0662
26556W        W43404  13.069   4.251   5.267 -0.1921  0.1446 -0.3577
26557W        W43405  11.129  12.799   5.291  0.3009  0.3009  0.0136
26558W        W43406  13.858  15.646  12.424 -0.0067  0.3179  0.0266
26559W        W43407   1.706   6.406  14.175 -0.1567  0.3152  0.4616
26560W        W43408  13.063   4.102   0.715 -0.0738 -0.0245  0.0541
26561W        W43409  10.152  15.415   5.541 -0.1461  0.0288 -0.0148
26562W        W43410   3.557   1.165   3.124  0.0372 -0.0749  0.2018
26563W        W43411   2.100   1.406   3.392 -0.1625 -0.1396  0.1397
26564W        W43412   5.044  10.179   0.207 -0.0622 -0.1132  0.3451
26565W        W43413  10.331  10.430   4.746  0.0436  0.2632  0.0284
26566W        W43414   2.804  13.658  15.228  0.0088 -0.2864 -0.3895
26567W        W43415  15.761   0.814   1.216  0.0854 -0.0719  0.2237
26568W        W43416   5.489  16.774  15.288  0.3931  0.1873 -0.3981
26569W        W43417  11.574   4.417   3.499  0.1538  0.0940 -0.2943
26570W        W43418   6.367   7.780   5.583 -0.0891 -0.0390  0.0261
26571W        W43419   9.369  13.642   3.880 -0.0011 -0.1106 -0.1039
26572W        W43420   2.453   0.079   0.747  0.0084  0.0555  0.0280
26573W        W43421   9.547   7.524  13.291 -0.0677 -0.0005  0.1294
26574W        W43422  13.032  11.132   3.876  0.0642  0.1591 -0.0729
26575W        W43423  17.774  10.034  13.882  0.0891  0.1638  0.1174
26576W        W43424  14.938   0.175  16.285  0.3429 -0.1693  0.0528
26577W        W43425   7.104   5.487  16.447  0.3222  0.0516 -0.0103
26578W        W43426  14.438   9.491   3.161  0.4294 -0.0264 -0.2152
26579W        W43427   1.708  13.598   2.703 -0.0625  0.1191 -0.0750
26580W        W43428  11.775   5.731  14.711  0.4272  0.0052 -0.3775
26581W        W43429   4.680  14.486  16.247 -0.1306  0.1334  0.1827
26582W        W43430   7.991  15.849   2.830 -0.0198  0.0022 -0.0717
26583W        W43431   9.203  13.518   2.289  0.1682  0.3894 -0.2263
26584W        W43432  14.118  17.071   1.643  0.0193  0.0617  0.0339
26585W        W43433  11.211   7.365  13.179 -0.2337 -0.1353 -0.2668
26586W        W43434   5.489   8.532  12.799 -0.1839 -0.0689 -0.1564
26587W        W43435   4.485  13.626   0.740 -0.0082 -0.1317 -0.3274
26588W        W43436  11.764  11.461  14.343  0.1128 -0.0471  0.2828
26589W        W43437  17.328   5.525  11.482  0.0699 -0.1786  0.1146
26590W        W43438  13.048  17.299  14.950 -0.1307  0.1492  0.3401
26591W        W43439   5.748  13.700  16.328 -0.3260 -0.3752 -0.1329
26592W        W43440   7.292   8.572  15.556  0.4686  0.2197 -0.1887
26593W        W43441  15.811   7.831  15.796  0.0329 -0.0117 -0.1975
26594W        W43442   5.757   1.723  12.156  0.2118 -0.0747  0.2252
26595W        W43443   7.163  15.509   3.387 -0.0803 -0.1274  0.1143
26596W        W43444  10.506  12.973   3.371 -0.1426  0.2826  0.0805
26597W        W43445   0.441  12.762  15.495  0.0226  0.0164 -0.0867
26598W        W43446   5.214   7.291  11.793  0.0623  0.1528 -0.0401
26599W        W43447  13.742  17.526  16.458  0.1885  0.2300  0.3181
26600W        W43448  17.340   5.476   1.200 -0.0827  0.0656 -0.0589
26601W        W43449   7.025  17.831   3.049 -0.4051 -0.1583 -0.1711
26602W        W43450   3.234  10.621  15.028  0.1929  0.2246  0.2853
26603W        W43451   2.584   9.166  11.661  0.0937 -0.3909  0.0824
26604W        W43452  13.882  17.847  12.047  0.0376 -0.2806 -0.0033
26605W        W43453  16.944   5.161  10.492 -0.0299  0.0177 -0.0142
26606W        W43454  11.855  17.817   1.468  0.1734  0.1142  0.0583
26607W        W43455  11.816   2.017  13.320 -0.1384  0.3905  0.1214
26608W        W43456  12.829  11.187  12.286 -0.0142 -0.3498  0.1524
26609W        W43457   4.050  12.439  15.132 -0.0786 -0.0543 -0.0941
26610W        W43458   1.702   2.760   0.359  0.0982  0.3437  0.0953
26611W        W43459  13.038   7.752   3.576  0.0272 -0.1141  0.0792
26612W        W43460   0.439   2.700  15.290  0.2525 -0.0987  0.2294
26613W        W43461   4.804  17.723  13.398  0.1751  0.3820  0.1030
26614W        W43462   2.782   6.798  13.730 -0.1924 -0.0799 -0.0897
26615W        W43463   2.904  15.207   3.506  0.3778 -0.0175  0.0228
26616W        W43464   5.460  12.897   2.142 -0.1398  0.0646  0.0227
26617W        W43465   0.799  10.169  11.763 -0.2035  0.1569  0.0302
26618W        W43466   1.867   3.071   2.588  0.0601  0.1313  0.1635
26619W        W43467  10.780   3.613  13.274  0.0705 -0.0709 -0.0091
26620W        W43468  17.850   7.874  13.070  0.1049  0.1970  0.2677
26621W        W43469   9.639  12.735   1.755  0.1405 -0.1158 -0.0997
26622W        W43470   5.831   0.518  10.759  0.0499 -0.0607 -0.0468
26623W        W43471   9.212   6.463  15.530 -0.2581  0.0808  0.1779
26624W        W43472   9.618  13.456  14.508  0.1161 -0.0646 -0.2280
26625W        W43473   2.399  13.914  12.045  0.2380  0.0453 -0.0519
26626W        W43474   7.546   2.753   2.156 -0.2550 -0.2370 -0.2312
26627W        W43475   0.383  10.937   1.290 -0.2568  0.1512 -0.0570
26628W        W43476  15.880  13.895  13.751 -0.2063 -0.2001  0.2625
26629W        W43477   0.976   8.269   5.213  0.0956 -0.1304 -0.2018
26630W        W43478  11.547  16.511   1.198  0.1412  0.0177  0.0751
26631W        W43479   4.574   5.786   0.021 -0.1457 -0.1465 -0.2102
26632W        W43480   9.964  16.263   1.522  0.0215  0.1851 -0.1448
26633W        W43481  10.390   4.867   2.643 -0.0865 -0.1040  0.2310
26634W        W43482   5.050  17.100  13.009  0.2536 -0.3224  0.0048
26635W        W43483   9.200  17.079   4.396 -0.2673  0.2389  0.1278
26636W        W43484   7.525  14.357   0.401  0.3521  0.0746  0.2734
26637W        W43485  16.524  16.389  15.645 -0.0821 -0.1771  0.3001
26638W        W43486   3.194   3.718  16.365 -0.1036 -0.1362 -0.1290
26639W        W43487  16.575   5.899  12.420  0.0163 -0.1854 -0.0609
26640W        W43488  14.755  14.148  12.919  0.0189  0.0667  0.0754
26641W        W43489   3.707  11.423  12.132  0.0102 -0.1192  0.1256
26642W        W43490   2.406  11.643  12.211  0.1760  0.0598 -0.2344
26643W        W43491   3.898  17.871   0.831  0.2121  0.3048 -0.0148
26644W        W43492  13.350  13.236  15.859  0.0220  0.0699  0.1694
26645W        W43493  12.149   9.106   0.755 -0.0891  0.0691  0.0069
26646W        W43494   5.469   9.774   4.167 -0.1260  0.1238 -0.0431
26647W        W43495   4.101  13.408  15.563  0.1016  0.0764  0.0175
26648W        W43496   7.110  10.751   5.308 -0.2377 -0.0844  0.0964
26649W        W43497  14.975  11.493   0.109 -0.4439  0.1384  0.1256
26650W        W43498   7.596  10.450   4.146 -0.0680  0.1040 -0.1323
26651W        W43499   2.179   3.919   5.868 -0.3260 -0.0899  0.0664
26652W        W43500   3.201  10.410  13.450 -0.0576  0.1244  0.3591
26653W        W43501   6.253  14.168   0.127  0.1444 -0.1515  0.1245
26654W        W43502   2.914   2.567  13.807 -0.0628  0.1472  0.2607
26655W        W43503   5.682   8.289   1.360  0.2122  0.1059 -0.2099
26656W        W43504   1.065  14.623   2.173  0.0221 -0.0701 -0.1176
26657W        W43505   3.659   7.444  10.679  0.0396 -0.0406 -0.3346
26658W        W43506   8.972  13.027   2.268 -0.0890  0.2926  0.0436
26659W        W43507   2.150  14.903  13.982 -0.0771 -0.1380  0.0705
26660W        W43508  15.310   8.533   5.423  0.1686  0.0263  0.0970
26661W        W43509   5.488   9.443  13.518 -0.3239  0.2026 -0.2276
26662W        W43510  11.866   3.303  15.787  0.4366  0.1233  0.4232
26663W        W43511  15.715  17.318   3.023 -0.1098  0.1558  0.0326
26664W        W43512  14.352   9.437  15.197 -0.3305  0.1066 -0.2401
26665W        W43513   3.851  16.104  16.171  0.0875 -0.1437  0.2233
26666W        W43514   3.994   6.508   1.934 -0.1559  0.0258  0.0503
26667W        W43515  15.160   7.991   5.487 -0.3463 -0.0960  0.0466
26668W        W43516   2.858  14.089  13.072  0.0083 -0.0196  0.0403
26669W        W43517  15.449  10.407  13.878 -0.4892  0.1126  0.0131
26670W        W43518   1.389   1.731  14.209 -0.0270  0.2663 -0.1663
26671W        W43519   0.678  11.866  11.940 -0.0922  0.1067  0.0810
26672W        W43520  12.017   7.951   1.751  0.0632  0.1896 -0.3417
26673W        W43521  16.687   0.600   2.425 -0.1163 -0.1875 -0.1381
26674W        W43522  11.411   4.198  12.524 -0.2918  0.3101  0.1260
26675W        W43523   6.306  13.081   4.913  0.1217 -0.0632 -0.0031
26676W        W43524  13.177   9.931   2.454  0.0020  0.0281 -0.0543
26677W        W43525   0.556  12.001  12.413  0.1966  0.0065 -0.2346
26678W        W43526   1.810   2.608   3.397  0.2448 -0.1015 -0.0188
26679W        W43527  13.982  14.753   2.919  0.1989  0.0584 -0.1247
26680W        W43528  17.774  15.025  15.513  0.0855  0.2175 -0.2134
26681W        W43529   6.872   6.439  13.876  0.3078 -0.1506 -0.1014
26682W        W43530  17.791   4.488  13.294 -0.1771 -0.4215  0.0112
26683W        W43531  10.525   7.677   4.087 -0.0955 -0.2573 -0.0955
26684W        W43532  17.260   2.008  13.375 -0.2920 -0.1396 -0.1618
26685W        W43533   7.018  12.767  11.978  0.0212  0.2875  0.0972
26686W        W43534   0.741   0.957   5.485 -0.1670 -0.1171 -0.0700
26687W        W43535  10.655   3.162   4.241 -0.1103  0.0770 -0.2148
26688W        W43536   0.158   2.353  12.217  0.1372 -0.1281 -0.1518
26689W        W43537  10.980  16.307  12.078  0.6284  0.0807  0.0377
26690W        W43538   1.291   2.037  11.382  0.1274 -0.1491 -0.2246
26691W        W43539   1.924  10.179  15.758 -0.0587  0.2483  0.0017
26692W        W43540   7.080  16.214   4.304 -0.1589 -0.0739  0.2432
26693W        W43541   1.008  12.840  12.819  0.1988 -0.4106  0.3158
26694W        W43542   6.575   7.043   0.811  0.0847  0.0204 -0.0613
26695W        W43543   6.703  11.165  12.135 -0.0802 -0.2518  0.0401
26696W        W43544  14.508  16.271   2.176  0.1407  0.0987  0.1557
26697W        W43545   0.405   5.321  11.366  0.1077  0.1213  0.0536
26698W        W43546  13.821  14.369  11.825  0.2326 -0.4516  0.0501
26699W        W43547   0.060   9.439   4.399  0.1357 -0.1269  0.0792
26700W        W43548  14.568  15.757   4.986  0.2238  0.0690 -0.2872
26701W        W43549   3.489   2.153   3.392 -0.4133  0.4181  0.0417
26702W        W43550  16.145   0.140   2.917 -0.1042  0.1820 -0.2016
26703W        W43551  10.526  15.480   1.186  0.0525 -0.0797  0.1103
26704W        W43552   4.437  13.045   3.172 -0.1814  0.1717 -0.3307
26705W        W43553  16.727  14.128  13.966  0.1197 -0.2029  0.2077
26706W        W43554   1.681   3.190   1.970  0.0508  0.0346 -0.1735
26707W        W43555  16.578   6.604  13.027  0.1566  0.0380 -0.1915
26708W        W43556  16.599  12.373  16.007  0.2624  0.3095 -0.1992
26709W        W43557  11.851  13.809   5.047  0.0369 -0.1411  0.1948
26710W        W43558   6.787   9.639   1.424  0.1937 -0.2805  0.1620
26711W        W43559  17.406  11.482   1.444 -0.0952  0.0118  0.2682
26712W        W43560   4.043   1.542  14.494 -0.2080  0.1075 -0.1598
26713W        W43561   4.908  11.386  15.910 -0.1347  0.0382 -0.1457
26714W        W43562  14.884   0.619   1.487  0.0432 -0.0699 -0.1612
26715W        W43563  17.580   3.112  15.669 -0.1286 -0.0314 -0.0335
26716W        W43564   2.942   5.785  12.182 -0.3105  0.1376  0.0696
26717W        W43565   9.578   2.883  12.305 -0.1863  0.0616  0.1881
26718W        W43566   4.011  15.992  14.297 -0.0888 -0.1622  0.4532
26719W        W43567   3.478   0.410  13.925 -0.0051  0.2476  0.3633
26720W        W43568   3.971   0.597  15.443 -0.1095  0.4022 -0.0768
26721W        W43569  14.546  15.948   1.519 -0.3815  0.0926  0.0240
26722W        W43570   4.107  14.765  11.705 -0.1984  0.0288  0.0723
26723W        W43571   4.318   4.728  12.985  0.0657  0.1667 -0.0859
26724W        W43572   3.240  16.046   4.386  0.0894 -0.2942 -0.0370
26725W        W43573  12.640   5.490  13.833  0.4960 -0.0084  0.1443
26726W        W43574   4.916  14.250   4.368 -0.0591  0.1979  0.0107
26727W        W43575  14.283  12.572  14.629 -0.2392 -0.2083 -0.1479
26728W        W43576   0.110  10.149   0.634  0.2503 -0.1856  0.1180
26729W        W43577  12.356   0.123   2.339 -0.0930  0.0585  0.1778
26730W        W43578   7.412  12.377  12.461 -0.2607  0.0982  0.2639
26731W        W43579   7.851  12.642  12.465  0.1313 -0.2291  0.0093
26732W        W43580  16.677   2.537  11.447  0.2240 -0.4155  0.2077
26733W        W43581   6.013   4.938  16.049  0.0905 -0.2940  0.1281
26734W        W43582  12.625  14.353  11.782 -0.1453  0.2264 -0.1494
26735W        W43583  16.593   1.257  12.488  0.2079 -0.0072 -0.1222
26736W        W43584  12.217   9.933   3.667 -0.0884 -0.1536 -0.2873
26737W        W43585   5.160   7.949   1.372 -0.2369 -0.0519 -0.0489
26738W        W43586  15.371   7.351   1.776  0.1851 -0.1857 -0.0301
26739W        W43587  15.362  13.632  14.522  0.0313 -0.0603  0.1030
26740W        W43588   1.805  11.589  13.909  0.0707  0.2942 -0.1059
26741W        W43589   2.529  10.741  10.536 -0.0784 -0.2872 -0.1616
26742W        W43590  15.435  16.310   1.948 -0.0517 -0.2798 -0.0256
26743W        W43591  17.187   3.639  12.143  0.1815 -0.0932  0.1651
26744W        W43592  13.116   2.988  13.262  0.0175  0.1845  0.0163
26745W        W43593  11.867   9.303   2.501 -0.2281 -0.0785  0.0444
26746W        W43594   2.653   3.324   1.843  0.2851 -0.0486 -0.5568
26747W        W43595   1.000   7.796   3.856  0.1873  0.3271  0.0059
26748W        W43596   8.999   2.675   2.777 -0.1656  0.0930 -0.1734
26749W        W43597   0.031   8.118   4.216 -0.1250 -0.1320  0.2150
26750W        W43598   7.530   7.377  15.836 -0.0973 -0.0244 -0.1033
26751W        W43599   3.229  14.214   4.577 -0.0322  0.0371  0.0778
26752W        W43600  15.437  17.179  11.524  0.2402  0.0050 -0.1822
26753W        W43601  13.071   7.314  11.739  0.1839 -0.0838  0.1423
26754W        W43602   4.435   9.524   5.027 -0.0693 -0.1990 -0.1376
26755W        W43603   5.570   2.630  16.398 -0.1317 -0.3796  0.2646
26756W        W43604  15.222   0.275   4.729 -0.0773  0.1361  0.1196
26757W        W43605   7.125  11.868  16.384 -0.0097  0.1724  0.3286
26758W        W43606   0.535   0.803   0.437  0.1635  0.0718 -0.1486
26759W        W43607  16.096   0.173  12.221  0.0059 -0.0773 -0.0845
26760W        W43608   1.761   6.807  11.558 -0.1618 -0.2291  0.4363
26761W        W43609   6.049  14.572  13.408 -0.0844 -0.0824  0.2016
26762W        W43610   1.296   7.648   3.437 -0.1571  0.1835 -0.0068
26763W        W43611  16.283   2.453   3.349  0.1649 -0.1836  0.0527
26764W        W43612   1.495  13.850   1.637  0.2700  0.2743 -0.1342
26765W        W43613   6.858  14.108  12.152  0.1751  0.0878 -0.1294
26766W        W43614   8.318   8.163  13.617 -0.0778 -0.2905 -0.1500
26767W        W43615  16.990  15.612  15.190  0.0355 -0.1716 -0.1063
26768W        W43616  11.618   8.706  16.268  0.2020  0.0664 -0.1393
26769W        W43617  17.685   0.671   4.243 -0.0313 -0.2955 -0.0341
26770W        W43618   3.248   2.987   0.380  0.2111  0.0239 -0.0188
26771W        W43619   7.582   3.777   3.956  0.0441  0.2550 -0.3125
26772W        W43620   5.658   8.246  12.394  0.1509 -0.1931  0.0144
26773W        W43621   4.604  17.542  10.860  0.0839  0.1400 -0.0735
26774W        W43622   4.466   6.184  15.330  0.2919  0.2317  0.0992
26775W        W43623  11.562  12.689   3.622 -0.0223 -0.0697  0.1800
26776W        W43624  15.617   2.895  11.721  0.0802  0.1374  0.0835
26777W        W43625  13.710   9.943  13.483 -0.2719  0.0172  0.0409
26778W        W43626   5.957   5.907   2.863 -0.0713 -0.1155 -0.0027
26779W        W43627   4.839   0.460   3.506  0.0729  0.1041 -0.2456
26780W        W43628  16.129  13.940  15.591  0.2899 -0.2153  0.2463
26781W        W43629   3.914   3.938  16.225 -0.2611  0.1914 -0.1805
26782W        W43630   4.780  15.904  14.927 -0.1587 -0.0518  0.2088
26783W        W43631   3.674  14.620   5.266  0.3960  0.4164  0.0194
26784W        W43632  10.251  16.261  11.620  0.0953 -0.2404 -0.1097
26785W        W43633   9.956  16.542  12.628  0.4307  0.4147  0.0645
26786W        W43634   8.648  15.978  16.041  0.0632 -0.0732  0.1935
26787W        W43635   2.324   0.591  12.506  0.1650  0.1644  0.0627
26788W        W43636   6.853   9.333   3.796 -0.1203 -0.0712  0.2032
26789W        W43637  11.471   0.537   2.130 -0.1279  0.1523  0.0216
26790W        W43638   9.240   3.088   2.587  0.2723  0.0254 -0.0378
26791W        W43639  12.164  17.591   2.417 -0.4407  0.1245 -0.2423
26792W        W43640   4.445  10.940   3.991  0.0889  0.0897 -0.5447
26793W        W43641   3.293  13.432   2.822  0.2103 -0.0910 -0.3623
26794W        W43642   1.483  13.056   3.550 -0.0913 -0.0019  0.2234
26795W        W43643   8.769  16.639   3.839 -0.4452 -0.0951  0.0638
26796W        W43644   7.621  10.814   1.158  0.1635  0.0070  0.1057
26797W        W43645  16.330   1.523   4.030  0.1688 -0.0784  0.0305
26798W        W43646  13.248  14.338  15.488 -0.1889  0.1512  0.0967
26799W        W43647   9.691   3.296  14.273 -0.0173  0.3373 -0.0495
26800W        W43648   9.184   6.951   0.155 -0.0656 -0.1889  0.2073
26801W        W43649  16.789   9.877   2.201  0.0742  0.0085 -0.0527
26802W        W43650  10.582  11.909   2.213 -0.1268 -0.1696  0.0043
26803W        W43651   2.889  16.269  15.965 -0.0815  0.2059  0.2536
26804W        W43652   3.105   7.550   2.250  0.2435  0.1496 -0.1882
26805W        W43653   6.533  14.314  13.333  0.2080 -0.0329 -0.1586
26806W        W43654  13.173   9.568   4.902 -0.0448 -0.1001  0.0328
26807W        W43655   3.493  12.755   3.432  0.1380  0.1506 -0.1206
26808W        W43656   6.902   5.467   2.120 -0.2133  0.0077 -0.2601
26809W        W43657   7.632  17.781   3.348 -0.4111 -0.0968 -0.1387
26810W        W43658   3.154  11.820  15.695 -0.2422 -0.1126  0.3209
26811W        W43659   7.435   4.338   1.651  0.1950 -0.0082  0.1862
26812W        W43660   2.549   3.278   2.841 -0.1718  0.0552 -0.1283
26813W        W43661  11.663   4.320  13.589 -0.1186  0.1898 -0.1676
26814W        W43662   8.934  16.708  14.997  0.1093 -0.1612  0.3573
26815W        W43663  11.151   1.615   0.877  0.0247  0.3396  0.0250
26816W        W43664   9.059  14.361  12.863 -0.1913  0.1579 -0.0907
26817W        W43665   3.922   3.266  14.838  0.0122  0.0192  0.3597
26818W        W43666   9.434   5.283   5.053 -0.1848  0.0253 -0.2440
26819W        W43667  17.685   0.734   2.500  0.1397  0.1122  0.1071
26820W        W43668   4.208  15.116   1.684 -0.2806  0.1929  0.0507
26821W        W43669  16.817  13.974   1.516 -0.1732 -0.0983 -0.0200
26822W        W43670  12.135  15.057   4.544 -0.0632 -0.0480  0.0331
26823W        W43671   1.646  10.733  16.379 -0.0517  0.0732  0.1821
26824W        W43672   5.315  16.502   0.422  0.0281 -0.1880 -0.0722
26825W        W43673   1.236  11.925   4.422 -0.1226 -0.2361 -0.0419
26826W        W43674  14.831  12.163  12.081  0.2223  0.0558  0.0972
26827W        W43675  12.164  10.721   1.132  0.1602  0.0747 -0.0429
26828W        W43676  17.646  14.976  11.461 -0.1987 -0.1531  0.1342
26829W        W43677  12.710  15.771   0.999 -0.1198 -0.1713  0.0082
26830W        W43678  17.508  16.644  15.474 -0.0442  0.2908 -0.1455
26831W        W43679   5.153  15.307   3.597 -0.4595  0.1504  0.0813
26832W        W43680   4.986   2.698   5.044 -0.2734  0.0918 -0.3075
26833W        W43681   5.856   1.859  12.983 -0.0386 -0.1306  0.0251
26834W        W43682   7.646   2.771   2.707 -0.1992 -0.2219 -0.4111
26835W        W43683  14.125   4.425  12.721 -0.0872  0.1901 -0.0542
26836W        W43684  14.958  10.493  13.664  0.3012 -0.0799  0.1305
26837W        W43685   1.758  10.202   3.651 -0.1305 -0.3011  0.3905
26838W        W43686  17.239   5.339   1.781  0.1954  0.0298  0.2707
26839W        W43687  13.416  10.941  13.121 -0.3178 -0.2501  0.0310
26840W        W43688  14.861   8.374   5.615  0.2216  0.0818 -0.0435
26841W        W43689   2.350   5.378   0.605  0.0102  0.0645  0.1622
26842W        W43690  15.177  13.981  12.564 -0.1798  0.2684 -0.4337
26843W        W43691   5.008   8.547  12.826 -0.0626  0.0069 -0.0766
26844W        W43692   7.318  11.073   0.433  0.0053 -0.0459 -0.0408
26845W        W43693   1.305  10.858   2.825  0.2086 -0.1803 -0.0073
26846W        W43694  12.672  15.316  11.412 -0.1016 -0.2182  0.1526
26847W        W43695   0.822  13.517   4.407  0.0672 -0.1295  0.1416
26848W        W43696   1.013   9.286  14.030 -0.0686 -0.0419 -0.0591
26849W        W43697   5.607   1.792  14.548  0.0300 -0.1663  0.1060
26850W        W43698  10.302  16.270   5.307  0.1643  0.2375 -0.0924
26851W        W43699   6.880  12.859   4.450  0.0727 -0.1154 -0.0380
26852W        W43700   5.457   3.561   0.419  0.0654  0.1031 -0.2956
26853W        W43701  16.469  17.499   1.121  0.3420  0.1911  0.2112
26854W        W43702   6.844   1.773   1.944  0.1465  0.0571 -0.0008
26855W        W43703   1.766   7.582  11.729  0.2199 -0.1682  0.2268
26856W        W43704   9.681   5.007  16.088  0.0510 -0.1706  0.2584
26857W        W43705   9.275  12.547   4.265 -0.1464 -0.1469 -0.1405
26858W        W43706  10.625   6.717   1.523 -0.2038 -0.2699 -0.0338
26859W        W43707  10.430  11.832  14.207 -0.0303  0.1997  0.0760
26860W        W43708   8.701  16.085   1.196  0.0871  0.1306 -0.0815
26861W        W43709  17.150   3.744  14.995 -0.2818 -0.0073 -0.2230
26862W        W43710  11.113  12.029   3.842 -0.1760 -0.1754  0.0801
26863W        W43711  12.305  11.271   5.635  0.2326 -0.1610  0.3293
26864W        W43712   6.630  10.838   2.256 -0.2672  0.2554 -0.0907
26865W        W43713   9.103   8.498   1.123 -0.1612 -0.1294 -0.2124
26866W        W43714  16.534  16.118  14.546  0.0398 -0.2511  0.1390
26867W        W43715   3.548  15.372   2.716  0.0167  0.1322 -0.3658
26868W        W43716   7.496  12.842  11.130 -0.0771 -0.2140  0.0704
26869W        W43717   4.517  13.481   3.420 -0.1165 -0.0863 -0.1648
26870W        W43718   5.258   7.357  11.241  0.0357  0.0743  0.2077
26871W        W43719  16.840   3.339   0.474  0.5356 -0.1301  0.0801
26872W        W43720   3.761  10.854   1.778 -0.0958  0.1974 -0.2274
26873W        W43721   5.740   5.329  14.688  0.0947  0.1979 -0.2648
26874W        W43722   9.941  16.941   5.702  0.1150 -0.1591  0.0017
26875W        W43723   0.600  15.937   0.451 -0.1237  0.1756 -0.1029
26876W        W43724   9.445  12.156   0.967  0.0290 -0.0029 -0.0145
26877W        W43725   4.411  10.911   2.326 -0.1972  0.1706 -0.1338
26878W        W43726   6.676  17.584   3.297  0.2946 -0.0169  0.2141
26879W        W43727   7.243   1.618   4.805  0.2686  0.0004  0.0383
26880W        W43728   5.992   2.207  13.751 -0.3738  0.1165  0.1802
26881W        W43729  16.740   7.905  13.839 -0.0001 -0.0575  0.1465
26882W        W43730  15.386   5.918  12.785  0.0375 -0.2849 -0.1422
26883W        W43731  15.123   2.660   2.698  0.1206 -0.1341  0.0748
26884W        W43732   2.970   4.093   0.193 -0.0199  0.2324  0.1240
26885W        W43733   2.305   2.437   4.851  0.1617  0.0930 -0.1585
26886W        W43734   9.255  13.133  14.240 -0.1376  0.0653 -0.1202
26887W        W43735   8.015   3.023  13.523 -0.1000  0.2517 -0.1134
26888W        W43736   9.419   5.682   4.532 -0.3733  0.1641 -0.0596
26889W        W43737   6.825  14.002   5.870  0.2315 -0.1096  0.0176
26890W        W43738   9.398   9.400   2.461  0.1489 -0.3181  0.2393
26891W        W43739  11.689   2.380  14.681  0.0841 -0.0438  0.0318
26892W        W43740  13.915   8.380  14.805 -0.1195  0.1762 -0.0427
26893W        W43741  12.264   5.667  11.006  0.0072  0.0116  0.1466
26894W        W43742   8.969  11.758  11.561  0.2549  0.0779  0.0847
26895W        W43743   6.814   4.201  12.660  0.0485  0.1669 -0.0014
26896W        W43744   5.224   6.357   4.304  0.3054  0.0089 -0.1899
26897W        W43745   5.670  16.307  13.380  0.2662 -0.0105  0.2757
26898W        W43746  16.248  17.652   0.672  0.2029  0.0352  0.0049
26899W        W43747  11.233   8.600  15.164 -0.1162  0.1919 -0.1032
26900W        W43748  12.755   1.670  15.998 -0.1855 -0.0529  0.1001
26901W        W43749   3.877  13.868  14.724  0.0428 -0.1948 -0.0443
26902W        W43750   9.460  16.403   1.102 -0.3882 -0.1984 -0.1330
26903W        W43751   1.166  13.890  16.367  0.3462  0.2138  0.0857
26904W        W43752  14.393   3.632   0.410  0.1593  0.2201 -0.0097
26905W        W43753  11.789   5.081   2.502  0.0058  0.0626  0.1305
26906W        W43754  17.021  13.110  10.579 -0.2223 -0.3156 -0.1550
26907W        W43755  12.341  11.714   3.534 -0.0258  0.0285 -0.0696
26908W        W43756   7.365   1.228  12.594 -0.0515 -0.0490  0.1024
26909W        W43757   7.526  16.502  11.359 -0.2473  0.0443  0.2080
26910W        W43758   5.506   7.560   4.643  0.1045  0.0143 -0.1577
26911W        W43759  17.182  11.669  15.766 -0.0765  0.3555 -0.2007
26912W        W43760  11.197   8.677  10.571 -0.0177  0.3944 -0.0439
26913W        W43761  10.726   3.130   0.484  0.1331 -0.1673 -0.0724
26914W        W43762  13.094   7.725   5.145  0.3888 -0.0081  0.0430
26915W        W43763   1.688  15.965   1.819  0.0582 -0.0801 -0.0105
26916W        W43764   6.306   6.562   0.029 -0.1060 -0.2678 -0.0194
26917W        W43765   9.966  15.407   1.215  0.1046  0.0416  0.7211
26918W        W43766  10.832   4.673  16.438 -0.1437  0.0749  0.0884
26919W        W43767  10.742   7.575   4.508 -0.0526  0.0635 -0.0309
26920W        W43768   7.754   8.430   3.808 -0.2942  0.0904  0.0480
26921W        W43769   9.264  11.803  10.830 -0.0204  0.0899 -0.3186
26922W        W43770   1.043   0.715  11.739  0.2442  0.1820  0.1390
26923W        W43771   1.056  11.165  12.168  0.1241  0.0056 -0.3229
26924W        W43772  14.184  11.016   3.755  0.0347  0.2362 -0.5091
26925W        W43773   0.860  16.974  14.551  0.3409 -0.3117 -0.0809
26926W        W43774   9.426   3.380   1.329  0.2315 -0.1581 -0.0981
26927W        W43775  15.378   5.073   2.365 -0.2684 -0.3583  0.1240
26928W        W43776  12.689   2.022   2.848 -0.1186  0.1309  0.2124
26929W        W43777   5.297  11.927   2.677  0.1105  0.2436 -0.2018
26930W        W43778   0.960  16.427  10.885 -0.1184 -0.4347 -0.3200
26931W        W43779  14.273   7.835  15.652  0.1809 -0.0062  0.1330
26932W        W43780  11.308  17.000  16.134 -0.0420  0.2742  0.0905
26933W        W43781   1.807   6.130  15.566  0.1242  0.1960 -0.0486
26934W        W43782  10.799  11.332   0.242  0.3105  0.1414  0.0922
26935W        W43783   4.831   2.753   2.190 -0.2771  0.1496  0.1951
26936W        W43784  10.442   2.054  12.476 -0.1697  0.2330  0.1658
26937W        W43785  11.946   7.722   1.313  0.0878 -0.0722 -0.2313
26938W        W43786  10.326   4.201   3.357  0.2751  0.2218  0.0601
26939W        W43787  11.979   8.111  15.562 -0.0688 -0.1148  0.0540
26940W        W43788  16.387  16.929  12.423  0.0410  0.0635  0.1865
26941W        W43789   6.396   8.068   3.445 -0.0610 -0.2362 -0.3969
26942W        W43790  13.310  11.332  15.349 -0.1362  0.0393  0.2173
26943W        W43791   9.719  11.807   3.561 -0.2842  0.0370 -0.0884
26944W        W43792   3.254   9.796  12.253 -0.0877 -0.0241  0.0735
26945W        W43793  12.281  10.405  13.640  0.1562  0.4045 -0.1401
26946W        W43794   5.913  17.137  13.133 -0.0104 -0.2533  0.0506
26947W        W43795  12.298  14.813  13.439 -0.0577 -0.2981 -0.3572
26948W        W43796   2.799   2.195  12.864  0.0472 -0.0266  0.0305
26949W        W43797   5.320  15.423  13.246  0.0073 -0.0206 -0.0118
26950W        W43798  13.545  14.023   1.619  0.0975 -0.0786 -0.0092
26951W        W43799  14.744   7.006  15.614 -0.0276  0.0862  0.2254
26952W        W43800  11.183   4.993   1.829 -0.0446 -0.1491 -0.1566
26953W        W43801   2.401   2.132   2.052 -0.4563 -0.0789 -0.1552
26954W        W43802   7.816  10.602  12.175  0.0908  0.1730 -0.1000
26955W        W43803   5.291  14.265  12.760 -0.0352  0.0251  0.0724
26956W        W43804  16.295  17.345   3.941 -0.1445  0.1893 -0.0324
26957W        W43805  16.991  13.738  10.991 -0.0095  0.1568 -0.0009
26958W        W43806   9.632   2.009  14.806  0.2755  0.0441 -0.1090
26959W        W43807  16.344   0.412  16.030  0.2504  0.1096  0.0743
26960W        W43808   0.381   8.528  15.013  0.1664  0.1754  0.0316
26961W        W43809  17.112  10.063  15.273  0.1731  0.0232  0.0171
26962W        W43810  10.941   2.952  12.170 -0.1301 -0.3599 -0.0755
26963W        W43811   7.148   5.074   3.554  0.0072 -0.2033  0.0819
26964W        W43812   0.188   8.571   4.350 -0.1105 -0.2223 -0.1134
26965W        W43813  14.589   8.780   3.807  0.3382  0.0730 -0.3235
26966W        W43814   6.193  12.973  12.189 -0.0992  0.1319 -0.0360
26967W        W43815   6.075  15.788   5.588  0.1120 -0.1864  0.0233
26968W        W43816   6.693  11.132   0.088  0.4717 -0.1212  0.0840
26969W        W43817   0.793   2.849  11.294  0.1470 -0.0064 -0.1302
26970W        W43818   2.628   5.396   4.110  0.0549  0.0240  0.0239
26971W        W43819   9.867  10.218   2.203  0.2311 -0.0059  0.0770
26972W        W43820   6.454   3.697   5.158 -0.0126  0.3366  0.2089
26973W        W43821  12.516  14.834  11.556  0.0136 -0.1560  0.2560
26974W        W43822   8.282  15.035  15.649  0.2347 -0.0640  0.2789
26975W        W43823  12.872  15.913   3.413  0.0032  0.0607 -0.3440
26976W        W43824  17.541   5.965   2.920  0.2693 -0.4520 -0.2245
26977W        W43825  14.094   2.853   1.038  0.0749  0.0468  0.0728
26978W        W43826   4.873   3.850  11.943 -0.0139  0.1620  0.1832
26979W        W43827   1.957   8.992  16.402 -0.5214 -0.1264 -0.0035
26980W        W43828  13.078   9.451   2.684  0.0154  0.2371  0.0599
26981W        W43829  15.939  15.955  12.326  0.0498 -0.3014 -0.1801
26982W        W43830  10.870   1.509  14.053 -0.0340 -0.0950  0.2150
26983W        W43831   9.491   7.435  12.429  0.0283  0.3163  0.1414
26984W        W43832   1.032  15.872   4.847  0.1953  0.2140  0.0386
26985W        W43833  13.260  11.846  15.204  0.0970 -0.2302  0.2246
26986W        W43834   8.127   2.967  14.103  0.0939 -0.2929 -0.1809
26987W        W43835   2.265   7.722  15.731  0.0510  0.2528 -0.1485
26988W        W43836   0.703   4.114  15.913  0.2375  0.2545  0.0757
26989W        W43837  16.653   3.007   5.062 -0.1824  0.2323  0.0196
26990W        W43838  14.488  14.969  11.834 -0.1745  0.0272  0.1759
26991W        W43839   9.957  13.794  14.902  0.2252  0.1652 -0.3745
26992W        W43840  16.993  15.115   0.407 -0.2528  0.3869  0.0989
26993W        W43841  11.725  12.702  13.387 -0.2040 -0.0168 -0.3603
26994W        W43842   2.411  14.698  10.238 -0.5695 -0.1547  0.1705
26995W        W43843  12.020  15.923   0.823 -0.2349 -0.1434  0.0753
26996W        W43844  10.808   1.038  13.272  0.3771  0.0207 -0.1691
26997W        W43845   7.266  15.960  13.736 -0.2432 -0.1418  0.0292
26998W        W43846   9.074   5.118   2.267 -0.0932 -0.0055  0.0909
26999W        W43847  11.305  11.735   0.270  0.1971  0.0367 -0.1573
27000W        W43848   7.541   6.982   1.391 -0.0837  0.0890  0.2118
27001W        W43849  17.363   4.949   1.460  0.0191 -0.0691 -0.1410
27002W        W43850   2.859  12.811   2.293  0.0705  0.3041 -0.3546
27003W        W43851  13.481   8.466  12.584  0.1712  0.2419 -0.0730
27004W        W43852  13.702  16.952  13.735  0.2427 -0.1064  0.2168
27005W        W43853   4.143  10.801  14.957 -0.3345  0.0740  0.3265
27006W        W43854   6.646   7.874   2.562 -0.0810 -0.0173  0.0829
27007W        W43855  15.971   9.188  15.549 -0.4372  0.1279  0.1811
27008W        W43856  14.820   0.588  11.353  0.2497  0.2053 -0.0436
27009W        W43857   7.325   2.097   4.641  0.2350  0.0482 -0.2270
27010W        W43858   3.990  13.483   0.861 -0.0938 -0.1412 -0.0527
27011W        W43859  12.513  13.647  14.805 -0.0435  0.3560  0.1689
27012W        W43860   8.535  13.855   2.269  0.1462  0.0323 -0.1337
27013W        W43861   1.897   2.342   2.193 -0.0888  0.0789  0.2552
27014W        W43862   2.375  14.247   2.808 -0.1779 -0.0692 -0.0733
27015W        W43863  13.759  16.979  11.877  0.1068 -0.1607 -0.1400
27016W        W43864   7.752  15.718  11.419  0.1417 -0.1900  0.2226
27017W        W43865   1.851  11.190  12.622 -0.0013  0.1821 -0.2540
27018W        W43866  11.261   4.971  15.088 -0.0187 -0.2064  0.0682
27019W        W43867  12.583   1.603  11.926  0.3105  0.0834 -0.2105
27020W        W43868  17.780   2.159  16.003  0.0208  0.0179  0.1867
27021W        W43869  14.712   3.066   2.575  0.0860 -0.2194  0.2033
27022W        W43870  12.496   6.815   3.762  0.1328 -0.0213 -0.2160
27023W        W43871   1.496   8.213  11.710 -0.1830 -0.4307  0.1247
27024W        W43872   2.812   9.334  15.389  0.0015 -0.0171  0.3199
27025W        W43873   5.760   3.971   0.500 -0.2341 -0.0064  0.0221
27026W        W43874  12.000   5.244   4.979  0.1890  0.0589  0.2649
27027W        W43875  16.140  14.422  15.757  0.2055  0.1207 -0.0550
27028W        W43876   8.850  12.221   1.805 -0.0932  0.1362 -0.0294
27029W        W43877  15.898   7.044  13.236 -0.1187  0.1678 -0.0064
27030W        W43878  15.111  13.274   0.151  0.2616 -0.0334 -0.2492
27031W        W43879  13.214   1.458   2.091  0.1818 -0.0903 -0.2648
27032W        W43880   3.162   3.443  12.433  0.0889 -0.2818  0.2518
27033W        W43881  15.726  15.437   0.343  0.1481 -0.0291  0.2004
27034W        W43882  10.119   2.426   0.696  0.3917  0.0944  0.2744
27035W        W43883   6.205   1.554  13.099 -0.0811 -0.0242  0.0217
27036W        W43884   6.143  12.517   2.369 -0.1469  0.2777 -0.1397
27037W        W43885   8.690   5.387   0.717  0.3327  0.1114 -0.1908
27038W        W43886   6.662  14.439   4.847  0.0129  0.5045 -0.0117
27039W        W43887   2.490   5.758  14.272  0.1838  0.1002  0.1460
27040W        W43888   0.185   0.395   1.145 -0.0531  0.2527  0.1987
27041W        W43889  13.755  14.359   0.838 -0.3515  0.1222  0.1606
27042W        W43890   1.997   2.248   1.268  0.0681 -0.1918 -0.2205
27043W        W43891   8.951  12.287   0.859 -0.0971  0.1911  0.0013
27044W        W43892  13.092   0.528  14.578  0.0182  0.0262 -0.1019
27045W        W43893   8.038  16.030   0.525  0.2576  0.1903  0.0602
27046W        W43894  11.417   7.097   2.556 -0.2270 -0.1225  0.5957
27047W        W43895   3.085  12.768  13.143 -0.1252  0.4661  0.0292
27048W        W43896   5.075   8.750   6.364 -0.0064 -0.3647 -0.0039
27049W        W43897   9.115  10.464  15.597 -0.1636 -0.2963 -0.2871
27050W        W43898   1.870   1.770   0.193 -0.1259 -0.0381  0.2625
27051W        W43899  13.725  13.064  16.377  0.0167 -0.1992  0.2055
27052W        W43900   5.417  12.973  16.466 -0.0386  0.1187 -0.0600
27053W        W43901   4.755   2.792   3.790 -0.1016 -0.0167  0.1247
27054W        W43902   8.090  10.271  13.957 -0.0114  0.3650  0.0772
27055W        W43903   0.342   2.160  11.784  0.1417  0.0949  0.0707
27056W        W43904  10.222  13.406  15.395 -0.2902 -0.0677  0.1532
27057W        W43905   9.064  14.952  13.190  0.2565 -0.2876  0.1609
27058W        W43906   7.586   1.311   5.305  0.1225 -0.0849 -0.1485
27059W        W43907   1.306   9.503   1.037 -0.0064 -0.1373 -0.0590
27060W        W43908  13.788  13.960  12.124  0.0509  0.0982 -0.0815
27061W        W43909   8.706   1.136  12.845  0.2475  0.1955 -0.0475
27062W        W43910   8.039  11.481  12.504  0.0983 -0.0966  0.2087
27063W        W43911  11.923  13.064   1.257 -0.0484 -0.0377  0.0745
27064W        W43912   6.266   9.799   1.481 -0.0982  0.2161 -0.0851
27065W        W43913   1.228  16.812  14.799  0.0280 -0.0766  0.0603
27066W        W43914   8.518   6.423  16.211 -0.5050 -0.2813 -0.1059
27067W        W43915  14.884   6.129   3.148  0.0993  0.3400  0.1502
27068W        W43916   9.438   9.986  14.771 -0.3660  0.0770  0.0535
27069W        W43917   0.175   1.346  12.621 -0.1219 -0.3257 -0.0795
27070W        W43918  16.505  17.454  14.452  0.0788 -0.0491  0.1952
27071W        W43919   5.970   8.491   1.835 -0.1385  0.0349 -0.0903
27072W        W43920  10.498   0.845   4.394  0.2691  0.0292 -0.0151
27073W        W43921  14.698  10.697   3.226 -0.0597 -0.0493  0.0582
27074W        W43922   3.402   1.935   2.824 -0.3675 -0.1383  0.1593
27075W        W43923   9.542  12.701   2.489  0.0244 -0.1728 -0.0830
27076W        W43924   7.838  13.329  15.921  0.2559  0.0080 -0.1641
27077W        W43925   5.660   6.012   4.130 -0.5683  0.1113 -0.2330
27078W        W43926  17.652   9.411  16.149 -0.0471 -0.2716  0.2078
27079W        W43927  16.849  11.331  16.442 -0.2923 -0.1728  0.2440
27080W        W43928   0.771   7.654   1.235  0.0071 -0.1965 -0.0401
27081W        W43929   6.901  12.700  13.404 -0.0917 -0.1019  0.1896
27082W        W43930  16.561  11.615  12.999  0.0475 -0.2309  0.1474
27083W        W43931   9.813   4.907   2.160 -0.2938  0.0016  0.0567
27084W        W43932   8.970   5.156   4.941  0.0352 -0.1291  0.1061
27085W        W43933   9.022  10.456  12.135  0.1526 -0.1357 -0.0847
27086W        W43934   1.619   9.230   2.022  0.0173  0.0972 -0.3185
27087W        W43935  14.286   7.815  16.328 -0.2392  0.2586 -0.0630
27088W        W43936  14.183  11.095   0.015 -0.2464 -0.1769 -0.2007
27089W        W43937   3.213   5.502  13.063  0.1624 -0.1911  0.0101
27090W        W43938   4.878   3.911   3.870 -0.3480  0.1791 -0.1059
27091W        W43939   7.119  13.744  15.982  0.1962  0.0065 -0.3898
27092W        W43940   5.633  15.965  11.389  0.0752 -0.0983  0.3017
27093W        W43941   0.344   9.282   1.929 -0.2169  0.1383  0.2853
27094W        W43942   8.413  10.341  16.472 -0.2067  0.3284 -0.2678
27095W        W43943  11.949   4.837  15.789  0.0886  0.0600 -0.1258
27096W        W43944  17.545  17.556  15.136 -0.0670 -0.0113  0.2522
27097W        W43945   3.115  13.503   0.109 -0.0831  0.0291  0.0576
27098W        W43946   9.326   9.769  15.349  0.0743  0.3299 -0.0077
27099W        W43947   2.129   6.092  16.441 -0.1997 -0.0698 -0.0491
27100W        W43948  14.487  14.902  12.387  0.0083 -0.1353 -0.1130
27101W        W43949  15.859   1.840  12.921  0.1089  0.0951 -0.1021
27102W        W43950   5.943   4.279  12.147 -0.1127 -0.0540  0.3461
27103W        W43951  10.087   6.446  15.976 -0.0175  0.3929  0.2411
27104W        W43952  11.571   1.178  13.552  0.1699  0.3348  0.1002
27105W        W43953   0.252  14.152   2.116 -0.1439 -0.2186 -0.0332
27106W        W43954  17.243  17.560  13.886 -0.0526 -0.1208 -0.0237
27107W        W43955  13.100   1.883  13.765  0.2255  0.0274 -0.0025
27108W        W43956  11.504   4.931   3.242 -0.1340  0.0400  0.4245
27109W        W43957   6.726  16.612   2.085  0.1021 -0.1603 -0.2561
27110W        W43958  11.799  11.711  12.181 -0.1047 -0.2398  0.2272
27111W        W43959  14.729   7.500  15.485 -0.0196  0.0349 -0.0006
27112W        W43960   5.237   2.733   4.548 -0.0738  0.2014  0.4597
27113W        W43961   5.117   4.923   0.006 -0.0977 -0.0547 -0.0581
27114W        W43962  17.062   3.338   3.572 -0.4845  0.0649 -0.1551
27115W        W43963   6.385   6.126   2.207  0.1560 -0.0760  0.0433
27116W        W43964   8.924   9.698  12.207  0.3336  0.2556 -0.1075
27117W        W43965   8.979  16.785   0.114  0.3623 -0.3046 -0.1145
27118W        W43966  11.853   1.624   1.915 -0.0139 -0.1706 -0.3157
27119W        W43967  15.802  17.637  11.461  0.1099 -0.4185 -0.1486
27120W        W43968  16.723  17.778  11.869 -0.2262 -0.2122  0.1348
27121W        W43969   1.282  14.489  13.255  0.2163  0.1535  0.2200
27122W        W43970  17.863   2.511   0.354 -0.2976 -0.2259  0.1209
27123W        W43971   4.124   1.664   2.186 -0.1335 -0.1781  0.1055
27124W        W43972  13.213   3.075   4.356  0.1020 -0.0870  0.4661
27125W        W43973  11.499  10.141   4.190 -0.0171 -0.0744 -0.0104
27126W        W43974   4.459  11.267   3.615  0.1622 -0.0227 -0.1990
27127W        W43975  17.283   2.830   4.563 -0.1487  0.0022 -0.1961
27128W        W43976  11.466  10.480   1.020 -0.0012  0.0952 -0.3071
27129W        W43977   0.508   4.367   5.136  0.2171 -0.2917  0.0491
27130W        W43978   5.570   3.640   0.887 -0.2253 -0.0359  0.1772
27131W        W43979  16.482   5.305   4.180 -0.0532  0.0870  0.2885
27132W        W43980   1.754   3.341   0.992 -0.1442  0.1166  0.1080
27133W        W43981  11.456   0.355  13.275  0.1904 -0.0687  0.2013
27134W        W43982  13.825   8.408   1.515 -0.1376 -0.0198 -0.1362
27135W        W43983   0.074   7.080  14.677 -0.0842 -0.0136 -0.3346
27136W        W43984  11.886   4.391  12.182  0.0234 -0.0270 -0.2711
27137W        W43985  16.929   9.794  14.864  0.0588  0.3219 -0.0534
27138W        W43986  11.503  17.760   0.619 -0.1440 -0.0690  0.1440
27139W        W43987   5.995   2.160  15.876  0.2423  0.2910 -0.0363
27140W        W43988  12.164   4.138  16.321 -0.1499  0.1560  0.0608
27141W        W43989   8.796  13.537   5.052 -0.2550 -0.2631 -0.0528
27142W        W43990  16.181   8.524  14.307  0.2639 -0.0337  0.2252
27143W        W43991   7.332  16.580  12.870  0.1446 -0.1918  0.1097
27144W        W43992  16.895   4.490  16.017 -0.2406 -0.3862  0.3549
27145W        W43993   6.028  12.291  16.358 -0.1321 -0.1458  0.0952
27146W        W43994   3.737   5.357  13.750 -0.0222  0.2350 -0.0247
27147W        W43995  13.808  16.057   3.212 -0.0897  0.0380  0.0088
27148W        W43996   9.958   0.883   3.381  0.0588 -0.2845 -0.2043
27149W        W43997   1.064  13.775   3.178 -0.3067  0.0496  0.1224
27150W        W43998   5.641  15.493   1.167 -0.2533 -0.0517  0.0545
27151W        W43999  12.914   9.240  16.088 -0.3234 -0.1040  0.1561
27152W        W44000  11.587   0.655  12.759  0.2795  0.0104 -0.1711
27153W        W44001   3.608  17.368  14.206  0.0063  0.0989 -0.2254
27154W        W44002  14.075   0.864  14.958  0.3193  0.3446  0.2930
27155W        W44003  13.964  15.977   1.523  0.1076  0.1484  0.0948
27156W        W44004   4.426  15.834  12.192 -0.1416  0.1195  0.0520
27157W        W44005  14.623   0.610  16.445  0.1765  0.0737  0.2302
27158W        W44006   4.853  11.077   3.463 -0.0915 -0.0304  0.1009
27159W        W44007  10.297   5.270  15.703 -0.0184  0.1803  0.0377
27160W        W44008  10.502   7.564   4.987  0.2255 -0.0828  0.1196
27161W        W44009   0.807  12.019   4.808  0.2192 -0.0330  0.0546
27162W        W44010   7.338  11.564  12.912  0.2312  0.0975 -0.1791
27163W        W44011   6.334   1.671   4.539 -0.0951  0.1269  0.1780
27164W        W44012   9.040   2.191   5.569  0.1960 -0.0906 -0.0381
27165W        W44013  10.935  12.927  14.945  0.0325  0.2718 -0.1773
27166W        W44014   4.319   8.623  15.230  0.0705  0.1413 -0.2264
27167W        W44015   2.727  13.109  16.182  0.0971  0.3152 -0.0009
27168W        W44016   7.082   0.064   1.338  0.2067  0.0047  0.2082
27169W        W44017   3.440   8.546   4.402  0.1237  0.0172 -0.0600
27170W        W44018   3.696   5.076   4.804 -0.0686  0.0540  0.0909
27171W        W44019  17.166  14.088   3.021  0.1603  0.0520  0.0746
27172W        W44020   1.667  15.062   4.971  0.3096  0.2812  0.2128
27173W        W44021   8.490   9.298   2.897  0.2044 -0.0761 -0.0170
27174W        W44022   6.956   0.930   4.655  0.2993  0.1508  0.0610
27175W        W44023   0.669   9.726  12.781 -0.2815 -0.2713 -0.1892
27176W        W44024  13.381  15.513  16.109  0.1200  0.2533  0.0221
27177W        W44025  12.368  15.339   0.277 -0.1060  0.3805  0.2419
27178W        W44026   5.720   6.130   4.646 -0.2274 -0.1594 -0.1441
27179W        W44027  17.342  14.182   1.648  0.1454  0.0717 -0.0493
27180W        W44028   2.852  11.727   6.056 -0.5706  0.1138  0.2721
27181W        W44029   2.028   9.501  12.744  0.4763 -0.2155 -0.0931
27182W        W44030  10.512   1.245   0.177 -0.2506 -0.0160  0.0365
27183W        W44031  11.812   0.363   2.562 -0.1686  0.1517  0.1288
27184W        W44032   0.514   3.237  13.005  0.1676 -0.0324  0.3548
27185W        W44033   1.798  15.420  14.704  0.0697 -0.0503 -0.1525
27186W        W44034   9.551   5.803   1.060  0.1342  0.0335 -0.1198
27187W        W44035   5.579   1.350   5.790  0.1496  0.4142 -0.2968
27188W        W44036  15.870  11.793  13.551  0.1430 -0.0802  0.0330
27189W        W44037   5.491   9.165   2.476 -0.1387 -0.2489  0.0424
27190W        W44038  16.549   3.205   0.089 -0.1412 -0.0001  0.0648
27191W        W44039  13.241   6.227  12.038 -0.2917  0.1071 -0.0923
27192W        W44040  14.136  14.755  12.684 -0.1121 -0.1314  0.1165
27193W        W44041   0.909   9.376   0.460 -0.3844  0.3528  0.2540
27194W        W44042  12.116  17.215   3.262 -0.0242 -0.2429 -0.0005
27195W        W44043  15.385  10.144   1.557 -0.3714 -0.1063  0.1338
27196W        W44044   0.425   0.713  16.058 -0.0879  0.1065  0.1136
27197W        W44045   6.609   5.179   4.396 -0.0023 -0.0487 -0.0588
27198W        W44046  16.139   2.716   1.893  0.2282  0.3988 -0.1423
27199W        W44047   4.595   5.487   2.794 -0.1725  0.0613  0.2263
27200W        W44048  17.317  12.162  14.714  0.2765 -0.6056 -0.2058
27201W        W44049  11.250   1.244  13.176 -0.1882 -0.0739  0.0201
27202W        W44050   1.402  14.941  13.123 -0.2650 -0.0038 -0.0842
27203W        W44051   2.139  12.657   0.641 -0.3217  0.0494  0.4520
27204W        W44052   8.356  12.494  14.787  0.2335 -0.1408  0.2379
27205W        W44053   0.470  14.644   1.630  0.3028  0.1269  0.1354
27206W        W44054  12.397  12.731  10.868 -0.2305 -0.1002  0.1540
27207W        W44055   1.928   3.826   2.253 -0.0181  0.0706  0.1755
27208W        W44056  15.161   7.642  14.552 -0.0789  0.0120  0.3170
27209W        W44057   4.822  12.456   1.285  0.2314 -0.0097  0.2680
27210W        W44058   7.132   2.564   2.365 -0.1787  0.1530 -0.0091
27211W        W44059  10.028  13.147   3.300  0.0070 -0.1654 -0.2798
27212W        W44060  17.623   9.322   2.098  0.0739 -0.0832 -0.2130
27213W        W44061   4.766   1.241  15.139  0.2861  0.0051 -0.4833
27214W        W44062   4.219   0.012   4.288  0.1440 -0.3669 -0.1269
27215W        W44063  13.463   4.047   3.505 -0.0431  0.0326 -0.3047
27216W        W44064  13.763   3.236  14.579  0.0305  0.0034 -0.0089
27217W        W44065   8.143   6.721  12.697 -0.0552  0.0744  0.1500
27218W        W44066   4.336   1.120  14.263 -0.0818  0.0060 -0.4427
27219W        W44067  14.854   5.320   1.253  0.1267  0.1054 -0.1202
27220W        W44068   9.402  16.025  15.573  0.0932 -0.1692 -0.3951
27221W        W44069  13.267  14.398  13.137  0.1444  0.0998  0.2419
27222W        W44070   2.140  15.229  16.326  0.1147 -0.1451 -0.0761
27223W        W44071   7.122  16.958   4.725  0.2311  0.0509 -0.1133
27224W        W44072  15.508   9.411   4.582 -0.0810  0.0980 -0.0510
27225W        W44073  11.073  17.161  14.046 -0.0057 -0.0985 -0.0924
27226W        W44074   0.827  13.178  12.513  0.2647  0.0698 -0.1908
27227W        W44075   3.098   3.035  14.751  0.1814  0.4253  0.1484
27228W        W44076   6.877   2.288   4.272 -0.1782  0.1199 -0.1735
27229W        W44077  12.202  16.402  14.555 -0.1356 -0.2621 -0.3814
27230W        W44078   1.344  10.276  11.834  0.0398 -0.1564 -0.1334
27231W        W44079   2.649  17.183   4.391  0.0549  0.1176 -0.1399
27232W        W44080   9.258  17.310   2.634  0.0847 -0.3309 -0.2417
27233W        W44081   0.796   3.320   0.333  0.2357 -0.0687  0.0913
27234W        W44082  11.633   5.512   2.708 -0.4729  0.1103 -0.0230
27235W        W44083  12.433   1.551  10.590 -0.0754 -0.0724 -0.0404
27236W        W44084   6.138  13.512   3.779  0.1739 -0.0444  0.3250
27237W        W44085  16.786   2.449  15.945 -0.2985 -0.2198  0.0063
27238W        W44086   6.380  13.031  13.158  0.1554 -0.1180  0.4594
27239W        W44087  10.441   2.987   5.344  0.0741  0.1464  0.0969
27240W        W44088  15.584   2.256  12.855 -0.1484  0.1359 -0.1248
27241W        W44089  17.753  12.472   2.422  0.0773  0.1437 -0.2469
27242W        W44090  16.027   4.825   4.970 -0.2674  0.1834  0.0671
27243W        W44091  15.686  16.324   4.006  0.0463 -0.0929  0.0666
27244W        W44092   5.463  17.472  12.301  0.2194  0.2113  0.0440
27245W        W44093   9.289  13.053  13.308 -0.0722 -0.0391  0.2889
27246W        W44094   3.190   4.983  11.768 -0.0246 -0.1357  0.1256
27247W        W44095  15.465   8.930   4.502  0.0993  0.0496  0.2993
27248W        W44096  13.731  14.051   2.318  0.0556  0.1614 -0.2512
27249W        W44097  11.199  10.457   3.339  0.1157  0.3072  0.0267
27250W        W44098   4.166   8.240  13.088  0.1307  0.0497  0.2801
27251W        W44099   9.848  12.000  11.771  0.1568 -0.2166  0.2413
27252W        W44100  15.492   9.612  11.423  0.1642 -0.2351 -0.0176
27253W        W44101  12.177   0.141   2.966 -0.3298 -0.1241 -0.1530
27254W        W44102   5.626   5.697   2.573  0.0624 -0.0590 -0.2312
27255W        W44103   3.305  13.801   3.171 -0.0133  0.2320 -0.0989
27256W        W44104   6.091  14.358  14.587  0.0149  0.0186  0.1118
27257W        W44105  17.751  10.776   4.499  0.0015 -0.3473 -0.2187
27258W        W44106   1.716   2.968   6.139 -0.1564 -0.0202  0.2568
27259W        W44107   3.121   1.396  16.389 -0.0206 -0.1476 -0.2462
27260W        W44108   8.138  15.027   2.458 -0.3665  0.1032 -0.4314
27261W        W44109   5.847  16.240   2.328 -0.0760 -0.1887  0.3066
27262W        W44110  10.109  10.502  15.481 -0.0572  0.4953 -0.0066
27263W        W44111   1.547   5.370  12.278 -0.1167  0.0797 -0.0782
27264W        W44112  16.445   3.578   2.770  0.3111  0.1231  0.2066
27265W        W44113   7.879   7.392  14.653 -0.1658 -0.3778  0.1969
27266W        W44114  10.314  15.111  15.237  0.1832  0.0708 -0.1934
27267W        W44115  13.836  16.758  12.435  0.0971  0.0589 -0.3057
27268W        W44116  13.926   1.333   4.633 -0.1929  0.5475 -0.3835
27269W        W44117   9.446   3.831   3.700 -0.2239  0.3582 -0.1495
27270W        W44118  16.703   8.548  15.634  0.2302 -0.1334 -0.3511
27271W        W44119  11.876   2.243  11.990 -0.0074  0.2793 -0.0799
27272W        W44120   0.073  15.467  14.227 -0.0507 -0.0587  0.1970
27273W        W44121   7.824   9.655   3.605 -0.0514 -0.0276 -0.0541
27274W        W44122  14.925  12.114   2.359 -0.1946 -0.2117  0.3226
27275W        W44123  12.057  10.115  14.461 -0.2973 -0.2582 -0.0602
27276W        W44124   7.349  17.316   2.029 -0.0632  0.0762  0.2115
27277W        W44125   2.950   7.822  14.537  0.2159  0.3116  0.0717
27278W        W44126  14.737  11.018  14.733 -0.0377  0.0901  0.1544
27279W        W44127   7.947  17.848  12.657  0.2555 -0.1244 -0.1921
27280W        W44128   5.042   2.736  12.669 -0.0336 -0.1870 -0.2274
27281W        W44129   1.749   6.508  15.906  0.1441 -0.3799  0.0676
27282W        W44130   6.197  11.238   3.424  0.0381  0.3189  0.1578
27283W        W44131   1.202  13.582   1.309 -0.1657 -0.1258  0.0056
27284W        W44132  16.026   8.814  15.214 -0.1111  0.0510 -0.2450
27285W        W44133   7.474   3.197  15.076  0.1121  0.1654 -0.0464
27286W        W44134  10.116  12.575   3.234 -0.1209 -0.0359  0.1943
27287W        W44135  11.574  11.643   5.070 -0.0475  0.0980 -0.2636
27288W        W44136  11.219  15.026   1.812 -0.0963 -0.0116 -0.3016
27289W        W44137   9.752  16.903  11.784  0.3864 -0.2715 -0.0009
27290W        W44138  16.227  15.622   2.924 -0.2560  0.0642 -0.1112
27291W        W44139   8.270   4.561   1.149  0.2881  0.1699 -0.0632
27292W        W44140   9.130  13.586  13.224 -0.1676 -0.2319  0.3323
27293W        W44141   9.646  12.754  11.802 -0.3160  0.1172  0.1367
27294W        W44142   4.744  16.380  16.086  0.1422 -0.2707 -0.0458
27295W        W44143   5.247   4.628   3.853 -0.1736 -0.1505 -0.1845
27296W        W44144   8.512  15.054  11.630  0.1346  0.0358 -0.0148
27297W        W44145  10.732  13.595   1.013  0.0388 -0.0714  0.1619
27298W        W44146  15.702   9.519  13.556 -0.0395  0.0210 -0.0348
27299W        W44147   6.060   0.684  12.717  0.0271  0.3697  0.0479
27300W        W44148  11.355   7.819   5.303 -0.1355 -0.2776 -0.1715
27301W        W44149  12.226   7.643  13.474  0.2597 -0.3945  0.2445
27302W        W44150  13.910  17.133  13.260  0.2014 -0.4565  0.1253
27303W        W44151   8.406  11.114   2.801  0.2819 -0.0499 -0.1340
27304W        W44152   1.507  11.792   3.389  0.2788 -0.2508 -0.0102
27305W        W44153  13.264  17.537   3.888  0.1087  0.0546 -0.0719
27306W        W44154   7.937   4.706   0.288  0.2533 -0.3866 -0.2187
27307W        W44155  16.989   9.407  11.356 -0.0330  0.1397  0.0326
27308W        W44156   6.560  12.425   0.981  0.1255  0.1028 -0.1693
27309W        W44157   6.250  12.610  11.397 -0.1313 -0.4378 -0.3336
27310W        W44158   4.740   0.851  16.204 -0.1539 -0.2408 -0.1764
27311W        W44159  17.815   5.333  15.937 -0.1040  0.1934 -0.2730
27312W        W44160   7.904  13.646  14.380 -0.0492  0.3729 -0.3672
27313W        W44161   1.342  13.132  12.600 -0.1471 -0.1305 -0.2839
27314W        W44162   1.456  11.856  13.631  0.0257 -0.0008  0.0080
27315W        W44163   2.068  16.242  14.383 -0.2708 -0.3222 -0.2544
27316W        W44164   8.964  12.624   3.278 -0.2336  0.3744 -0.0921
27317W        W44165  10.789  16.736   1.711  0.3226  0.0777  0.0290
27318W        W44166   1.073  10.901  14.039 -0.1599  0.2129  0.2005
27319W        W44167   5.203  11.108   2.563 -0.1645 -0.1164  0.0914
27320W        W44168   9.122   0.993  15.780  0.1854 -0.2500 -0.1408
27321W        W44169   2.656  10.987  11.146  0.1715 -0.2549 -0.3230
27322W        W44170  11.860   1.822   2.382  0.2877 -0.1745 -0.2486
27323W        W44171   8.140   0.812  14.337  0.0137  0.1714  0.1425
27324W        W44172  16.302   6.010  15.691  0.2402  0.3908  0.1135
27325W        W44173   0.816   6.744  16.242  0.1322  0.1883 -0.0927
27326W        W44174  11.624  14.123   1.674 -0.1610 -0.0526 -0.2073
27327W        W44175   6.518   4.413   1.086  0.1426  0.1361 -0.0378
27328W        W44176   4.809  12.799   2.785 -0.0301 -0.1453 -0.1436
27329W        W44177   4.183   6.482  14.218 -0.0373  0.2234  0.1998
27330W        W44178  15.008  15.689   1.414 -0.1145 -0.1221  0.0970
27331W        W44179  15.876   7.236   1.559 -0.0261  0.2330  0.0704
27332W        W44180  10.200  15.694  13.595  0.1195 -0.1650  0.3296
27333W        W44181   1.183   5.104   4.080 -0.0299  0.0941 -0.1778
27334W        W44182   4.694   2.061   1.226  0.1058 -0.0211 -0.0483
27335W        W44183  10.352  11.110   0.362  0.2258 -0.0372 -0.3416
27336W        W44184   9.266  11.303  13.330 -0.0546 -0.2052  0.3353
27337W        W44185  15.121  13.581  10.952 -0.0126  0.2499  0.0303
27338W        W44186  17.363  14.693   1.315 -0.2563  0.1924  0.0609
27339W        W44187  13.624  11.025  13.647  0.3614 -0.0713  0.0001
27340W        W44188  12.561  16.196  12.325  0.0735  0.1045  0.1380
27341W        W44189  11.718   8.853   2.623  0.3622 -0.1320 -0.0085
27342W        W44190   6.429   7.961   3.944  0.8174  0.0483  0.1326
27343W        W44191   8.341  12.299   1.601  0.2769 -0.0101 -0.2131
27344W        W44192   3.116  15.783  13.110  0.1834 -0.0058 -0.1684
27345W        W44193   7.452  12.733   0.927  0.1152 -0.1518 -0.0497
27346W        W44194   7.262  11.592   4.138 -0.0886 -0.0197 -0.2912
27347W        W44195  11.422   4.552  11.440 -0.0702 -0.3323  0.0557
27348W        W44196   9.375   6.913  15.734 -0.1731 -0.4904 -0.1128
27349W        W44197  10.103   1.894   1.740 -0.3221 -0.0224  0.2193
27350W        W44198   6.733  17.507   0.128  0.2605  0.1578 -0.0021
27351W        W44199   6.592   0.954   1.052 -0.1727  0.1738  0.2987
27352W        W44200   8.446  11.719   3.665 -0.1584  0.0336 -0.1592
27353W        W44201  12.166   4.058  15.107 -0.3050 -0.0452 -0.0067
27354W        W44202  15.297  17.584  11.242 -0.0336  0.2767  0.1158
27355W        W44203   3.221   2.386   5.114  0.0431 -0.3934  0.2948
27356W        W44204  13.038  14.183  13.580 -0.0294 -0.2639 -0.0669
27357W        W44205  13.032  12.403  16.182  0.0340 -0.0061 -0.2993
27358W        W44206   3.273   8.268   5.138 -0.0734 -0.2212 -0.0907
27359W        W44207   1.100   1.440   2.823 -0.1098  0.1251  0.4035
27360W        W44208  17.726   7.237  15.802  0.0400  0.2719 -0.0851
27361W        W44209   6.791   1.180  14.801  0.2420  0.1279  0.0747
27362W        W44210  13.562  17.849  16.068  0.1267 -0.4013 -0.1994
27363W        W44211   3.401  13.951  14.503  0.1953  0.1964  0.1508
27364W        W44212   0.123   7.414   2.436  0.1708 -0.1498 -0.1728
27365W        W44213  15.380   5.603   5.100 -0.4009  0.1613 -0.0211
27366W        W44214   5.675  10.390   3.455 -0.0624 -0.0924 -0.2567
27367W        W44215  11.523   9.278  13.404  0.1452  0.2274 -0.1510
27368W        W44216  16.294   9.633  13.172  0.2389 -0.0877 -0.2236
27369W        W44217  15.625  13.396   0.137 -0.0223  0.0838 -0.1957
27370W        W44218  10.988  14.279  15.492  0.3446  0.2046  0.0607
27371W        W44219  12.293  11.035  13.342 -0.2290 -0.1964 -0.0455
27372W        W44220  12.318  10.817   3.696  0.0299 -0.1535  0.2115
27373W        W44221   6.442   1.737   0.488 -0.4192  0.1617 -0.0080
27374W        W44222  15.087  10.240  16.212 -0.4605  0.0141 -0.0711
27375W        W44223   4.023  11.218   3.967  0.0182 -0.4303  0.0125
27376W        W44224   4.119  12.001   2.638  0.1400 -0.2840  0.1511
27377W        W44225   9.871   7.784   0.743  0.0005  0.4705  0.0904
27378W        W44226   6.955  17.621   2.180  0.1181 -0.0573  0.0020
27379W        W44227   1.928   2.256   5.085 -0.0395  0.0577 -0.1237
27380W        W44228   0.778  10.399   1.977  0.0217  0.0890  0.0025
27381W        W44229   5.874  11.874  13.319  0.0711  0.0446 -0.3878
27382W        W44230  16.903   8.990   4.523  0.2321  0.0852 -0.1564
27383W        W44231   7.642   5.712  15.308  0.1811  0.1141 -0.2318
27384W        W44232  10.996   2.111  15.686  0.3968  0.0312  0.1419
27385W        W44233  13.290  13.285  13.817  0.2070 -0.0913 -0.1621
27386W        W44234   1.758  15.822   3.185  0.1553 -0.0834  0.0404
27387W        W44235  14.384  16.487   0.338  0.1942 -0.1136 -0.0144
27388W        W44236  17.549   3.004  12.689 -0.0939 -0.0012  0.3370
27389W        W44237   9.658  12.970   5.007 -0.2238 -0.0132 -0.3034
27390W        W44238  14.561   6.226  13.222 -0.0937  0.0006 -0.1994
27391W        W44239  16.681   4.429   2.343 -0.0001  0.3122  0.0823
27392W        W44240   2.096  17.280   4.148 -0.3132  0.2844  0.0674
27393W        W44241  17.399   4.367  11.811 -0.0723  0.1175 -0.3135
27394W        W44242  11.700  15.990  16.138  0.2648 -0.4239 -0.1423
27395W        W44243  17.549  13.413   3.624  0.2386  0.0468  0.0502
27396W        W44244   4.238  11.212   0.571 -0.0023  0.0597  0.0026
27397W        W44245   2.940   4.498   4.094 -0.2481 -0.2088  0.1088
27398W        W44246  17.370   3.993   5.665 -0.1173  0.0758 -0.1192
27399W        W44247   5.899   7.610  13.709 -0.2601  0.0016 -0.2380
27400W        W44248   4.999   9.751   0.545  0.2950 -0.2244  0.1827
27401W        W44249   0.926   9.633  13.647 -0.0408  0.3037  0.0897
27402W        W44250  11.141  16.734  11.251 -0.1186 -0.3525 -0.0599
27403W        W44251   9.100   9.015   1.652  0.4635 -0.2431  0.0764
27404W        W44252  17.297  17.367   0.563 -0.0878  0.0501  0.2593
27405W        W44253   9.462  16.117  12.073  0.0454 -0.1819 -0.0518
27406W        W44254   7.495  11.372   1.042 -0.6116 -0.0700  0.0373
27407W        W44255   9.264  15.635  15.133 -0.2192 -0.1967  0.1887
27408W        W44256   4.046   6.994  13.284 -0.1700  0.2556  0.0339
27409W        W44257   5.510   6.063  15.093 -0.0486 -0.1935 -0.4438
27410W        W44258   1.339  13.593   4.208  0.0784  0.2923  0.0280
27411W        W44259  15.091  15.118  10.710  0.0195  0.1389  0.0139
27412W        W44260   3.233   3.864  11.142 -0.1037  0.2283 -0.1019
27413W        W44261   3.526  12.730   6.229  0.3078  0.1908  0.1395
27414W        W44262   2.154  10.402   4.952  0.1732 -0.0830 -0.1024
27415W        W44263   0.985   8.673   4.887 -0.1642 -0.0972  0.2051
27416W        W44264   6.860   6.410   3.590  0.3255 -0.0364  0.0990
27417W        W44265  15.560   0.187  14.484  0.0905  0.1711 -0.2505
27418W        W44266  14.541  15.859   2.453 -0.2091  0.0790  0.1315
27419W        W44267  13.990   9.889   4.879  0.3536  0.2887 -0.0748
27420W        W44268   9.196   6.799   3.316 -0.2647  0.0164 -0.0885
27421W        W44269   1.174   0.484  13.316  0.0966 -0.3524  0.0628
27422W        W44270   7.617  13.617   1.984 -0.0603 -0.1624  0.0419
27423W        W44271   2.439  11.183  12.064 -0.0807  0.2198  0.0423
27424W        W44272   5.157   4.981  10.998  0.0603 -0.0747  0.0826
27425W        W44273   1.944  16.078  11.024 -0.0527  0.1640 -0.2748
27426W        W44274  16.793   1.847  16.038  0.4355  0.1162  0.2113
27427W        W44275  13.869   5.459  15.972 -0.0025  0.0578  0.0320
27428W        W44276  12.205  11.928   1.932  0.1435  0.2588  0.0696
27429W        W44277   6.732   9.823   1.944  0.0214 -0.1610  0.0156
27430W        W44278   6.093   0.660  14.905  0.1461 -0.1669  0.0974
27431W        W44279   1.057   7.009   1.872 -0.1053  0.0529  0.0801
27432W        W44280  14.109   8.188   4.149 -0.0950  0.1139 -0.1509
27433W        W44281   6.295  15.809  15.701 -0.0868  0.0407  0.2054
27434W        W44282  14.737  10.108  14.057 -0.0981 -0.0091  0.1451
27435W        W44283   5.845  11.819  11.521 -0.0689  0.0666  0.0034
27436W        W44284   5.741  15.889  11.970 -0.2442 -0.1478  0.2195
27437W        W44285  13.259  15.249  13.580  0.0175  0.0430  0.0728
27438W        W44286   4.228  17.545  11.244  0.1300 -0.3040 -0.1942
27439W        W44287  10.488   5.224  13.787 -0.1624 -0.0864 -0.3277
27440W        W44288   2.219  10.910   1.769  0.2337 -0.1784 -0.1473
27441W        W44289   9.731  16.404   3.935 -0.2633 -0.0518 -0.0980
27442W        W44290   4.314   4.972  10.619  0.3620 -0.0399  0.0838
27443W        W44291  14.124   3.564  14.753  0.1139  0.0672 -0.1708
27444W        W44292  13.622   5.744   3.547  0.2099 -0.1126  0.0694
27445W        W44293  11.679   5.344  15.855  0.2722 -0.2747  0.0498
27446W        W44294  12.143  12.109  15.375  0.2383  0.0661  0.0317
27447W        W44295   8.657  16.310   5.881  0.0975 -0.2551  0.0464
27448W        W44296  10.560   8.041  14.648 -0.0779 -0.3778  0.0697
27449W        W44297  10.242  12.059  12.115  0.0789 -0.3525 -0.1198
27450W        W44298   8.747  17.261   1.585 -0.0908 -0.0485  0.1957
27451W        W44299  17.040   9.210   4.129 -0.1038  0.1066  0.4010
27452W        W44300  14.701   4.600  15.307 -0.1400 -0.3190  0.1255
27453W        W44301   0.010   7.267  12.883 -0.1988  0.0647  0.1396
27454W        W44302  16.622  16.471  16.414  0.0743 -0.2311 -0.1971
27455W        W44303   6.534  10.094   0.883 -0.3143 -0.0040 -0.2480
27456W        W44304  14.398   7.897   4.377 -0.1081 -0.1266 -0.0834
27457W        W44305  14.372   6.380  15.583  0.2874 -0.0420  0.0794
27458W        W44306   4.498  16.190   2.309 -0.1064  0.1290 -0.0580
27459W        W44307   7.585  15.028   1.697 -0.1284  0.1098 -0.4164
27460W        W44308   1.335  11.178  16.305 -0.0222 -0.3505 -0.2420
27461W        W44309   6.673   3.257   2.126  0.2960  0.1110 -0.2290
27462W        W44310  16.592   9.623  13.582  0.0409 -0.1253 -0.2567
27463W        W44311   6.421  13.008   4.429 -0.1735  0.2562 -0.0497
27464W        W44312  16.249   6.090  15.217 -0.0270 -0.1538  0.0774
27465W        W44313  14.342  13.594   0.051 -0.3262  0.0848 -0.0090
27466W        W44314   2.358   2.971  14.346 -0.1653 -0.3964 -0.0543
27467W        W44315   9.595  14.236  12.185 -0.0262 -0.0514  0.0549
27468W        W44316  10.971  17.557  12.497  0.1517  0.0513  0.0335
27469W        W44317  13.794   7.587   1.807  0.0033  0.2585 -0.3667
27470W        W44318   1.759  17.245   2.055  0.1674 -0.0527 -0.0023
27471W        W44319  10.202   6.201   4.005  0.1689  0.1838 -0.0206
27472W        W44320   9.925  12.114   4.720  0.1741 -0.0999 -0.1887
27473W        W44321   2.840   2.198  14.729 -0.2166 -0.0467 -0.1000
27474W        W44322  11.981  13.563   1.353 -0.2928  0.0215 -0.2913
27475W        W44323  14.351   1.567   4.435 -0.1918  0.0975  0.0856
27476W        W44324  10.845   7.329   3.899  0.0996 -0.0631 -0.0951
27477W        W44325   9.937  13.389  13.068  0.3248  0.1876  0.3260
27478W        W44326   3.780  11.693   1.373 -0.0330 -0.4472  0.2824
27479W        W44327   4.599  14.846  15.272  0.2029 -0.0814  0.3950
27480W        W44328  17.598   1.957   1.096 -0.1094 -0.0227 -0.4350
27481W        W44329   7.114   3.516  11.984  0.1486  0.1768 -0.0990
27482W        W44330  12.793   6.383  14.973  0.0583  0.2253 -0.2869
27483W        W44331   1.580   8.878  14.816 -0.0109 -0.0387 -0.0080
27484W        W44332   2.477  10.085  13.460 -0.1851  0.2824  0.6296
27485W        W44333  15.070   8.466   0.168  0.0218  0.0582  0.1036
27486W        W44334  16.149   6.407   4.867 -0.0181  0.1377  0.1410
27487W        W44335   4.067   1.036  15.895  0.1399  0.3085 -0.1101
27488W        W44336   8.489   3.383   4.059 -0.3311  0.0101 -0.2249
27489W        W44337  14.781   7.918   1.707 -0.3791 -0.0331 -0.2615
27490W        W44338   7.567   2.527   0.907  0.0596  0.0719  0.0816
27491W        W44339   9.572   7.656  15.276  0.1765  0.1310  0.1004
27492W        W44340   1.291  16.642  15.441  0.2713  0.2500 -0.4402
27493W        W44341   7.400   8.600  12.150 -0.0587  0.0756  0.1157
27494W        W44342   2.701  15.910  12.933  0.0310  0.0672  0.0124
27495W        W44343  14.910  10.204  12.360 -0.0517 -0.0326 -0.1007
27496W        W44344   6.787  14.766  14.162 -0.2121 -0.2140  0.2965
27497W        W44345   2.629   7.432  14.433  0.2390 -0.0215 -0.1168
27498W        W44346  11.763  17.594  11.835 -0.0908  0.0826 -0.0633
27499W        W44347  14.163  12.893   1.740  0.0412 -0.3000 -0.2539
27500W        W44348  13.555   4.344   4.762 -0.0154 -0.0697 -0.0975
27501W        W44349  15.239  10.184   0.672  0.1825  0.2686 -0.2135
27502W        W44350  15.421   6.782  14.142 -0.2197  0.0898 -0.1698
27503W        W44351   6.079  13.579  14.029  0.0047 -0.0037  0.0606
27504W        W44352   6.023  15.352   2.376 -0.0349  0.1646 -0.0943
27505W        W44353   8.946  16.283   0.512  0.1541  0.2328  0.1162
27506W        W44354   0.673  17.708  15.842 -0.1467  0.2318 -0.0445
27507W        W44355   9.291   4.418   1.048 -0.4343 -0.1372  0.0606
27508W        W44356   9.144  11.357  11.869 -0.1108 -0.1123 -0.0989
27509W        W44357  11.722  13.627   4.593 -0.1144  0.1102  0.3173
27510W        W44358   7.668  16.112   4.689 -0.0522 -0.1743 -0.0836
27511W        W44359  14.970   4.507  11.680 -0.2959  0.0123 -0.1764
27512W        W44360   3.976  11.526   2.995 -0.0964  0.2399  0.1659
27513W        W44361  17.821  17.801  14.678  0.1376 -0.0654  0.1844
27514W        W44362  10.096   6.898  15.827 -0.1640 -0.2448 -0.0850
27515W        W44363   2.096   7.791   4.734  0.4290 -0.4294 -0.0231
27516W        W44364   3.681  11.744   4.844 -0.0172 -0.0674 -0.1983
27517W        W44365   8.060   9.143   0.573  0.1438  0.0971  0.0034
27518W        W44366   5.541  16.278  15.215  0.0722  0.0219  0.1091
27519W        W44367  14.838   6.231  13.695  0.0619  0.0763 -0.1527
27520W        W44368   0.595   9.804   5.757  0.1693  0.0151  0.2425
27521W        W44369   6.777  15.559  13.526  0.1651  0.2823 -0.1562
27522W        W44370  14.136   4.711   1.381 -0.1010  0.1779 -0.2342
27523W        W44371   0.182   8.009   0.487 -0.1966 -0.0592  0.0012
27524W        W44372   3.157   6.201  13.037 -0.0195 -0.0602 -0.1165
27525W        W44373  10.096   5.792   3.043 -0.0887 -0.4039 -0.0134
27526W        W44374   4.966  16.101   1.631  0.1216  0.3071  0.1327
27527W        W44375  11.226   3.695  15.261  0.3886  0.0391 -0.0865
27528W        W44376   3.564   5.215   2.078  0.0038  0.0756  0.1752
27529W        W44377  17.195  13.709   3.930 -0.0060  0.1054 -0.0703
27530W        W44378  14.862  15.471  15.830 -0.1209 -0.1148 -0.0682
27531W        W44379  11.517   3.172   3.101  0.1433  0.0583  0.0166
27532W        W44380  17.871  16.443   5.337 -0.3487 -0.1798 -0.0385
27533W        W44381   7.510  14.223   4.175  0.1251 -0.1553  0.2350
27534W        W44382  15.799  16.217  11.355 -0.2438  0.5261 -0.0635
27535W        W44383   1.291   3.277  13.494 -0.0469 -0.0705 -0.0667
27536W        W44384  14.975   6.135  12.557  0.0508  0.0859 -0.4268
27537W        W44385  15.563   2.180   3.431 -0.1226 -0.3533 -0.1004
27538W        W44386   0.496   1.372  12.121 -0.2313  0.1095  0.0472
27539W        W44387   3.910   3.317   4.912 -0.0128 -0.1500 -0.0738
27540W        W44388  17.690  10.137   1.041  0.3119  0.0419 -0.0472
27541W        W44389   9.728   5.586  15.665 -0.0785 -0.0242  0.0664
27542W        W44390   8.853   1.248  16.436 -0.1874 -0.1973  0.1735
27543W        W44391   6.387   1.674  16.428  0.0504 -0.0995 -0.1711
27544W        W44392  11.514   6.699  11.609 -0.1650 -0.0741  0.1438
27545W        W44393  13.294  11.430   2.588 -0.1388 -0.0760  0.0386
27546W        W44394   5.599   8.113  11.709 -0.2085  0.1122 -0.1756
27547W        W44395  16.111  14.175  16.205 -0.0325  0.3681 -0.0902
27548W        W44396   2.120   6.178   1.451  0.0264 -0.0948  0.0465
27549W        W44397   6.007   0.394   1.251 -0.3782 -0.0420 -0.2586
27550W        W44398   7.625   3.064   0.042  0.1361  0.0828  0.3396
27551W        W44399  13.529   3.349  13.993  0.1358  0.0342  0.1503
27552W        W44400  12.249   9.327   1.205  0.0406  0.1848 -0.0991
27553W        W44401   5.147  16.994   2.194 -0.0140 -0.0150  0.0199
27554W        W44402   9.007   0.935   2.375  0.0377 -0.0661 -0.0957
27555W        W44403   5.004  14.644   2.910  0.3064  0.0056  0.0316
27556W        W44404   5.487   0.717  14.738  0.0853 -0.0581  0.3317
27557W        W44405  13.629   6.240   0.107  0.2745 -0.0867  0.0846
27558W        W44406  17.782  14.195   3.054  0.0319  0.1125 -0.1859
27559W        W44407  10.715   4.110   6.324  0.0457 -0.6822 -0.1130
27560W        W44408  15.578  16.958  13.434  0.0163  0.0599  0.4001
27561W        W44409   9.400   6.597   0.993 -0.1598 -0.3623  0.1020
27562W        W44410  17.272  11.682  14.862  0.2249  0.1999 -0.2856
27563W        W44411   3.518  13.656   2.477  0.1996 -0.0568  0.1036
27564W        W44412  13.221   5.650  13.654  0.0246 -0.0761 -0.1558
27565W        W44413   6.660  13.012  14.580 -0.1920  0.1162 -0.0826
27566W        W44414  16.208   1.948   1.391  0.3898  0.1832  0.0412
27567W        W44415   6.868   7.412   5.246  0.1427  0.2639 -0.1376
27568W        W44416   8.246  12.389  14.247 -0.0947  0.1123 -0.5440
27569W        W44417  13.428   3.561   3.189  0.0295 -0.1475  0.0457
27570W        W44418   2.387  12.618   2.093  0.2848  0.0424  0.0187
27571W        W44419   9.986   4.709  12.262  0.0603  0.1327 -0.1583
27572W        W44420   1.371   4.632  14.004 -0.1717  0.0708 -0.0847
27573W        W44421   8.697  12.283  14.006 -0.2693  0.1683 -0.1896
27574W        W44422  13.057   1.466  13.366  0.1500 -0.3714 -0.4073
27575W        W44423  12.585  11.480   3.165  0.0892  0.0189  0.1916
27576W        W44424   3.757  12.766   2.351 -0.0826  0.0741 -0.2333
27577W        W44425   9.559  17.822  14.139  0.4103  0.0518  0.2270
27578W        W44426   3.927  17.116   4.431  0.2288  0.0875 -0.0377
27579W        W44427  14.616   3.588  15.543  0.0963  0.2679  0.1022
27580W        W44428  15.896  11.908  12.956  0.3147  0.3060 -0.2026
27581W        W44429   2.772   7.291  10.085 -0.1217  0.2338 -0.0102
27582W        W44430   1.477  14.276  11.871 -0.3911 -0.0784 -0.2087
27583W        W44431   5.453  13.204   5.793  0.2330  0.0215 -0.0884
27584W        W44432  16.444  17.775  12.462  0.0614  0.1061  0.1159
27585W        W44433  17.812  16.648  13.036  0.0073 -0.0136  0.4109
27586W        W44434  16.768  14.035  14.833  0.1653  0.1581 -0.2592
27587W        W44435   9.337  16.633  16.301 -0.2401  0.3377 -0.0113
27588W        W44436  12.185  17.874  14.902  0.3046  0.1211  0.2527
27589W        W44437  13.068  17.555   1.652 -0.2281  0.1135 -0.0080
27590W        W44438   2.769   8.573   2.161  0.1604 -0.1423  0.0010
27591W        W44439   6.547   3.577  14.401 -0.0186 -0.1295 -0.0740
27592W        W44440  15.267  13.959  15.059  0.0970 -0.0191 -0.1394
27593W        W44441   1.110  15.522  12.512 -0.1198  0.0093 -0.1715
27594W        W44442  13.198   3.962  11.965 -0.0631 -0.0655 -0.1132
27595W        W44443   0.884   7.709  15.472 -0.0902 -0.0338 -0.0509
27596W        W44444  16.249  10.914  14.031  0.1049 -0.0509 -0.1712
27597W        W44445   7.949   3.621  14.579  0.2198  0.1084  0.1951
27598W        W44446   0.090  13.213  13.045  0.2721 -0.1394  0.0525
27599W        W44447   2.318  15.778   2.920  0.2379  0.1387  0.0485
27600W        W44448  14.983   0.648   3.707  0.1370  0.1283  0.0141
27601W        W44449  17.089   3.989  15.413 -0.2070  0.0282 -0.0313
27602W        W44450   4.217  10.940  13.872  0.2629  0.1568 -0.0554
27603W        W44451  16.811  14.878   1.899  0.0917  0.0572  0.0774
27604W        W44452   0.834   2.703  12.850 -0.0999  0.0899  0.0634
27605W        W44453   6.027   6.117  12.612 -0.0305 -0.0189  0.0607
27606W        W44454   1.549  17.602   0.995  0.1543 -0.0415 -0.1701
27607W        W44455  16.415  11.605  11.609  0.0931 -0.0671  0.2857
27608W        W44456   0.699  15.416  13.572 -0.0281 -0.0426  0.0162
27609W        W44457  16.457  14.029   2.913  0.0057  0.0188  0.1526
27610W        W44458  11.265  13.832   2.157  0.0037  0.0871  0.0977
27611W        W44459  12.469   4.603   3.980 -0.0243  0.1116  0.0360
27612W        W44460  16.416   8.009   2.282 -0.1224  0.1175  0.0336
27613W        W44461   9.118   3.688  10.529  0.0480 -0.1150 -0.0146
27614W        W44462  16.473  17.030   4.389 -0.2027 -0.1162  0.1414
27615W        W44463  17.465   2.967   1.064  0.1444 -0.1665 -0.1207
27616W        W44464   7.146   7.100   2.856  0.0979  0.2537  0.1656
27617W        W44465  12.187   5.780  10.113  0.1584  0.1563  0.0670
27618W        W44466   3.045   5.392  14.336  0.2228 -0.1666  0.0852
27619W        W44467   0.765  14.011  15.299 -0.0060 -0.3518 -0.2155
27620W        W44468  10.541   4.484   5.361 -0.0552 -0.1656  0.1560
27621W        W44469   5.911  15.263   2.955 -0.0550 -0.1031  0.0606
27622W        W44470   2.253  13.052  13.539 -0.0022  0.0790 -0.0599
27623W        W44471   2.112   1.348   3.873 -0.1002 -0.0260  0.1348
27624W        W44472  17.666   0.141  16.062  0.0086 -0.0161 -0.0856
27625W        W44473  15.657   0.230  12.481  0.1111 -0.3048  0.0359
27626W        W44474   2.377   8.582   3.793 -0.3597 -0.2606  0.1394
27627W        W44475   2.709  12.813  11.504  0.0205 -0.1133 -0.0015
27628W        W44476   8.333  16.483  11.774  0.0956 -0.2627  0.0951
27629W        W44477   2.405   7.925  11.021  0.2892  0.0983  0.0484
27630W        W44478   9.033  10.189  12.575 -0.0300  0.1146  0.0426
27631W        W44479   2.078   9.205  15.953  0.0049  0.2654 -0.3397
27632W        W44480  12.690   4.620  13.590 -0.0348  0.0508  0.1088
27633W        W44481   8.183  10.984   3.449 -0.0583 -0.0958  0.3585
27634W        W44482  10.218   9.337  13.840 -0.0104 -0.0411  0.0790
27635W        W44483  12.299  11.649   2.440 -0.0136 -0.1794 -0.1111
27636W        W44484   7.675  12.045   2.613  0.0366  0.1047 -0.0856
27637W        W44485  11.440   2.379  15.236 -0.4991  0.1272 -0.0057
27638W        W44486   0.476   9.807  11.456 -0.0622 -0.0826 -0.1256
27639W        W44487   1.473   1.761  12.376 -0.2494  0.0309 -0.1004
27640W        W44488  11.503   8.968   3.362 -0.2674 -0.0833 -0.2450
27641W        W44489  17.073   1.285   4.754  0.1174  0.2861 -0.0597
27642W        W44490  13.993  10.389  12.837 -0.0724  0.2734 -0.0712
27643W        W44491  17.776  16.137  13.702 -0.1851  0.0592 -0.0832
27644W        W44492   0.935   4.541  12.301  0.0727 -0.1670  0.0606
27645W        W44493   4.587   0.554   1.808  0.7956 -0.0472 -0.0339
27646W        W44494   5.485  14.603   4.048 -0.2087 -0.1862 -0.2271
27647W        W44495  16.434  16.485   4.364  0.0117  0.1023 -0.1260
27648W        W44496  15.468  12.312  12.391 -0.2176  0.2435 -0.0633
27649W        W44497   1.021   6.405  13.376  0.1760  0.1578 -0.2499
27650W        W44498  12.023  13.267   4.392  0.0424  0.4327 -0.2242
27651W        W44499  11.801   8.601  15.398 -0.1508  0.1568 -0.1422
27652W        W44500   9.785   8.154  15.358 -0.2773 -0.1192  0.0536
27653W        W44501  15.516  15.769  14.097 -0.1139  0.0199 -0.1330
27654W        W44502  16.076   1.157  14.543  0.4620  0.1792 -0.3441
27655W        W44503   5.597   1.444   4.980 -0.2284 -0.2180 -0.0520
27656W        W44504   9.939  17.225  12.619 -0.0190  0.0884 -0.0419
27657W        W44505   5.730   7.347  12.873 -0.0768  0.0971 -0.0792
27658W        W44506   6.811   4.273  13.599 -0.1589  0.1402 -0.0784
27659W        W44507   4.026   9.856   4.312 -0.1009 -0.1131 -0.0525
27660W        W44508  15.639  13.463  13.270 -0.2235  0.1802 -0.1165
27661W        W44509  14.563   2.970  10.001 -0.0230  0.0423 -0.2153
27662W        W44510  13.441   2.111  12.841  0.0866 -0.1276  0.0804
27663W        W44511   4.230  16.446  16.360 -0.2081  0.2251 -0.2048
27664W        W44512   0.814   5.134   0.997  0.0062 -0.2281 -0.1018
27665W        W44513  11.063   1.908  11.652 -0.1254 -0.0518 -0.0046
27666W        W44514  16.991   6.409   5.440 -0.0223  0.0555 -0.2489
27667W        W44515  14.365   5.293  10.987  0.3549  0.0512  0.1931
27668W        W44516  16.406  10.540   4.348  0.1787  0.0897 -0.3648
27669W        W44517  15.881   3.308  14.117 -0.3970 -0.0960 -0.0296
27670W        W44518   2.937   8.942  16.047 -0.1267 -0.2255  0.3468
27671W        W44519   2.203  16.510   5.282  0.3863 -0.0583 -0.0445
27672W        W44520  10.199   9.863  12.282 -0.1040 -0.0238 -0.0565
27673W        W44521  17.056  15.793   4.114  0.0935 -0.0172 -0.2274
27674W        W44522   9.566  10.150   5.308  0.0346  0.0853  0.0335
27675W        W44523  15.607  15.857  15.531 -0.1711  0.0366 -0.0737
27676W        W44524   4.277  11.321   5.369  0.4857  0.0092 -0.1414
27677W        W44525   0.994  11.610  12.359 -0.3039  0.0343  0.3552
27678W        W44526   8.914   8.711  12.406  0.1485 -0.0960 -0.1690
27679W        W44527   1.869   7.164   5.076 -0.2142 -0.1748  0.4225
27680W        W44528  11.638  10.509   2.398 -0.1500  0.2320  0.1037
27681W        W44529  17.342   8.323  12.573  0.1612 -0.3160  0.2087
27682W        W44530   9.070  10.128   5.189  0.2696 -0.2404  0.0010
27683W        W44531  10.090   3.494  14.992  0.1896 -0.4379  0.0341
27684W        W44532  10.627   4.367  15.868 -0.4434  0.2789  0.2437
27685W        W44533  17.204  13.540   3.222  0.2241  0.1055  0.0811
27686W        W44534  14.910   1.544  14.560  0.1951  0.0416 -0.3371
27687W        W44535  14.098   7.770  11.516 -0.1002 -0.0380  0.0691
27688W        W44536  13.500  15.749  14.838  0.1111  0.1209  0.1284
27689W        W44537  13.857  13.271   4.860  0.1787 -0.0234 -0.1446
27690W        W44538  16.002  12.727  12.386  0.2638  0.1196  0.0689
27691W        W44539   4.582  17.656   3.944 -0.0492  0.1176  0.0022
27692W        W44540  10.504   2.065   0.837  0.1930 -0.1965 -0.1417
27693W        W44541   2.868   9.390   3.670  0.1051  0.0932 -0.1764
27694W        W44542   3.343  16.181  16.240 -0.0047 -0.0875 -0.0478
27695W        W44543  15.124   0.581  16.085  0.0146 -0.2884  0.1318
27696W        W44544   1.890   9.932  12.915  0.2824  0.0072  0.0149
27697W        W44545  16.688  16.282  12.673  0.0010 -0.0680 -0.2549
27698W        W44546   1.389  14.088   1.206 -0.1826 -0.0605 -0.2316
27699W        W44547   0.021  10.143   3.946 -0.0273  0.3635  0.2156
27700W        W44548   4.679   0.274  13.701 -0.1295  0.1205  0.4580
27701W        W44549   8.296   7.594  12.240 -0.0337 -0.1177  0.3319
27702W        W44550  10.028  13.001   4.642 -0.2617 -0.0897  0.3226
27703W        W44551   7.937   5.259   3.829 -0.2390  0.0043 -0.4902
27704W        W44552   5.834   2.095  12.517 -0.0225 -0.4001  0.1424
27705W        W44553   3.644   0.585  13.381  0.1930  0.1860 -0.0114
27706W        W44554   1.153   3.615   4.741 -0.1147  0.2703  0.0425
27707W        W44555   2.420  10.329  12.395  0.0479 -0.0878 -0.2083
27708W        W44556   9.870  12.242   5.649  0.0455 -0.0798  0.0556
27709W        W44557  10.409  11.349  16.399 -0.1880  0.3950 -0.0138
27710W        W44558   5.368  16.336   6.181  0.0686  0.2398 -0.0668
27711W        W44559   9.654  17.779  15.711  0.0369 -0.2734  0.1147
27712W        W44560  10.945   1.531   0.125  0.2691  0.0653 -0.2263
27713W        W44561   2.496   8.542   0.099 -0.0520  0.2540  0.0965
27714W        W44562  13.673   7.131  12.416 -0.5412  0.1258 -0.0029
27715W        W44563  16.966  12.823  11.526  0.0485 -0.0786 -0.0728
27716W        W44564  15.406   8.383   2.470  0.0622 -0.1233 -0.1938
27717W        W44565  11.904   0.968  11.470  0.2181  0.2318  0.2186
27718W        W44566  12.934   0.308  16.457  0.0838 -0.0823  0.2889
27719W        W44567  10.008  11.260  13.214  0.2515  0.0935 -0.1944
27720W        W44568   6.465   5.994   3.561  0.3811  0.0117  0.0397
27721W        W44569  17.012  11.751   2.519 -0.0250  0.0323  0.1465
27722W        W44570  14.628   9.025   3.333  0.1104  0.1105  0.5227
27723W        W44571   1.518  10.159   4.717  0.0459  0.0675 -0.0275
27724W        W44572  13.715   2.978   1.334  0.1805  0.1582 -0.1767
27725W        W44573  14.268   5.864   2.253 -0.0404  0.1035 -0.0773
27726W        W44574   1.833   8.094  15.334  0.0672 -0.1150 -0.3194
27727W        W44575   6.482   4.614   2.177  0.0701  0.0930 -0.0439
27728W        W44576   4.699   5.088  13.867  0.1399  0.1677  0.0199
27729W        W44577  16.021   6.656   3.665  0.1984  0.4865 -0.1711
27730W        W44578   4.080   6.521  10.402 -0.1300 -0.0525  0.1792
27731W        W44579   8.089   8.410  12.985 -0.1038 -0.2328 -0.0794
27732W        W44580   2.140   2.011  13.523 -0.1348  0.0065  0.0735
27733W        W44581   2.091   4.402  16.372 -0.1865  0.0728 -0.1877
27734W        W44582  13.437  16.973  12.560  0.3044  0.0645 -0.1201
27735W        W44583   6.918  16.042  13.392 -0.0226  0.1446  0.0759
27736W        W44584  13.906  12.438  14.955  0.0013  0.0820 -0.1930
27737W        W44585  10.257  12.902  14.811  0.0162  0.2636 -0.3678
27738W        W44586   7.486   3.991   4.850  0.0058 -0.2858  0.1294
27739W        W44587  15.484   2.015   2.939 -0.1445  0.1513 -0.1888
27740W        W44588   4.761   6.475   4.328  0.0327 -0.0530  0.0033
27741W        W44589   1.519  10.716  13.280  0.0716 -0.0706  0.4088
27742W        W44590   4.791   1.644   3.028 -0.0170 -0.0072 -0.1150
27743W        W44591   7.011   5.190   2.560  0.0053  0.1178  0.0162
27744W        W44592   2.763   9.442  16.121  0.0508  0.5127 -0.2012
27745W        W44593   1.813  13.099  12.740  0.1774  0.0629  0.3116
27746W        W44594  16.376  10.246  15.510 -0.2978  0.0854  0.2597
27747W        W44595  13.409   4.993  12.984 -0.2241 -0.1931  0.2648
27748W        W44596  14.887   9.818   5.991 -0.0734  0.0308  0.1869
27749W        W44597  13.258   3.014  12.325 -0.0110 -0.1596 -0.0662
27750W        W44598   0.234   5.907  13.993  0.2294 -0.3255 -0.0382
27751W        W44599   3.964   4.788  15.235  0.2284  0.0678  0.3239
27752W        W44600   8.072   6.208  12.907 -0.2469  0.1588 -0.0382
27753W        W44601   1.596   0.239   0.940 -0.1754 -0.2233  0.2606
27754W        W44602  11.768  15.185   0.060 -0.2150 -0.0433  0.3271
27755W        W44603   7.892   3.881   4.444 -0.0050 -0.1608  0.2001
27756W        W44604   0.311   6.658   3.183 -0.2845  0.0023  0.0271
27757W        W44605  15.956  11.746  14.098 -0.3405  0.0551  0.1152
27758W        W44606  11.357  13.324  16.387 -0.1606  0.2888 -0.0611
27759W        W44607   4.286  10.392  16.386 -0.1413  0.0669  0.0857
27760W        W44608   9.378   5.071  11.709 -0.0719  0.1058  0.0517
27761W        W44609   0.130   6.132  13.069  0.1072  0.3429 -0.0131
27762W        W44610   0.739   2.328   3.673 -0.0570  0.0619 -0.1940
27763W        W44611   9.425   4.321   2.825  0.3577  0.0396  0.1609
27764W        W44612   8.774   2.316   2.351 -0.1974 -0.0286 -0.0243
27765W        W44613   8.548  10.177  15.053  0.1234 -0.0858  0.1741
27766W        W44614   1.150  16.239   3.993  0.2413 -0.0947  0.2300
27767W        W44615   9.984  14.154  11.858 -0.1797  0.1404  0.0001
27768W        W44616   6.395  12.712   1.949 -0.2803 -0.1449 -0.4835
27769W        W44617   0.558  16.543   5.125  0.1623 -0.3881 -0.3143
27770W        W44618  17.592  16.064  15.347 -0.0810  0.0437 -0.2780
27771W        W44619   6.761  10.729   4.392 -0.2244  0.1687  0.2104
27772W        W44620   5.424   6.543  12.351  0.0163  0.1007  0.0219
27773W        W44621   9.259  12.893   4.676 -0.0557 -0.1478 -0.4916
27774W        W44622   4.157   5.977  16.067 -0.0834 -0.0652  0.3094
27775W        W44623   8.561  14.873  13.377  0.3571  0.0505 -0.0512
27776W        W44624   7.559   1.655   4.210  0.1205  0.2273 -0.0535
27777W        W44625   5.529  16.119   2.730 -0.0417  0.1902  0.4703
27778W        W44626   3.855  17.111  12.647  0.2658  0.1131 -0.1476
27779W        W44627  11.306  14.199   0.852 -0.1233  0.0564 -0.1640
27780W        W44628  12.200   3.458  11.269  0.2432 -0.1017 -0.0399
27781W        W44629  11.535   4.844  16.069 -0.0037  0.2080  0.0103
27782W        W44630  12.326  13.003  15.230 -0.1145  0.0147  0.0892
27783W        W44631   6.067  13.714  12.821 -0.0901  0.3686  0.3050
27784W        W44632  16.450   8.577   2.489  0.1337  0.4032  0.1135
27785W        W44633  12.247   0.902  15.787  0.1405 -0.2904  0.1634
27786W        W44634  10.902   5.995   1.038 -0.0132 -0.1063  0.0643
27787W        W44635   3.430  14.711  13.769  0.2468  0.1449 -0.1357
27788W        W44636   9.109  13.140   5.105  0.2334  0.4313 -0.1150
27789W        W44637   6.749   8.285   0.197 -0.0102  0.2606 -0.1486
27790W        W44638  14.991  14.862   3.003  0.1005  0.1016  0.0433
27791W        W44639   8.105  16.325  15.087  0.1522  0.2391 -0.1828
27792W        W44640   6.239   1.190  15.015  0.0928 -0.1963  0.0664
27793W        W44641  11.965   3.888  15.926 -0.0702 -0.0152 -0.2073
27794W        W44642  16.372   5.289  13.484  0.0160 -0.1229  0.0898
27795W        W44643  15.006   3.229  11.191  0.2581  0.1149  0.3863
27796W        W44644  13.107  10.943   3.375 -0.0373 -0.4757  0.2890
27797W        W44645  12.866   2.073  11.565  0.3551 -0.0845  0.0077
27798W        W44646   0.624   5.274   0.390  0.2246  0.0618  0.0174
27799W        W44647  13.702  13.126  14.048 -0.1997 -0.1736 -0.5192
27800W        W44648   6.276  15.637   4.142  0.1635 -0.2215 -0.0136
27801W        W44649  17.085  11.004   1.510  0.1898  0.2158  0.2949
27802W        W44650   6.018  12.328   4.880 -0.1423  0.1333 -0.2695
27803W        W44651   0.557   4.253   1.303  0.0854  0.0438  0.1576
27804W        W44652   2.048  14.667   4.096 -0.0453  0.0730 -0.0768
27805W        W44653  10.405  14.649   2.451 -0.1961  0.0644  0.0380
27806W        W44654  13.717  11.705   2.587  0.0453  0.0904 -0.0504
27807W        W44655   3.317   3.422   0.856 -0.1322 -0.0111 -0.2052
27808W        W44656   4.440   7.050  11.640 -0.1040 -0.0126 -0.2640
27809W        W44657  13.957   0.946   1.477 -0.1824  0.1578  0.0723
27810W        W44658  15.321   4.426   1.554  0.0769 -0.0858  0.0102
27811W        W44659   6.247   6.018  12.078 -0.0517 -0.1053 -0.0084
27812W        W44660  12.865   8.385  15.821 -0.0002  0.0929 -0.0709
27813W        W44661  11.930   4.982   1.627 -0.0858  0.2542 -0.0553
27814W        W44662   3.585   5.117  15.484  0.0656 -0.0639 -0.2791
27815W        W44663   8.127  17.655  15.221 -0.0554  0.2884 -0.1043
27816W        W44664   4.631   9.412  12.686  0.2842  0.0771  0.2155
27817W        W44665  13.881   4.133  13.842  0.0252 -0.1350 -0.2207
27818W        W44666   2.578  17.604   4.115 -0.1022  0.1740  0.1169
27819W        W44667  12.193   9.798  14.870  0.2250  0.0475  0.1645
27820W        W44668   9.296   2.175   2.759  0.0187 -0.3275  0.2501
27821W        W44669  10.078  13.641   0.488 -0.2442  0.1379 -0.1376
27822W        W44670   6.316   0.326   4.177  0.0465  0.2261 -0.3732
27823W        W44671   5.797  14.259  13.672  0.0340 -0.0489 -0.2311
27824W        W44672  10.794   4.123  13.244 -0.1003 -0.0751 -0.2958
27825W        W44673   2.302   5.612  13.265  0.1642  0.0214 -0.0634
27826W        W44674   8.299   9.140   5.936  0.1079 -0.0833  0.2694
27827W        W44675   7.222  17.047   1.583 -0.1810 -0.0256  0.0401
27828W        W44676  16.164   6.153  16.199  0.2026  0.1040  0.5236
27829W        W44677  17.665   1.848  11.412 -0.0101 -0.0732  0.0570
27830W        W44678   5.379  14.339  15.235  0.1115  0.1161 -0.1105
27831W        W44679  11.808   5.231  10.762 -0.0714 -0.2560 -0.4641
27832W        W44680   3.323   6.803  11.426 -0.1049  0.1089  0.3230
27833W        W44681  15.524  17.761   4.004  0.0246 -0.0044  0.0577
27834W        W44682  16.171   3.900   4.566 -0.2043 -0.1857  0.1279
27835W        W44683   7.238   8.999   1.625 -0.2628  0.2043 -0.1435
27836W        W44684  15.573   7.540   1.304  0.1514 -0.1241  0.0277
27837W        W44685   6.505  11.466   1.764 -0.3502  0.1467 -0.1144
27838W        W44686   0.718   8.742   4.053  0.1565  0.0337 -0.2371
27839W        W44687   3.934   1.161   2.272  0.2573 -0.0151  0.1227
27840W        W44688   8.040  16.292   2.511 -0.4619 -0.0100  0.0630
27841W        W44689  12.862   5.750   1.101 -0.2088 -0.0679 -0.4175
27842W        W44690   7.065  11.084  12.435  0.0623  0.1276 -0.2593
27843W        W44691   5.417   6.425  14.624 -0.0557  0.0182 -0.1865
27844W        W44692  16.096   8.653  12.715 -0.0025 -0.1840  0.1516
27845W        W44693  10.167   5.215  12.003 -0.0397  0.0188 -0.1737
27846W        W44694   8.092   6.825   0.450  0.1114 -0.2247 -0.1059
27847W        W44695   0.094   2.257  12.814 -0.0003 -0.1500  0.0995
27848W        W44696   9.430  17.300   3.131 -0.1428 -0.1340  0.1540
27849W        W44697   3.513  12.462  12.966  0.0497  0.1117 -0.0832
27850W        W44698  12.760   0.528   2.133  0.1883 -0.0451 -0.4428
27851W        W44699  10.654   4.758  15.029  0.1211 -0.1050 -0.0868
27852W        W44700   5.013   5.520   4.738  0.1660  0.0709  0.1048
27853W        W44701  16.078  15.077   3.757 -0.2511 -0.0562  0.0557
27854W        W44702  14.863   9.151  12.205  0.1643  0.1321  0.0129
27855W        W44703   9.790   7.047  10.222  0.0659 -0.0963 -0.0739
27856W        W44704   5.358  10.816   1.071 -0.0669 -0.2167 -0.3801
27857W        W44705   6.172  17.282   5.366  0.0092  0.1434 -0.0454
27858W        W44706  12.953   2.535  16.005  0.3780 -0.0849  0.0019
27859W        W44707   1.592   0.223   1.537  0.3088  0.0679  0.0235
27860W        W44708  15.203  17.196  13.665  0.0590  0.2133  0.0913
27861W        W44709   9.784   7.294   0.483 -0.0084 -0.0385  0.2336
27862W        W44710   8.105  13.922  11.576  0.3188 -0.0884  0.0423
27863W        W44711   3.379   8.817  15.897 -0.1708  0.0626  0.2716
27864W        W44712   5.276  12.161  14.004  0.0559 -0.0751  0.1205
27865W        W44713   0.788  13.226   2.829 -0.0174 -0.1045 -0.2382
27866W        W44714   8.585   5.275   3.821  0.3524 -0.0228  0.2776
27867W        W44715  13.173   5.653  12.194  0.0962 -0.0893  0.1867
27868W        W44716   0.409  13.274   1.014  0.2152  0.0532  0.0682
27869W        W44717   6.524  10.688  11.264 -0.0437  0.3960  0.1084
27870W        W44718  13.279   8.964   2.608  0.1885  0.0493 -0.1800
27871W        W44719   6.334   9.053  12.190  0.0061  0.0912 -0.1285
27872W        W44720  12.792  10.477  12.618  0.0155 -0.0796 -0.0811
27873W        W44721  14.122   7.067   0.515  0.0267  0.2266  0.1070
27874W        W44722  12.160  11.118   0.398 -0.0272 -0.0236  0.1108
27875W        W44723   1.370  16.506   2.628 -0.2805  0.1598 -0.0214
27876W        W44724  10.374   3.276   2.655 -0.1476 -0.1149 -0.1105
27877W        W44725  16.412  14.386  12.921  0.3826 -0.1972  0.2328
27878W        W44726   6.668  14.779   0.514  0.0401 -0.1060  0.0617
27879W        W44727   1.209  16.354   3.499  0.1404  0.0534 -0.0016
27880W        W44728  11.432  11.866   4.256 -0.2575 -0.0838  0.2001
27881W        W44729   1.836  16.210  13.254 -0.1631  0.2051  0.0783
27882W        W44730  10.052  13.807   6.124 -0.2063  0.0500  0.0080
27883W        W44731   4.734   8.530   2.127  0.1737 -0.1104  0.2183
27884W        W44732   1.611   2.632   5.303  0.1063  0.0636  0.3445
27885W        W44733  11.913  16.891   3.998  0.1159 -0.1068  0.0319
27886W        W44734  13.451   4.583   2.280 -0.0475  0.0211 -0.2868
27887W        W44735   8.591   9.238   1.843 -0.1488  0.0148  0.2906
27888W        W44736  11.219   8.354  12.131 -0.1285  0.2068 -0.0199
27889W        W44737  15.655   5.446   0.363 -0.2214  0.3445 -0.0605
27890W        W44738  17.689  13.915   5.427  0.3164  0.1359 -0.3848
27891W        W44739  11.069   0.225   2.148 -0.2173  0.0955 -0.1368
27892W        W44740  11.358   1.094  14.892 -0.1173 -0.0877 -0.2007
27893W        W44741  14.518  12.266   5.906  0.0732 -0.0712  0.1161
27894W        W44742   0.215   7.169   4.968 -0.2383  0.3901  0.0283
27895W        W44743  14.811   4.529  12.643 -0.2607  0.1466  0.1222
27896W        W44744  14.037  17.796  16.076  0.1019 -0.2466 -0.2397
27897W        W44745   2.403  14.935   1.744 -0.0240  0.0136 -0.0871
27898W        W44746   7.225  17.758  16.134  0.2704 -0.1795 -0.2240
27899W        W44747   7.646  12.425  13.826 -0.3315  0.1492  0.0335
27900W        W44748   9.173  11.007  14.966  0.0439 -0.1101 -0.0430
27901W        W44749  10.645  17.191  10.044 -0.0681  0.1082 -0.1684
27902W        W44750  13.503   3.621  13.073 -0.0345  0.0212 -0.1186
27903W        W44751   7.521   8.612  13.005  0.1351 -0.2606 -0.0211
27904W        W44752  14.409   8.857   0.806  0.1393  0.0983  0.1279
27905W        W44753  12.263  11.652  12.475  0.1054 -0.0240  0.0021
27906W        W44754   0.998  13.597  15.717  0.0444  0.0957 -0.0858
27907W        W44755   4.887   8.207   2.881 -0.1395  0.1481 -0.0154
27908W        W44756   6.047  12.531   1.013  0.0877  0.0633 -0.1345
27909W        W44757   8.918  10.738   2.224  0.0411 -0.0560  0.2701
27910W        W44758  10.511  10.112   2.940 -0.1514 -0.2094  0.1631
27911W        W44759  13.675   0.523  13.788 -0.0516  0.0686  0.0639
27912W        W44760  14.800  14.551   4.384  0.2243 -0.1722  0.1591
27913W        W44761  10.402  14.600   0.947 -0.0890 -0.0732  0.1360
27914W        W44762   2.961   5.873  13.433 -0.2162  0.1938  0.0375
27915W        W44763   4.250   2.528   2.145 -0.0888 -0.1472  0.5457
27916W        W44764  11.313  11.779  14.139 -0.0485  0.1591 -0.0614
27917W        W44765   9.274   4.847  14.092 -0.4421 -0.0190 -0.1278
27918W        W44766   4.257  11.335   2.510  0.1458 -0.0075 -0.0453
27919W        W44767   7.994   8.175   3.012 -0.2957 -0.2893 -0.0133
27920W        W44768   0.491   9.973   3.692  0.0777  0.0644  0.2323
27921W        W44769  12.748   5.834  15.070 -0.0340  0.0095  0.2261
27922W        W44770   2.985   7.214  11.437  0.0379 -0.1976 -0.1596
27923W        W44771   3.233   9.693  16.184  0.2319  0.2359 -0.0940
27924W        W44772   9.229   9.760  13.980  0.4028 -0.1649 -0.3341
27925W        W44773   2.422   2.598   3.868 -0.0766 -0.0459  0.2788
27926W        W44774  10.432  10.800  14.653  0.2398  0.3705  0.3291
27927W        W44775  11.526   5.701   1.570 -0.2530 -0.0025 -0.1319
27928W        W44776  14.502   4.076   3.834 -0.0740 -0.1428  0.2713
27929W        W44777  17.631  13.803   3.302 -0.3558 -0.0688 -0.0086
27930W        W44778  15.200  17.187   0.723 -0.2771 -0.1000  0.4560
27931W        W44779   9.707   8.462   1.452  0.0139 -0.1783 -0.0407
27932W        W44780   7.050   1.414   6.056  0.0246  0.0428 -0.1742
27933W        W44781   8.167   8.809   3.783 -0.1654  0.1242 -0.2332
27934W        W44782  16.448  16.479   2.922  0.1009  0.1912  0.0328
27935W        W44783   7.113  14.399  14.378  0.0227  0.0540 -0.1094
27936W        W44784  14.263   1.664  11.894  0.1161 -0.0484 -0.2017
27937W        W44785  12.403   9.580   3.396  0.0099 -0.0597 -0.0151
27938W        W44786  11.403   9.084  15.479 -0.0159 -0.0861 -0.1771
27939W        W44787   7.675  13.420   3.354  0.0139  0.0571  0.2417
27940W        W44788   4.830  10.263   3.086  0.1952  0.1386 -0.2328
27941W        W44789   8.180  16.664  12.621 -0.1738 -0.2210 -0.0343
27942W        W44790   6.294  11.336   3.932  0.1531  0.1643  0.2759
27943W        W44791  17.365   6.623  14.738 -0.3175  0.3390 -0.0049
27944W        W44792   9.571   4.041  10.558 -0.0162  0.0152  0.0500
27945W        W44793  17.760  14.479   3.915 -0.0906  0.1137  0.0551
27946W        W44794   8.211  14.521  13.505  0.0833 -0.1351 -0.0272
27947W        W44795   4.357  17.577   2.180  0.1618 -0.0769 -0.1143
27948W        W44796  11.771  12.769   1.654 -0.2998  0.0586 -0.0341
27949W        W44797   4.013  12.364  12.062  0.2770 -0.0848 -0.0593
27950W        W44798   2.135  13.634   2.484 -0.1706 -0.1116  0.1248
27951W        W44799  13.167  15.192  15.687  0.1871  0.1389  0.0241
27952W        W44800   8.211   2.237  13.809  0.0192  0.0366 -0.0742
27953W        W44801  17.104  17.388  12.725 -0.5547 -0.0459 -0.2170
27954W        W44802  11.828   3.759  11.636 -0.0943  0.0834  0.2261
27955W        W44803   0.842  10.247  12.676 -0.0922  0.5182 -0.2730
27956W        W44804   6.698  16.989  15.918 -0.0545 -0.0282  0.1001
27957W        W44805   3.962  14.262  15.619  0.0649 -0.0754 -0.2000
27958W        W44806   1.215  14.677   5.785 -0.0961  0.2362 -0.0252
27959W        W44807   2.141   2.095   5.584 -0.0720 -0.3038 -0.2705
27960W        W44808  16.995  12.275  14.359 -0.1131 -0.1130  0.3133
27961W        W44809  12.631  17.284  14.662 -0.1113 -0.2044  0.1452
27962W        W44810   2.906  17.801  14.578  0.2082 -0.3992 -0.1310
27963W        W44811   3.947   4.341  15.828 -0.1332  0.0387  0.0910
27964W        W44812   5.640  15.285   2.036  0.0933 -0.1587 -0.0555
27965W        W44813   3.879  17.614   4.544 -0.3725 -0.2060 -0.3282
27966W        W44814   8.013  16.112   4.169  0.0234 -0.1405  0.0201
27967W        W44815  10.428  14.172  15.493  0.0799  0.2585 -0.0068
27968W        W44816   6.339  13.245  14.889  0.0008  0.0176 -0.0596
27969W        W44817  17.342  14.037  13.292  0.0566 -0.1250  0.0053
27970W        W44818   5.515  11.873   1.381  0.1676  0.3291  0.1354
27971W        W44819  15.741   8.753  13.990 -0.2770 -0.3904 -0.1394
27972W        W44820  14.966   1.181  12.999  0.1577  0.2129  0.1055
27973W        W44821   1.936   1.483  15.666 -0.0950 -0.0719  0.2118
27974W        W44822  10.559   9.429  12.163  0.1453  0.1752  0.0406
27975W        W44823  14.207   0.570  13.762 -0.1523  0.1698  0.0472
27976W        W44824  10.741   5.337   2.383  0.0365  0.1871  0.2207
27977W        W44825   1.734  10.108  15.299  0.0432  0.2638  0.2068
27978W        W44826   6.491   0.817  12.504  0.1869 -0.0928  0.0765
27979W        W44827   6.700  17.056  13.810  0.3320  0.3055 -0.0753
27980W        W44828  10.894   8.506   2.533 -0.0113  0.0459  0.0026
27981W        W44829   0.792   3.149   2.077  0.0962  0.2477 -0.1987
27982W        W44830  15.478   4.691   3.034  0.1508 -0.2518  0.3539
27983W        W44831   0.580  13.970   3.229 -0.0901 -0.0727  0.1945
27984W        W44832  11.881   8.981  12.431 -0.0729 -0.0374 -0.1054
27985W        W44833   3.060  14.051   5.620  0.3820  0.0611 -0.4072
27986W        W44834   8.281  17.054  12.957 -0.2332  0.0616 -0.1935
27987W        W44835   9.336   2.520   3.201 -0.4354  0.1864  0.1767
27988W        W44836  13.139  15.891  12.922 -0.3274  0.2455  0.4112
27989W        W44837  14.977   4.028  13.218  0.0533 -0.0233 -0.0232
27990W        W44838   9.619   4.154  16.216 -0.0889 -0.2561 -0.0251
27991W        W44839   0.785  12.485  13.672 -0.0568  0.1016 -0.0524
27992W        W44840   3.135  14.927  11.923 -0.2322  0.0035  0.1024
27993W        W44841   9.565   0.747  15.678  0.1327 -0.0638 -0.0708
27994W        W44842   3.963   4.758  16.274 -0.0877  0.0538  0.0119
27995W        W44843   1.298   0.739  15.201 -0.0351  0.0493  0.1683
27996W        W44844  12.502   7.769   3.694 -0.1321 -0.1453 -0.1546
27997W        W44845  11.786  14.911   3.985 -0.0452  0.1905 -0.1041
27998W        W44846  11.560  11.082  12.752  0.0142 -0.2248 -0.0109
27999W        W44847  16.564   0.065  14.457  0.0788 -0.1812  0.1214
28000W        W44848   4.938  12.781   2.303  0.1006 -0.1578  0.1432
28001W        W44849  11.735   8.241   1.464  0.0043  0.0425 -0.3867
28002W        W44850   6.874   4.093   1.066 -0.3586 -0.0837 -0.0133
28003W        W44851  17.850  16.464  15.129 -0.0066 -0.2661 -0.0480
28004W        W44852   7.747  16.312  12.864 -0.0260  0.1965 -0.0585
28005W        W44853   6.983   0.374  13.330  0.1643  0.1183 -0.0795
28006W        W44854   2.685   9.233   3.287 -0.2009 -0.2098  0.0684
28007W        W44855  11.595  11.015   2.250  0.0736  0.2110  0.0477
28008W        W44856   2.639  13.681   2.729  0.2186  0.0931 -0.0831
28009W        W44857  15.184   3.351  14.168 -0.1849 -0.3638 -0.0842
28010W        W44858   9.396   9.754   2.106  0.0848 -0.0593  0.0638
28011W        W44859   6.769  13.301   0.900  0.1601  0.1981  0.0035
28012W        W44860   4.105  17.167  15.905 -0.1966  0.3766  0.1414
28013W        W44861  10.850  12.023   4.410  0.0849  0.0234 -0.1281
28014W        W44862   2.142  14.273   3.300 -0.0642  0.0467 -0.0433
28015W        W44863  12.934  10.166  15.349 -0.4302  0.1955  0.3978
28016W        W44864   4.835  16.233   1.081 -0.1240 -0.1556 -0.1234
28017W        W44865   6.990   1.442  12.334  0.1753  0.0692  0.0989
28018W        W44866   3.162  17.532  14.979 -0.1488  0.0649 -0.1629
28019W        W44867   9.601   6.653   5.221 -0.0464 -0.1269 -0.3739
28020W        W44868   1.700   2.243  11.614  0.1931 -0.1669  0.2088
28021W        W44869   4.676   8.436  11.429  0.3761  0.2001 -0.2653
28022W        W44870   1.771   4.473   3.638  0.0953 -0.1317  0.3240
28023W        W44871  15.185   0.506  15.502  0.1296 -0.2053 -0.1714
28024W        W44872   8.631   8.590   1.192 -0.1094 -0.0062 -0.0885
28025W        W44873  15.760  13.775   3.155 -0.2080  0.0506  0.0078
28026W        W44874   6.464   4.599  12.152 -0.1603 -0.3073 -0.1428
28027W        W44875   6.364   5.754   3.185 -0.1526 -0.0230 -0.2205
28028W        W44876  13.928   7.497  12.605 -0.0748 -0.0379  0.1961
28029W        W44877   4.224  13.473  14.069 -0.0153  0.0692 -0.2857
28030W        W44878   2.134   5.479  14.503 -0.2597  0.1372 -0.1700
28031W        W44879   2.346   8.198   1.955  0.1195  0.0473 -0.0189
28032W        W44880  10.023   4.724  15.713  0.2342 -0.0174  0.0657
28033W        W44881  14.820  10.779  16.235  0.2813 -0.0157 -0.0137
28034W        W44882  16.797   1.362   0.278 -0.0644  0.1113  0.3165
28035W        W44883  16.941   2.512   2.140 -0.2805  0.0397  0.2000
28036W        W44884   3.073   9.335   4.111 -0.2595 -0.6196 -0.0683
28037W        W44885  14.638  17.518   4.848  0.4171  0.0992 -0.1861
28038W        W44886  12.374   8.738   2.454 -0.0273 -0.0066 -0.4943
28039W        W44887   3.565   8.458   3.753  0.1990 -0.2239  0.1031
28040W        W44888   6.586  10.316  16.039  0.0454  0.2572  0.0460
28041W        W44889  17.470   8.711  10.398 -0.2031  0.2817  0.2872
28042W        W44890  15.789   9.866   3.839 -0.1242 -0.1846 -0.3637
28043W        W44891   1.450  15.263  15.066 -0.0458 -0.2145  0.0935
28044W        W44892   1.550  13.894  14.936 -0.1311  0.1256  0.2169
28045W        W44893   2.649   5.216   0.065  0.2607  0.2146 -0.1602
28046W        W44894   6.685   7.843   5.109  0.0541 -0.0780  0.0996
28047W        W44895  13.306   1.972   1.237 -0.1219  0.0663  0.4130
28048W        W44896   4.164   0.450   2.824  0.2313  0.5024  0.2467
28049W        W44897   2.829  17.101  14.869  0.0245 -0.3955  0.3153
28050W        W44898   9.398  16.573  11.892  0.0638 -0.1105 -0.2192
28051W        W44899   7.502   7.349  13.272 -0.1337  0.1702  0.0028
28052W        W44900   8.324  13.937   1.740  0.1355 -0.1836 -0.0124
28053W        W44901  10.310   1.317   3.221  0.1894  0.0173 -0.0630
28054W        W44902   5.104   7.202   5.034 -0.1096  0.3321  0.2322
28055W        W44903  15.092  14.189   1.460 -0.0128 -0.0131  0.0518
28056W        W44904   0.980  12.488   0.322  0.2220  0.1699  0.4084
28057W        W44905   1.020   2.193   4.977  0.1572  0.2130  0.1060
28058W        W44906   2.698   0.696  16.002 -0.3036 -0.1887  0.2154
28059W        W44907  10.599   7.516   2.716  0.1657 -0.2641  0.0881
28060W        W44908  14.531   0.352  13.441  0.0142  0.0534  0.0601
28061W        W44909   9.987   0.776  13.103 -0.0574 -0.1547  0.2042
28062W        W44910  11.266   7.414   1.181  0.0826 -0.0822 -0.1072
28063W        W44911  15.077  14.434   0.817 -0.1745  0.0544 -0.2345
28064W        W44912   4.486   7.630   2.025 -0.3465  0.1044  0.1596
28065W        W44913   6.580   2.794   1.939 -0.1114  0.0095 -0.2629
28066W        W44914   1.337   6.526  16.280 -0.3425 -0.1482 -0.0138
28067W        W44915   8.802  12.763  14.125 -0.1832  0.0477  0.0495
28068W        W44916  12.778   4.496  14.133  0.0216  0.1271  0.2371
28069W        W44917  17.607  12.397  16.108  0.3301  0.0733 -0.0758
28070W        W44918  15.906   1.350  13.196  0.1196  0.2181 -0.0174
28071W        W44919   7.017  16.742  14.124 -0.2657  0.0926  0.0252
28072W        W44920  17.466   9.037   4.700  0.2465  0.0498  0.0022
28073W        W44921  12.445   4.484  14.963 -0.1093 -0.1516 -0.0960
28074W        W44922   5.504  17.741   5.339  0.0320  0.0746 -0.2766
28075W        W44923  13.975   8.754  14.154 -0.1132 -0.0969  0.0656
28076W        W44924   2.091  11.084   0.693  0.3220 -0.3483 -0.0984
28077W        W44925  17.590  16.223  13.260  0.2279 -0.4702  0.0101
28078W        W44926  13.283  13.493  16.299 -0.0385  0.4159 -0.0666
28079W        W44927  10.602   9.627   0.824  0.0815  0.0260  0.0620
28080W        W44928   5.816  12.946  14.810 -0.3459 -0.4058 -0.0105
28081W        W44929  14.845  16.363  13.068 -0.0841 -0.2240 -0.0556
28082W        W44930   3.772   5.873   1.593  0.2066  0.0861 -0.0075
28083W        W44931   9.062  12.359   3.782 -0.1345  0.2280  0.2807
28084W        W44932  14.564  11.078   4.618 -0.2371 -0.2291 -0.1409
28085W        W44933  10.281   9.123   0.915  0.1249  0.3200  0.2539
28086W        W44934  15.669   6.029  13.649  0.1206 -0.0390 -0.0374
28087W        W44935   9.999   6.732   2.951 -0.1281  0.0399 -0.1122
28088W        W44936   7.114  10.359  14.046 -0.0841 -0.1955 -0.0008
28089W        W44937   1.966  13.682   0.627 -0.2955 -0.2101 -0.0882
28090W        W44938   5.525   4.920  13.591  0.2915  0.0419 -0.1532
28091W        W44939  16.799   1.624   4.919 -0.2205  0.2671 -0.4034
28092W        W44940  15.173  17.227   1.307 -0.1305  0.0285 -0.0019
28093W        W44941  13.736   5.972  15.866  0.0495 -0.0438  0.0708
28094W        W44942   4.298  16.357  12.813 -0.2136 -0.0932 -0.0203
28095W        W44943   0.420  12.154   2.622  0.1212  0.0856  0.2230
28096W        W44944  12.048   4.564   1.313 -0.1107  0.0896 -0.0192
28097W        W44945  14.514   7.197  15.036  0.1378  0.3108  0.1621
28098W        W44946   3.320   0.646   4.845  0.0720 -0.1198  0.0846
28099W        W44947   5.326   3.928   4.775 -0.0407 -0.0860 -0.1832
28100W        W44948  17.208  11.951   1.240 -0.1983  0.2166  0.0464
28101W        W44949   7.761   1.336   0.550  0.0393  0.0261  0.4163
28102W        W44950   7.649   1.724  14.159  0.0468  0.0995 -0.1666
28103W        W44951   7.906  11.198  14.609 -0.0486 -0.2765  0.0659
28104W        W44952  10.912  12.987  11.339 -0.0715  0.2184 -0.0529
28105W        W44953   2.448   7.061  11.340  0.1324  0.4448 -0.4260
28106W        W44954   3.415   1.254   0.883 -0.1271  0.0191 -0.0868
28107W        W44955   3.451   9.508  14.736  0.1190  0.1070  0.0970
28108W        W44956  14.419   5.765   3.988  0.0820  0.2265  0.1735
28109W        W44957   5.719  12.034   1.875  0.1347  0.1358  0.0457
28110W        W44958   9.688  13.556   2.188  0.4199 -0.0667 -0.0724
28111W        W44959  11.538   7.750   0.887 -0.1737  0.1499 -0.0425
28112W        W44960   7.756  11.769   5.368 -0.2039 -0.1479  0.0808
28113W        W44961  15.363  15.531  15.815  0.5249 -0.2860 -0.1130
28114W        W44962  16.731  15.617   1.355  0.0844 -0.1534 -0.1813
28115W        W44963  10.242  10.787   4.219  0.0295 -0.0066 -0.0733
28116W        W44964  12.784   0.796   0.105  0.4364  0.1609 -0.4281
28117W        W44965   1.311   6.197  12.058  0.0601 -0.1907  0.1451
28118W        W44966   4.188   2.358  16.072  0.0126  0.1584 -0.0246
28119W        W44967   9.305  13.942   1.138 -0.1521 -0.1538 -0.0277
28120W        W44968   0.793   9.934  13.228 -0.1325 -0.0432  0.0440
28121W        W44969  12.675   3.069   3.445 -0.1094  0.0646  0.2114
28122W        W44970   1.791  16.882  13.211 -0.2242  0.3193  0.0176
28123W        W44971   4.300  16.565  10.614 -0.1637  0.5480  0.1170
28124W        W44972  16.906   6.114   2.001  0.7339 -0.0982 -0.0008
28125W        W44973   7.115   9.677   4.350 -0.0365 -0.0460 -0.0826
28126W        W44974   2.838  12.302   0.511  0.0717  0.1023 -0.0827
28127W        W44975  16.410   7.305   1.655 -0.1446  0.1332 -0.0187
28128W        W44976  10.288  10.023   0.697  0.1728  0.1272 -0.0034
28129W        W44977   9.980   8.339   4.910 -0.0845 -0.1079  0.0150
28130W        W44978   2.625   1.255   3.532  0.0617 -0.0366 -0.1625
28131W        W44979  10.631  16.773   2.714  0.0616 -0.0384 -0.2781
28132W        W44980  14.711  16.544  15.032  0.0121 -0.1727 -0.1966
28133W        W44981   4.541   0.752  13.502  0.2980  0.2839  0.3178
28134W        W44982  14.053   7.547  14.485 -0.0400  0.1813 -0.0429
28135W        W44983   9.205  14.656  15.888  0.2132  0.0384 -0.1890
28136W        W44984  17.339  16.795   1.248  0.0388  0.1228 -0.0452
28137W        W44985  11.596   8.009   1.995 -0.2851 -0.4733 -0.3101
28138W        W44986  15.029  12.420   4.710 -0.0377  0.0913  0.2366
28139W        W44987   0.951   1.296  16.429 -0.3855 -0.2052 -0.1954
28140W        W44988   2.470   9.833   3.170  0.0420 -0.0236  0.2344
28141W        W44989   0.278   3.964   2.210 -0.1213  0.3867 -0.0176
28142W        W44990   9.965  15.808  14.538 -0.4046  0.3341 -0.2396
28143W        W44991  15.292   1.393  11.279 -0.2954  0.0458  0.2008
28144W        W44992  12.315   9.458  11.827 -0.2901  0.2305 -0.1666
28145W        W44993   5.016  13.385  14.835  0.0775  0.1647 -0.1641
28146W        W44994  14.571  11.846   2.006  0.1480 -0.2158 -0.0013
28147W        W44995   0.128  14.325   1.236 -0.0366 -0.0770  0.1040
28148W        W44996   7.034   8.372   0.987  0.2483  0.0617  0.1429
28149W        W44997   7.690  11.969  11.713 -0.0386 -0.1738  0.1005
28150W        W44998   4.564  11.679  13.603 -0.1448 -0.0988 -0.0655
28151W        W44999  11.803   0.316  15.735 -0.3449 -0.0823 -0.0504
28152W        W45000   6.377  12.688   2.756 -0.1353  0.0534 -0.0234
28153W        W45001   2.111  13.492  11.819  0.0241 -0.1330  0.1533
28154W        W45002   9.423  13.585   2.732  0.0185  0.1535 -0.0993
28155W        W45003   1.320  10.390   3.558  0.0154 -0.0226 -0.2961
28156W        W45004  10.641   2.734   4.509  0.0727 -0.0610 -0.1160
28157W        W45005  13.245   6.403   2.429  0.0892 -0.2384 -0.2517
28158W        W45006   9.889  15.118  15.807  0.0160  0.0850  0.1161
28159W        W45007  10.592   3.257  15.840 -0.2084 -0.1129 -0.0465
28160W        W45008  13.472   9.026   1.469  0.0951 -0.0126 -0.1941
28161W        W45009   1.620   6.848   4.311 -0.0500  0.1700 -0.0390
28162W        W45010   7.289  15.964   1.218 -0.1242  0.1197 -0.0382
28163W        W45011  15.709  10.773   0.487 -0.0602  0.2430 -0.0273
28164W        W45012   2.183  14.525  12.339 -0.0095  0.0561 -0.0412
28165W        W45013  13.460  13.538   1.168  0.0173  0.0005 -0.1877
28166W        W45014   2.941  17.634   0.749 -0.0049  0.1329  0.0130
28167W        W45015  10.340  11.964   4.487  0.3158  0.1100  0.2298
28168W        W45016   5.483  17.704  13.658  0.1917 -0.5031  0.2904
28169W        W45017   2.271  16.383  15.418  0.4493  0.0164 -0.2429
28170W        W45018  11.189  11.338  16.391 -0.0162 -0.0325 -0.1669
28171W        W45019   1.201   9.120  15.709  0.0171  0.0531 -0.1652
28172W        W45020   2.225   1.067  11.661 -0.0489 -0.0678 -0.0121
28173W        W45021  11.209   1.958  12.331 -0.0866  0.0415 -0.1918
28174W        W45022   9.161   4.877   3.545  0.0193 -0.2414 -0.2594
28175W        W45023  17.431   6.828   3.983  0.1262  0.0951  0.0769
28176W        W45024   7.949   3.696  12.807  0.1034  0.2458 -0.0703
28177W        W45025  17.320   3.286   4.446 -0.1444  0.1451  0.2428
28178W        W45026  12.910  17.801   4.221  0.0682 -0.0371 -0.0531
28179W        W45027  14.659   7.838   2.355 -0.1024 -0.0342  0.3431
28180W        W45028  12.057  10.919  11.619 -0.0539  0.0411  0.2438
28181W        W45029   6.002  14.704   6.201  0.2417 -0.0166 -0.2779
28182W        W45030   7.276  14.526  13.950  0.0924 -0.0575  0.1710
28183W        W45031  12.524   5.187  14.301 -0.0482  0.0971  0.3854
28184W        W45032   4.176  10.793   0.276  0.2617 -0.1962  0.0881
28185W        W45033  11.396  11.504  15.947 -0.0092  0.0026 -0.2428
28186W        W45034  16.413   5.208   1.315 -0.0596  0.2466  0.1729
28187W        W45035   3.531  14.078   5.556  0.0981  0.0803 -0.2261
28188W        W45036  10.862   6.378   3.975  0.2527  0.2727  0.0554
28189W        W45037  10.099   0.860   0.257 -0.4239  0.0289 -0.2475
28190W        W45038  17.120   6.927  15.407  0.3242  0.0262 -0.3807
28191W        W45039   5.688  12.174  12.150 -0.0572  0.0584 -0.0192
28192W        W45040  11.748   7.279   1.155 -0.2785 -0.1958  0.1650
28193W        W45041   2.933  12.361  13.967 -0.0948 -0.2180 -0.0680
28194W        W45042   6.352  17.394   1.662 -0.0838  0.2377 -0.1573
28195W        W45043  13.872   3.808   1.044  0.1616  0.0852  0.0949
28196W        W45044   8.573  17.546  15.069  0.1680 -0.0440 -0.2426
28197W        W45045  14.364   8.995  12.350 -0.1132  0.1701 -0.0411
28198W        W45046  16.434  12.284   4.652  0.0931  0.1871  0.2576
28199W        W45047   3.040   3.789  12.071 -0.3881 -0.2359  0.3515
28200W        W45048  17.414  11.278  12.567 -0.2312  0.0478 -0.0526
28201W        W45049  14.562   6.280   3.970 -0.0358 -0.1186  0.0340
28202W        W45050   9.726  11.723   5.635  0.2393 -0.0463  0.0845
28203W        W45051  17.769   8.716   0.337  0.2332  0.0279 -0.1512
28204W        W45052  12.454  14.369   1.314 -0.0683 -0.0623 -0.3025
28205W        W45053   5.378   2.316  14.662  0.0095 -0.0437  0.2243
28206W        W45054  12.813  16.169   3.894  0.0093 -0.1369 -0.3488
28207W        W45055   5.152  16.448  15.488 -0.0679 -0.0814  0.1706
28208W        W45056  13.619   0.977   2.357 -0.0688  0.0921  0.1592
28209W        W45057  17.403  11.157  15.702 -0.1538  0.1188 -0.2371
28210W        W45058  16.572  15.630  14.419 -0.1166 -0.1853 -0.2832
28211W        W45059   7.134  14.448   5.695  0.3436 -0.2367  0.3298
28212W        W45060   1.557   3.131   3.708  0.0679 -0.0063 -0.1249
28213W        W45061   5.435   6.858   3.733 -0.1119 -0.0938 -0.2525
28214W        W45062  12.368   6.123  13.270  0.2459 -0.0663 -0.1302
28215W        W45063   1.409  12.490  11.972  0.0223  0.1404 -0.0701
28216W        W45064   2.608  10.897   0.411  0.0193  0.0295 -0.2720
28217W        W45065  17.100  10.109   5.132  0.1426  0.1018  0.2124
28218W        W45066  13.672   2.373   3.696  0.0934 -0.1432 -0.0174
28219W        W45067   1.232  14.625  14.369  0.1436  0.1659  0.1538
28220W        W45068  17.105   6.357   1.472  0.1002  0.0491  0.1456
28221W        W45069  12.982   1.443  14.956  0.0399 -0.3590 -0.0221
28222W        W45070   7.205   6.275   2.355  0.0842  0.1550  0.0879
28223W        W45071   3.680  13.904  13.392 -0.3105 -0.1278 -0.2610
28224W        W45072  15.245  13.721   4.688 -0.3279 -0.0537  0.0994
28225W        W45073  15.472   4.080  13.478 -0.0240 -0.0729 -0.1383
28226W        W45074   9.914  16.140  12.911 -0.1467  0.0128 -0.2039
28227W        W45075   4.043   5.068   4.003 -0.1418 -0.0966 -0.0073
28228W        W45076  16.012   3.831   0.045 -0.2995 -0.1327  0.2006
28229W        W45077  11.494   0.356   0.310  0.3275  0.3313  0.1990
28230W        W45078   4.781  12.124   1.787  0.2016  0.0075 -0.0018
28231W        W45079  11.480  12.705   4.139 -0.0592  0.1126  0.2291
28232W        W45080  17.451   7.138   0.445 -0.0482  0.0135 -0.0036
28233W        W45081   1.868   5.632  15.231 -0.0013  0.2386  0.0262
28234W        W45082  10.727  17.561   0.396  0.2317 -0.4601 -0.2340
28235W        W45083   4.992   1.113   1.199  0.0896  0.0221  0.2285
28236W        W45084  14.209  10.256  11.938 -0.1832  0.0548 -0.5830
28237W        W45085  12.087   4.299   5.009 -0.0564 -0.1201 -0.1655
28238W        W45086  16.728   5.688   3.981 -0.3250 -0.3560  0.0149
28239W        W45087   5.488   6.312   3.727  0.0416  0.2896  0.2566
28240W        W45088  15.702  16.032  11.811  0.2367 -0.2087 -0.3025
28241W        W45089  11.586  12.632   3.006  0.0552 -0.2688  0.0495
28242W        W45090   1.002   2.904   0.633  0.3920 -0.0482  0.0322
28243W        W45091  16.410  12.636   3.262  0.2809  0.2124  0.0802
28244W        W45092   7.540  14.544   3.310  0.3806 -0.1945 -0.4554
28245W        W45093  15.518   5.339  12.804 -0.1722 -0.1079  0.1408
28246W        W45094  17.561   2.630  14.818 -0.1204 -0.1929 -0.0237
28247W        W45095   3.258  13.572  14.203 -0.0699 -0.1196  0.1378
28248W        W45096   8.625   1.370  12.380  0.2777  0.1334 -0.5255
28249W        W45097   1.451   3.676  14.512  0.0074  0.2806 -0.1032
28250W        W45098  15.932   9.535   4.172 -0.1151  0.3122 -0.0074
28251W        W45099   6.843  17.311  14.762 -0.0049  0.0572  0.1932
28252W        W45100  13.603  13.853   3.355 -0.0141  0.1201 -0.1142
28253W        W45101   7.200  10.986   0.879 -0.0695  0.0948  0.0472
28254W        W45102  10.389   9.260  13.071 -0.1408 -0.1824  0.2603
28255W        W45103   4.033   3.308   3.754 -0.1213 -0.1244 -0.0692
28256W        W45104  10.660   5.823   2.432 -0.0015 -0.0455  0.0516
28257W        W45105   5.160   8.928   4.414  0.1772 -0.0592  0.0250
28258W        W45106   1.828   7.683   5.150 -0.2074 -0.3270  0.1321
28259W        W45107   5.473  11.080  11.689 -0.0933  0.0284 -0.0589
28260W        W45108  12.372  12.799  11.792 -0.0894 -0.0393  0.0885
28261W        W45109   9.341  10.332  11.788  0.0775 -0.0661  0.0330
28262W        W45110   4.492   3.985  15.954  0.0020  0.2258 -0.0837
28263W        W45111   0.188  12.034   3.924  0.0986 -0.2185  0.3014
28264W        W45112  13.459  11.040  14.898  0.1262 -0.3063 -0.1323
28265W        W45113  16.537  14.033  12.197  0.0077  0.2028 -0.2326
28266W        W45114  15.080  11.302  15.279 -0.0314 -0.0448 -0.0736
28267W        W45115  16.765  13.894   0.841 -0.1363 -0.0795 -0.1273
28268W        W45116   4.314   0.304  12.318  0.0779 -0.1467  0.0596
28269W        W45117   5.242   3.490   3.193  0.0817  0.1851 -0.0363
28270W        W45118  11.101   9.493   0.768  0.0882  0.0898 -0.2933
28271W        W45119   4.269   7.045   5.334  0.0647  0.1728 -0.3289
28272W        W45120  16.793   8.286   1.121 -0.0937 -0.1335  0.4396
28273W        W45121  17.239   5.403   2.833 -0.2032 -0.3371 -0.1735
28274W        W45122  17.415  13.226   4.069  0.0370 -0.0492 -0.0395
28275W        W45123   5.952  16.272   2.925 -0.0718 -0.1893 -0.0367
28276W        W45124  14.391   6.901   3.350  0.1439 -0.2236  0.2541
28277W        W45125  11.373   1.288   4.265  0.0843 -0.0949 -0.0406
28278W        W45126   8.104   7.566   2.134 -0.0263 -0.1562 -0.1944
28279W        W45127   0.712   2.064   3.176  0.1621 -0.1054 -0.1110
28280W        W45128  12.489   0.072   4.986  0.0688 -0.0721  0.2975
28281W        W45129  15.860  12.094  14.903  0.1827  0.3446  0.1280
28282W        W45130  12.290  12.852   4.833  0.1712  0.0356  0.0469
28283W        W45131   6.987  17.482  15.708  0.0649  0.0461 -0.1220
28284W        W45132  10.537   1.745   5.056 -0.0161 -0.0118  0.1791
28285W        W45133   9.502  10.659   5.918 -0.3402  0.0256  0.2515
28286W        W45134   1.979   5.024  14.643  0.1803 -0.0498  0.4064
28287W        W45135  17.082   9.462  13.480  0.0453 -0.0076 -0.1420
28288W        W45136  14.098   2.865  11.505  0.2927 -0.1109  0.0594
28289W        W45137   1.262   3.404   0.708  0.1165 -0.1397 -0.2657
28290W        W45138  10.508  15.083  13.474 -0.0801 -0.0919 -0.0385
28291W        W45139   1.121  11.642   4.848  0.0849 -0.1508  0.0201
28292W        W45140  16.531   6.967   5.085 -0.0660 -0.1827  0.1628
28293W        W45141   9.648   5.914  12.475 -0.2809 -0.0862 -0.1229
28294W        W45142   5.052  13.856  12.550  0.0866 -0.1424 -0.3377
28295W        W45143   8.457  17.664   1.161 -0.0956 -0.0213 -0.2310
28296W        W45144   1.779   5.356   1.440  0.0133 -0.0949 -0.0186
28297W        W45145   2.555  11.235  10.650 -0.2809  0.0034 -0.0505
28298W        W45146   4.485  10.581  10.976 -0.2198 -0.0708 -0.0634
28299W        W45147   3.724   7.030   0.071  0.0752 -0.0948 -0.0999
28300W        W45148  10.293   3.378  11.700 -0.2207  0.0433  0.0930
28301W        W45149  10.101  14.771   4.249  0.1417 -0.0286 -0.0971
28302W        W45150   9.379  10.157   0.760 -0.0174  0.0260 -0.1172
28303W        W45151   4.495  14.906   1.341 -0.0786  0.1995  0.3188
28304W        W45152  14.247  16.977  13.536 -0.0292  0.1181 -0.1051
28305W        W45153   9.017   3.377   4.948 -0.0206  0.0243  0.0060
28306W        W45154  15.859   4.295   2.468  0.1090 -0.1776  0.1613
28307W        W45155   3.285   1.053   4.531  0.1803  0.1024 -0.0881
28308W        W45156   0.918   1.733   5.191  0.0262  0.1182 -0.0648
28309W        W45157   5.048   1.267  12.303 -0.0177  0.2510 -0.0056
28310W        W45158  17.700   4.454   3.939 -0.0351  0.1010  0.1144
28311W        W45159   9.116  13.239   3.030  0.0837  0.3684  0.0310
28312W        W45160   3.794   1.525   5.052 -0.1093 -0.0491 -0.1725
28313W        W45161  16.570   9.058   2.870 -0.3724  0.0012 -0.0291
28314W        W45162  15.286   3.541   2.228  0.0875 -0.0907 -0.1507
28315W        W45163  17.075   0.788   0.755  0.0789 -0.1820 -0.0037
28316W        W45164  12.972   3.142   2.104 -0.0196  0.0046  0.0774
28317W        W45165   1.094   9.961   1.923  0.2633  0.1272 -0.1027
28318W        W45166  11.473   6.684  16.136 -0.0967  0.3759 -0.1476
28319W        W45167   2.068  11.209  11.316 -0.0444 -0.1501  0.0419
28320W        W45168  13.781   3.660  13.700 -0.1225  0.0549  0.0097
28321W        W45169  16.821  12.908   2.982 -0.0213  0.3032 -0.3910
28322W        W45170   7.502  15.068   3.256  0.0232  0.2484  0.0696
28323W        W45171   6.239  13.595  16.419  0.1015  0.0134 -0.1370
28324W        W45172  12.496  10.913  12.470 -0.0884  0.0787  0.1507
28325W        W45173  15.996  15.663  16.274 -0.0188 -0.2612  0.4771
28326W        W45174   4.150   8.997   0.371 -0.1354 -0.2197  0.1871
28327W        W45175  15.501   1.163   4.720  0.3658 -0.0498 -0.0012
28328W        W45176   7.083   4.271   3.386  0.1326  0.1283  0.1532
28329W        W45177   8.013   3.342  15.264  0.1506 -0.0109 -0.0480
28330W        W45178  14.718   1.421  15.316  0.1043  0.0415  0.3559
28331W        W45179  12.628   9.324   1.725  0.2157  0.0035  0.0326
28332W        W45180  12.200  12.389   4.747  0.3268  0.0121  0.2311
28333W        W45181  11.574  15.684   3.506  0.1768 -0.2246  0.2323
28334W        W45182  12.273  10.644   4.147 -0.1640  0.3265 -0.0166
28335W        W45183   5.376  13.035  15.001 -0.2135 -0.1330  0.3370
28336W        W45184  15.266  16.142  14.336 -0.1930  0.4897  0.1448
28337W        W45185   4.075  16.220   3.816  0.2231 -0.1508 -0.0929
28338W        W45186   7.431   6.675   5.785 -0.2027  0.0038  0.1138
28339W        W45187   7.903  10.316  13.081 -0.0266 -0.0906 -0.1784
28340W        W45188   4.877  10.612   4.318 -0.0137  0.1309 -0.3057
28341W        W45189   7.465  15.829   1.987 -0.1009 -0.3467  0.1292
28342W        W45190   5.154  17.623   2.453  0.1865 -0.2146 -0.0658
28343W        W45191  11.099  17.081  12.212  0.2218  0.1161  0.1052
28344W        W45192  17.456  10.982   3.406  0.0959  0.2433 -0.0110
28345W        W45193   8.981   9.648   2.359  0.0302 -0.0301  0.0678
28346W        W45194   1.744   8.150   5.072 -0.0752 -0.3277  0.1305
28347W        W45195   9.776   9.752   2.441 -0.1810  0.3269  0.0376
28348W        W45196   4.086   2.712  15.109 -0.0484  0.5317 -0.0657
28349W        W45197   5.867  14.309   0.606 -0.2443  0.0478  0.2381
28350W        W45198  12.089  14.863   1.099  0.0515  0.0389  0.2835
28351W        W45199   3.875   1.482   0.508 -0.2253 -0.0741  0.0752
28352W        W45200   2.571   1.881   0.672 -0.0437  0.3745  0.0338
28353W        W45201  12.194   4.243   5.544  0.0042 -0.0210  0.1259
28354W        W45202  17.506   1.252  15.157  0.0288 -0.1959 -0.0221
28355W        W45203   2.743  14.947  15.943  0.2036 -0.0500 -0.1007
28356W        W45204   1.195   3.095   4.706  0.1432 -0.1184  0.2188
28357W        W45205   5.964   9.190   1.687  0.1333  0.2382 -0.0970
28358W        W45206   3.205   8.107  12.715  0.2779 -0.0976  0.0693
28359W        W45207  10.773   2.989  15.342 -0.2198  0.2164 -0.1277
28360W        W45208   6.080   8.694  13.461  0.2146  0.0888  0.2282
28361W        W45209   7.709  12.579  15.295  0.0862  0.2111  0.1482
28362W        W45210   2.366   8.122  16.314  0.2909 -0.0405  0.0103
28363W        W45211   8.959   1.792  14.357 -0.2045 -0.2572 -0.0124
28364W        W45212  17.187   8.135  12.132 -0.1303  0.0141  0.2461
28365W        W45213  11.690  13.825   3.660 -0.0625  0.1227  0.1504
28366W        W45214   8.026  15.038   2.013 -0.0101 -0.1382  0.2589
28367W        W45215   4.628  10.981  15.082 -0.1511 -0.0720 -0.1255
28368W        W45216  11.701  10.288   3.404 -0.0222 -0.0098  0.0035
28369W        W45217  17.678   7.283  15.247 -0.0362  0.4144 -0.0330
28370W        W45218   0.646   9.020   5.028 -0.0722  0.0053  0.0059
28371W        W45219  17.838   5.406   4.313  0.1406  0.2389 -0.2736
28372W        W45220  13.688  15.544   5.069 -0.0120 -0.4160 -0.0472
28373W        W45221  11.156   0.026   5.249  0.0059  0.1552  0.0698
28374W        W45222  11.944  15.073  12.795  0.1768 -0.0173 -0.0251
28375W        W45223  17.772  17.578   4.438 -0.3992 -0.2835  0.0692
28376W        W45224   7.249   8.148  11.809  0.0033 -0.0612 -0.0348
28377W        W45225  14.538   4.227  12.370  0.0285  0.0883 -0.2225
28378W        W45226  15.495  15.517  11.865  0.1044 -0.0671 -0.1668
28379W        W45227   9.164  15.350  13.972  0.2359  0.1168  0.0598
28380W        W45228   0.750   0.547   4.412  0.1575 -0.3512  0.0734
28381W        W45229   3.104   6.120   5.368  0.1839  0.0401  0.0223
28382W        W45230  15.279   4.856  14.258 -0.1240  0.0937 -0.0262
28383W        W45231  13.475   7.676  12.403 -0.2532  0.1334 -0.1662
28384W        W45232   8.442  14.083  12.129 -0.1231 -0.0086  0.1034
28385W        W45233   6.901  11.347   2.095 -0.0829 -0.0165 -0.1524
28386W        W45234   4.349  16.535   4.737  0.1171  0.0561 -0.2514
28387W        W45235  16.063   7.315  14.648 -0.1365 -0.0535  0.0123
28388W        W45236  12.332   4.029  13.338 -0.0225  0.3953 -0.0750
28389W        W45237   7.156  14.287   3.783  0.0293  0.1510 -0.0573
28390W        W45238   7.476  13.941  14.347  0.1159 -0.3145  0.1165
28391W        W45239   7.425   1.490  14.949 -0.2385 -0.1921  0.3430
28392W        W45240   2.559  17.600   1.084  0.0681 -0.1586  0.1051
28393W        W45241  10.737  13.104   5.299 -0.1058 -0.4228  0.0874
28394W        W45242   3.731  16.759   4.015 -0.2635 -0.0230 -0.0680
28395W        W45243   5.660   7.220   4.347  0.0966 -0.0017 -0.0157
28396W        W45244  16.363   3.952  14.627 -0.1373  0.2204  0.1724
28397W        W45245   0.535  10.628  11.474 -0.2591  0.1229  0.2202
28398W        W45246   6.418   4.659  14.392  0.0740 -0.1101 -0.2928
28399W        W45247   9.060   1.057   5.798  0.0456  0.0737 -0.2224
28400W        W45248   0.470   6.602  12.816  0.1884 -0.0430 -0.0156
28401W        W45249   5.605   1.685  12.613 -0.0216 -0.2611 -0.0169
28402W        W45250  13.767   7.031  13.869  0.3753  0.1016  0.1978
28403W        W45251  13.534   5.451  14.388 -0.1024  0.0711 -0.1572
28404W        W45252   4.600  12.901   1.513 -0.0153 -0.0884 -0.1395
28405W        W45253  13.683   9.492  12.638  0.3592 -0.2644 -0.1861
28406W        W45254   8.557   4.705   2.447 -0.0415 -0.1846 -0.2775
28407W        W45255   0.982   0.053   3.089 -0.2315  0.0941  0.1085
28408W        W45256  10.333  13.047  10.543 -0.0013  0.1326  0.0337
28409W        W45257  11.193   5.773   2.433  0.0816 -0.0257 -0.0857
28410W        W45258  11.325   1.003   2.340 -0.1158 -0.3208  0.1366
28411W        W45259   0.903   4.483  13.200 -0.5484  0.2984  0.1345
28412W        W45260  10.718   5.354  14.244  0.0465 -0.4061 -0.1339
28413W        W45261  15.025   5.336   2.111  0.1238  0.0109 -0.4237
28414W        W45262  14.348  11.814  12.109 -0.3516  0.1403 -0.0606
28415W        W45263   3.091   4.013  12.989  0.3053  0.1236  0.1474
28416W        W45264  17.486   4.207   4.746  0.0212 -0.0614 -0.0818
28417W        W45265  14.273   8.392   0.621 -0.2089  0.0476  0.2164
28418W        W45266  16.068   8.456  13.175  0.2414 -0.2240 -0.1280
28419W        W45267  12.033  13.429   6.015  0.0986 -0.1797 -0.3302
28420W        W45268   4.504   0.839  15.775  0.0043  0.1445  0.1819
28421W        W45269   2.461  16.866  12.168 -0.2149  0.0651  0.0648
28422W        W45270  12.175  15.831  12.551  0.1117 -0.4028 -0.1475
28423W        W45271  11.815  15.086   1.876 -0.1826  0.0777  0.1220
28424W        W45272  17.226  14.313   2.451  0.2266 -0.3411  0.0664
28425W        W45273   1.244  13.829   2.546  0.1057 -0.1424  0.1217
28426W        W45274   3.081  16.786  15.745  0.2517  0.0131  0.1799
28427W        W45275  13.177   2.419   2.039  0.0812 -0.0092  0.1105
28428W        W45276  17.279   2.523  11.477 -0.2815 -0.3634  0.2222
28429W        W45277  13.008  12.327   2.089 -0.0282  0.1944  0.3699
28430W        W45278   6.463   6.343   1.663 -0.1860 -0.1418 -0.1334
28431W        W45279  16.970   7.505   2.747 -0.0500 -0.0712 -0.1877
28432W        W45280  17.125   7.273  16.293  0.3023 -0.0155 -0.2246
28433W        W45281  14.645  12.952  14.776 -0.1879 -0.1505 -0.1275
28434W        W45282   2.383   4.512  15.402 -0.3209  0.1028 -0.0797
28435W        W45283  11.494  12.152   2.949  0.0738  0.1752 -0.0263
28436W        W45284  16.586  17.176  16.277  0.2575 -0.1392 -0.1873
28437W        W45285   1.935   3.434  13.937 -0.1530 -0.1354 -0.2847
28438W        W45286   9.339  17.417   3.751 -0.2173  0.0423  0.1749
28439W        W45287   6.500   3.484  15.019 -0.1714 -0.2393 -0.1234
28440W        W45288  13.386  17.261  15.378  0.1923  0.5210 -0.1954
28441W        W45289  16.907   2.237  14.982  0.3730 -0.0241 -0.4650
28442W        W45290   4.521   9.121  10.959 -0.4226  0.1248 -0.1553
28443W        W45291  17.369   7.835  12.510  0.1736  0.1242  0.4600
28444W        W45292  12.988   6.715   2.952  0.2819 -0.3438 -0.0090
28445W        W45293   8.109   5.663  14.562 -0.1307 -0.0768  0.0342
28446W        W45294   3.065  12.524   5.286  0.0726  0.1308 -0.2161
28447W        W45295  12.117   3.566  13.143 -0.1339 -0.2112 -0.1524
28448W        W45296  10.082  14.878   2.874  0.0313  0.1821 -0.1735
28449W        W45297  12.334  16.391  12.818 -0.1798  0.1229  0.0264
28450W        W45298   7.224   2.862  15.383 -0.0223  0.0435  0.0328
28451W        W45299  16.249   4.762  12.817 -0.0908 -0.2618 -0.0401
28452W        W45300  14.689  16.136   0.635  0.2051  0.1970  0.3143
28453W        W45301  12.414   4.768  11.353 -0.0171 -0.2300  0.0393
28454W        W45302   3.102   6.442  11.823  0.4092  0.1415 -0.2397
28455W        W45303  14.650   1.402  13.563 -0.0276  0.0321 -0.1187
28456W        W45304  15.592   5.674  13.151 -0.1522  0.1159 -0.0944
28457W        W45305   0.780   1.587   5.681  0.0626  0.0144  0.1227
28458W        W45306   5.313  17.334  14.009 -0.0454  0.3267 -0.0965
28459W        W45307   9.765   5.948  15.098  0.0636  0.0632  0.2273
28460W        W45308   3.774   4.105   2.466  0.0697  0.0062 -0.0321
28461W        W45309   3.053   4.644   3.484  0.0134  0.0068  0.3161
28462W        W45310   8.425   8.450  12.442  0.2901  0.0406 -0.1559
28463W        W45311   3.698  12.676   4.268  0.0737  0.5194  0.0934
28464W        W45312  13.561   1.729  14.864 -0.3794 -0.0470  0.1663
28465W        W45313   5.753  17.001   3.590 -0.0672  0.1443  0.0960
28466W        W45314  16.756  14.526   0.610 -0.2463  0.1176 -0.3563
28467W        W45315   0.986   1.679   0.376  0.2591  0.2635  0.2328
28468W        W45316   9.541   4.395   1.544 -0.1058 -0.1177  0.2683
28469W        W45317  10.900   7.510  11.682  0.2387 -0.1084 -0.1289
28470W        W45318   4.380   4.064   3.785 -0.1946  0.0947 -0.0814
28471W        W45319   2.517  16.639  14.869  0.1771  0.0243  0.1725
28472W        W45320   9.642   3.048   1.737 -0.2083  0.0730 -0.1899
28473W        W45321   5.726  11.573  15.824 -0.2340  0.1177 -0.0526
28474W        W45322  12.260   7.605  16.376 -0.2204 -0.0691  0.1633
28475W        W45323  14.297   3.184  11.118  0.0822 -0.0529 -0.0044
28476W        W45324   0.011   5.498   4.919  0.3754  0.0997  0.2651
28477W        W45325  10.990   4.566   5.403 -0.0190 -0.1560 -0.1775
28478W        W45326   3.179   6.145   1.669  0.1597 -0.1680 -0.0845
28479W        W45327   0.473   4.148  15.233  0.2410 -0.0339 -0.2715
28480W        W45328  12.292   2.912  16.177  0.1593  0.1798  0.1294
28481W        W45329   0.082   1.822   3.882  0.3644 -0.2493  0.1577
28482W        W45330   3.117   0.875  13.985 -0.1814  0.0078  0.2584
28483W        W45331  17.631  10.044   5.736  0.2467  0.2171 -0.0241
28484W        W45332   6.815   6.641   0.863  0.1989  0.0280 -0.1113
28485W        W45333   5.252   2.823   1.190  0.1155 -0.0912 -0.0667
28486W        W45334   8.542  15.619  13.956  0.0970 -0.0183  0.2775
28487W        W45335  13.181   2.302  15.508  0.1601  0.0006  0.1542
28488W        W45336   7.765   1.335  14.467 -0.0869  0.0769 -0.2198
28489W        W45337   9.851  10.405   4.976 -0.2596 -0.2141  0.0546
28490W        W45338  11.549   8.691  14.529  0.1199 -0.3946  0.2296
28491W        W45339   2.274   8.063   5.096  0.2272  0.0256 -0.3353
28492W        W45340  13.498  13.940  13.063 -0.1323  0.0151  0.2018
28493W        W45341   4.348   1.248  13.421 -0.0118  0.0739  0.3825
28494W        W45342   7.104   6.942  13.808 -0.1542  0.1262  0.2249
28495W        W45343  15.569   7.266  11.718 -0.0613  0.0685  0.3279
28496W        W45344  13.986   1.260  16.205  0.1265 -0.1857  0.1331
28497W        W45345  14.281   5.027   0.423  0.2733 -0.1926 -0.1710
28498W        W45346   7.945   4.752  16.238  0.3279  0.2085 -0.0369
28499W        W45347   3.716   6.224  12.241 -0.2081 -0.1962 -0.0845
28500W        W45348  14.764  11.103  13.638 -0.0742  0.3299  0.0022
28501W        W45349  11.655   8.215   0.523 -0.1122  0.0321 -0.1275
28502W        W45350   3.116   8.568  16.339 -0.2765 -0.0465  0.0963
28503W        W45351  14.036   8.476   5.142 -0.0471 -0.1655 -0.1260
28504W        W45352   0.417   7.057   3.728 -0.0211 -0.0511  0.0332
28505W        W45353  11.317  17.541   4.435  0.1828  0.0024  0.0416
28506W        W45354  14.155   8.805  15.706  0.0660 -0.2114 -0.0736
28507W        W45355   1.584  11.716  10.334 -0.0175  0.1629 -0.2569
28508W        W45356  17.173   8.760   3.256  0.0090  0.0594 -0.1217
28509W        W45357   6.172   9.152   0.100 -0.0891  0.2139  0.0294
28510W        W45358   2.491  11.099   1.352 -0.0135  0.2392 -0.0813
28511W        W45359   5.280   3.383  13.906  0.2103  0.2645  0.0748
28512W        W45360   5.481   3.435   1.732  0.0804 -0.2102  0.0863
28513W        W45361  16.846  12.649  12.199 -0.1337 -0.0643  0.1829
28514W        W45362  10.909   6.815   3.836 -0.1920  0.0509  0.0220
28515W        W45363   3.042   3.738  15.805 -0.0761 -0.1207  0.0065
28516W        W45364  11.015  12.985   1.682  0.1549  0.2667  0.2823
28517W        W45365  15.999  14.032  13.214 -0.1375 -0.0805  0.0003
28518W        W45366   8.835  17.862  14.754  0.2023 -0.0745 -0.2060
28519W        W45367   5.200   8.116  15.672 -0.0326 -0.2908 -0.1518
28520W        W45368   6.053   6.872   2.475 -0.0396 -0.3486 -0.0614
28521W        W45369  12.224  17.814   0.246  0.1206  0.0265  0.0009
28522W        W45370   2.906  16.665  12.387 -0.0987 -0.1622 -0.0693
28523W        W45371  17.585   7.660   2.060  0.0220  0.3211  0.0470
28524W        W45372   9.483  15.425  15.602  0.1231  0.2505  0.2421
28525W        W45373  16.546   7.517  14.064  0.3532 -0.1783  0.2439
28526W        W45374  17.009   1.364   0.758 -0.0810  0.1760 -0.0378
28527W        W45375  14.212  13.586  11.218 -0.1030  0.0707  0.0693
28528W        W45376   1.885   4.448  13.639  0.1068 -0.2487  0.0054
28529W        W45377   6.973   4.463   1.325 -0.2609 -0.1339 -0.2963
28530W        W45378  12.202   4.772  15.299 -0.0200 -0.0255 -0.0084
28531W        W45379  13.160   3.952   2.577 -0.1324 -0.1742 -0.2096
28532W        W45380  11.249   8.766   2.290 -0.1390 -0.2271  0.0823
28533W        W45381  13.808   9.582   0.759  0.2043 -0.3546  0.1466
28534W        W45382  15.231  14.193  15.534 -0.1737 -0.0471  0.1632
28535W        W45383   7.438   9.900  14.264  0.1778 -0.2254  0.1123
28536W        W45384   0.921  12.076  15.478 -0.1756  0.1475 -0.2155
28537W        W45385  11.979   2.797  15.818 -0.3978 -0.1575 -0.2017
28538W        W45386   3.463   0.254   3.176 -0.0610 -0.0651  0.1316
28539W        W45387  16.777   7.394   4.935 -0.2963 -0.0912  0.0499
28540W        W45388   6.103   8.681   1.078  0.2582 -0.0283  0.2607
28541W        W45389   3.839  11.418   1.830 -0.1898  0.2593 -0.0653
28542W        W45390  12.582   5.992   3.334 -0.1374  0.0707 -0.2248
28543W        W45391   4.328  17.322  12.662  0.1924 -0.1096 -0.3202
28544W        W45392  11.502   0.713   6.004  0.0215 -0.1091 -0.0882
28545W        W45393   9.078  11.075   3.574  0.2575 -0.0016  0.0751
28546W        W45394  13.309   2.466   3.408  0.5017 -0.1493  0.0715
28547W        W45395   6.430   0.504   0.947  0.1344  0.0771  0.4229
28548W        W45396   0.195  16.093  11.401 -0.0876 -0.2526 -0.4976
28549W        W45397  13.751   0.015   3.150  0.2397 -0.0048 -0.0575
28550W        W45398  13.005   0.616  10.959 -0.0840 -0.0740  0.2666
28551W        W45399  16.081  16.699  13.261 -0.1593  0.0704  0.1032
28552W        W45400  10.687   2.896   2.371 -0.0630 -0.3085 -0.0876
28553W        W45401   6.388   6.663  13.944  0.0274 -0.1186 -0.0149
28554W        W45402   3.127   4.774   1.493  0.0321 -0.0921 -0.5193
28555W        W45403   2.648   0.827  13.851 -0.0444 -0.1749  0.2491
28556W        W45404   4.645  13.442  16.257  0.0589  0.0081 -0.4436
28557W        W45405   1.355   4.944  13.564 -0.0649 -0.0049 -0.0754
28558W        W45406   3.279   1.590   4.868  0.0073  0.0079  0.1245
28559W        W45407   4.029  10.450  15.360 -0.1088 -0.2404 -0.1732
28560W        W45408   3.370   9.815   2.751 -0.2210 -0.1522  0.2149
28561W        W45409  14.261  14.668  14.386  0.0621  0.0096 -0.0582
28562W        W45410   9.440  10.762  15.349 -0.4409  0.2216 -0.1278
28563W        W45411  16.152   2.951  11.715  0.2880  0.1455 -0.0317
28564W        W45412  13.245   5.394   2.612 -0.0322  0.2121  0.1186
28565W        W45413   2.120  11.467   4.066 -0.2020 -0.2604  0.1926
28566W        W45414   2.549  17.075   1.463 -0.2178 -0.1379 -0.0015
28567W        W45415  17.069   1.142   2.841  0.1335 -0.0026 -0.0657
28568W        W45416  14.552   6.645   4.811 -0.0921  0.2914 -0.0395
28569W        W45417  13.125   6.542  13.175  0.0283 -0.3455  0.2580
28570W        W45418   2.478   0.219   1.250  0.0116  0.2856 -0.0551
28571W        W45419   1.113  17.066   5.840 -0.0716 -0.0647  0.2008
28572W        W45420  13.960   5.185  15.547  0.0321 -0.0824  0.0164
28573W        W45421  15.703  14.406  14.235  0.0309 -0.0863  0.0036
28574W        W45422   5.691   2.014   5.037 -0.2265  0.0106 -0.0099
28575W        W45423   2.819  11.910   4.592 -0.0907  0.0189 -0.3866
28576W        W45424  16.964  14.509   1.591  0.0525 -0.3095  0.2810
28577W        W45425   4.622   6.439   0.325  0.3410  0.2073  0.2315
28578W        W45426   0.528   7.638  13.643  0.0806 -0.2204  0.0074
28579W        W45427   6.513   3.076  14.710 -0.3088  0.1896  0.1092
28580W        W45428   5.627  15.776   1.642  0.2682  0.1903 -0.1434
28581W        W45429   8.072  16.658  15.568 -0.0235 -0.1422  0.1451
28582W        W45430  16.775   0.214   3.412 -0.3071 -0.1129 -0.4206
28583W        W45431  15.487  13.531  11.510 -0.1292 -0.1888 -0.1456
28584W        W45432  10.007   2.406  13.221 -0.0058  0.2261 -0.1616
28585W        W45433  15.664  17.004   0.508  0.1773 -0.1773 -0.0977
28586W        W45434  10.666  17.033  11.397  0.1690 -0.0292  0.1366
28587W        W45435   5.874  10.273  15.515 -0.0464  0.2190 -0.0663
28588W        W45436  13.265   8.589   4.911  0.1850  0.0411  0.0407
28589W        W45437  15.818   6.364   3.206 -0.1671  0.1135  0.0126
28590W        W45438   1.403  17.150  15.249 -0.0021 -0.0663  0.0909
28591W        W45439   7.462   0.824   4.336  0.1076 -0.2692  0.1213
28592W        W45440  12.507  14.348  14.175  0.0793  0.0623  0.1512
28593W        W45441  10.440  10.706  15.962  0.0276 -0.0452  0.1236
28594W        W45442   5.625   8.370  13.356 -0.1354 -0.0201  0.1427
28595W        W45443   5.446   7.891  12.106  0.3203  0.0215 -0.3146
28596W        W45444   1.231   3.126   1.748 -0.0152  0.0184 -0.3754
28597W        W45445   7.313  17.329  15.376 -0.1100  0.1419 -0.0520
28598W        W45446   1.853   5.841  15.999  0.1951 -0.0257 -0.0760
28599W        W45447   9.119  11.703   1.783  0.0308  0.1880 -0.1059
28600W        W45448   9.102   8.614  13.714 -0.0058 -0.0184 -0.1541
28601W        W45449   8.671   4.191   4.842  0.0688  0.4817  0.0107
28602W        W45450   5.904  16.908   4.695 -0.1968 -0.2132  0.0189
28603W        W45451   8.088   6.076   5.816  0.1149 -0.1208  0.2488
28604W        W45452   2.226   1.236   0.890 -0.1679  0.0212  0.2107
28605W        W45453  15.680  15.446  14.386 -0.0762  0.0343  0.0900
28606W        W45454   0.653  16.039  14.383  0.2404 -0.0625  0.1948
28607W        W45455   7.049   3.006  10.771 -0.1460  0.0453  0.0893
28608W        W45456  17.105  15.113   2.983 -0.0547  0.2803 -0.2746
28609W        W45457   9.268   1.705   1.739  0.0314 -0.0094 -0.1119
28610W        W45458  15.154  11.941  14.549 -0.0672  0.1000 -0.0609
28611W        W45459   6.359   9.526   4.013  0.2549 -0.4325  0.0671
28612W        W45460   3.832   2.026  14.415  0.1332 -0.2052  0.3596
28613W        W45461   3.842   2.007   2.455  0.1934  0.1692  0.2192
28614W        W45462   5.632  12.127   3.762  0.3598 -0.0747  0.1145
28615W        W45463  17.038   4.955  15.978 -0.0729 -0.0342  0.0879
28616W        W45464  13.283   1.217  14.038  0.2207  0.0578 -0.1530
28617W        W45465  12.758  10.109  10.934  0.1756  0.3009 -0.1777
28618W        W45466  13.493  16.044  12.240 -0.2585  0.0488 -0.1559
28619W        W45467  14.089   4.343   1.718 -0.0301  0.1597  0.0143
28620W        W45468  10.816   0.558   4.030 -0.0377 -0.0483 -0.0620
28621W        W45469   6.343   1.028  14.554 -0.3910 -0.2964  0.0236
28622W        W45470   7.203   4.991   4.997  0.0956 -0.0095  0.0387
28623W        W45471  11.239   0.787  13.473 -0.2077 -0.0249  0.0870
28624W        W45472   9.519   4.629  12.092 -0.0642 -0.0239  0.3732
28625W        W45473  17.770  13.795   0.316 -0.1648  0.0475 -0.1240
28626W        W45474  12.297   7.166   0.210  0.1098 -0.2368 -0.3104
28627W        W45475  14.665   1.155   1.428 -0.0062  0.1005  0.0062
28628W        W45476   4.824   1.052   2.506  0.2130  0.1863 -0.0839
28629W        W45477  10.736  13.515   3.870  0.0116  0.0460  0.0504
28630W        W45478   8.503   2.894   5.580 -0.1904 -0.1470  0.2827
28631W        W45479   9.717   9.167   6.236 -0.1261  0.2147  0.1825
28632W        W45480   6.024  12.866  15.259  0.0618  0.3123 -0.0744
28633W        W45481  16.755  12.873   9.877  0.0124 -0.0893 -0.1087
28634W        W45482   4.252   3.697  13.200  0.2332  0.0892  0.1070
28635W        W45483   8.674  15.602   3.732  0.2627  0.0753 -0.3217
28636W        W45484  14.438  14.961  15.726  0.0725 -0.3671 -0.0839
28637W        W45485  16.372   1.987   5.087  0.1613  0.0186 -0.1725
28638W        W45486  10.342  13.367  14.932  0.0442  0.0795  0.0840
28639W        W45487  17.424   9.345   0.534 -0.2259 -0.0620  0.1731
28640W        W45488   1.076   3.338   2.983  0.0114  0.0203 -0.2643
28641W        W45489   8.840   6.465  11.760  0.2074 -0.0720  0.2459
28642W        W45490   8.115   5.792  13.611  0.0496 -0.2705  0.0424
28643W        W45491  15.454  16.040  12.377 -0.0479  0.1755  0.0861
28644W        W45492  11.914   6.339   4.646  0.0370 -0.2225  0.0505
28645W        W45493   0.677  12.950  13.458  0.2648 -0.0122  0.0163
28646W        W45494  15.774  13.878  11.712  0.2752 -0.0888  0.3042
28647W        W45495   8.981   7.831  11.657 -0.3846 -0.0907  0.0567
28648W        W45496  10.383   4.519   6.156 -0.1092  0.1266  0.1623
28649W        W45497   1.417   9.530  12.096  0.3975  0.0821 -0.2544
28650W        W45498   2.560  14.581   4.240 -0.0510  0.2569  0.0970
28651W        W45499  14.596   4.080   4.420  0.1008  0.1053 -0.2386
28652W        W45500  15.683   6.488  15.028 -0.0840  0.0218 -0.0117
28653W        W45501  11.055   2.105   4.294  0.3205  0.2482  0.0006
28654W        W45502   3.140   0.519   0.415 -0.0193  0.1867 -0.2977
28655W        W45503  12.992  13.967  13.124 -0.0630 -0.0759 -0.0474
28656W        W45504   9.133   2.085  13.959  0.2941  0.0920  0.1483
28657W        W45505  17.652   5.799  11.676 -0.0268  0.1448  0.0490
28658W        W45506  11.752   6.398  15.880 -0.1935  0.1323  0.0063
28659W        W45507   0.953  13.256   0.471 -0.1096 -0.3519 -0.2144
28660W        W45508   2.347   6.286  10.470  0.0956  0.0332 -0.0927
28661W        W45509   2.826   9.223  10.588 -0.2229  0.0956 -0.0974
28662W        W45510  15.306  13.796  16.347 -0.1358  0.1208 -0.2681
28663W        W45511  17.405  11.247  14.704  0.0822 -0.1924 -0.0198
28664W        W45512   0.573  17.691   0.957 -0.0437  0.2571  0.2483
28665W        W45513   0.866   9.679   1.152 -0.0987 -0.0828  0.0256
28666W        W45514  12.696  12.708   2.305  0.1341 -0.2328 -0.1891
28667W        W45515   7.069   6.351  12.649  0.1110 -0.1746 -0.0926
28668W        W45516  17.578   0.300  11.688  0.1488  0.2121  0.2531
28669W        W45517  14.227  14.751   1.860 -0.3366 -0.0433  0.2465
28670W        W45518   3.709  11.339  15.010  0.3045  0.0892  0.0950
28671W        W45519   8.770  13.986   1.098 -0.1361 -0.2185 -0.1893
28672W        W45520   1.678   6.401   1.683 -0.2162 -0.2330 -0.3343
28673W        W45521   3.357   6.787   0.327 -0.1045 -0.0520  0.0967
28674W        W45522  12.726   3.745   5.177 -0.1289 -0.0050 -0.3754
28675W        W45523   9.463  13.054   2.078  0.2359 -0.2431  0.1356
28676W        W45524  16.457  14.896   2.465  0.0207  0.0997  0.1123
28677W        W45525   1.167  17.716   1.759 -0.0650  0.1836 -0.0546
28678W        W45526  10.144   0.564   5.211 -0.0681  0.1249 -0.0555
28679W        W45527   5.232   7.130  15.734  0.0573  0.3488 -0.0956
28680W        W45528   7.287   4.772  14.860  0.0398  0.1487 -0.0606
28681W        W45529  11.488   7.375  14.138 -0.0925 -0.0285  0.1497
28682W        W45530  14.348  13.563  16.011  0.1080  0.0397 -0.1460
28683W        W45531   3.362   3.134   5.636  0.3244 -0.0005 -0.0082
28684W        W45532   7.033   3.699  14.333 -0.0806  0.1794 -0.2260
28685W        W45533   3.497   2.670   3.630 -0.0860  0.0263  0.1753
28686W        W45534   1.197  14.731   3.631 -0.1152 -0.2438  0.0240
28687W        W45535  15.810   3.429   4.497 -0.3201 -0.0742 -0.0674
28688W        W45536   1.718  17.470   2.550 -0.4260 -0.3157 -0.0106
28689W        W45537  11.441  12.431  14.752  0.0065 -0.0116 -0.3427
28690W        W45538  10.919  15.667  11.358  0.0047 -0.4361  0.1539
28691W        W45539   9.400  15.734  16.386 -0.2634  0.3622 -0.0534
28692W        W45540  16.955  15.480   3.668  0.0540  0.1235  0.0417
28693W        W45541  16.432  10.824  16.355  0.0793 -0.1833 -0.0766
28694W        W45542   3.418   0.766   2.143 -0.0315 -0.2237  0.2523
28695W        W45543   3.683   9.972   5.458 -0.1902 -0.0734 -0.0408
28696W        W45544   3.029  15.295   2.624 -0.3379 -0.2326  0.3708
28697W        W45545   4.303   4.741  14.785 -0.2639  0.0334  0.1032
28698W        W45546  11.772  10.003  13.950  0.2012 -0.1652 -0.1814
28699W        W45547  15.180  14.665   2.477 -0.0595 -0.1428  0.0148
28700W        W45548  14.198   1.169  13.347 -0.1617  0.0820 -0.0198
28701W        W45549  14.737   9.631   5.579  0.2401 -0.4750 -0.0302
28702W        W45550  13.386   4.516   0.701  0.1362 -0.0761  0.1285
28703W        W45551   7.657   1.013  13.222  0.0161  0.0866 -0.0791
28704W        W45552   7.391   2.501  14.992  0.0926 -0.2141  0.0575
28705W        W45553  11.777  11.412  13.476  0.2400 -0.1134  0.1806
28706W        W45554   2.360  14.649   5.118  0.0218  0.1005  0.0042
28707W        W45555  15.607   4.366   3.870  0.0624 -0.0982 -0.0560
28708W        W45556   3.282   0.354   1.304 -0.1427 -0.0877  0.1146
28709W        W45557   7.144  15.289   4.111  0.1233 -0.1421  0.2473
28710W        W45558  10.458   6.470   0.001 -0.1933 -0.1724  0.3829
28711W        W45559  12.641   8.647   4.018 -0.3373 -0.2112 -0.1951
28712W        W45560   6.139   4.351   2.488 -0.1456 -0.0236  0.0427
28713W        W45561   9.733  10.079  11.674 -0.3031 -0.0871 -0.1473
28714W        W45562  16.791  13.698  16.219 -0.1992 -0.2751 -0.1373
28715W        W45563   5.077  14.278   0.062  0.0561 -0.2785  0.0215
28716W        W45564   5.136   7.563  15.973  0.1407  0.0167 -0.0394
28717W        W45565   1.735   6.810   1.947 -0.4205 -0.0227 -0.1886
28718W        W45566   0.274   6.128   2.988 -0.0056 -0.1101  0.1709
28719W        W45567  10.681   4.348   2.012  0.0391 -0.1655  0.1664
28720W        W45568   9.274  12.097  11.264  0.4316 -0.3106 -0.0245
28721W        W45569  17.880   6.674  11.719  0.0556 -0.2302  0.1035
28722W        W45570  12.210  11.198   3.373  0.0597  0.1876  0.2824
28723W        W45571  12.611  12.757  14.895 -0.1180 -0.1766 -0.2632
28724W        W45572  14.275   8.043   5.139  0.0389 -0.0135  0.2507
28725W        W45573   4.530  17.384  14.954 -0.1893 -0.2143  0.2579
28726W        W45574  14.341  11.597  10.769 -0.0598 -0.0202  0.4125
28727W        W45575   6.421  16.286   2.335 -0.1964  0.2160  0.2009
28728W        W45576   8.983   6.030   0.446  0.1382 -0.0147  0.2290
28729W        W45577   3.200  10.143  15.337  0.0038 -0.2521  0.0595
28730W        W45578  15.139   9.379  15.058  0.0194  0.1118  0.1070
28731W        W45579   7.550   3.017  13.827  0.1114 -0.0034  0.0687
28732W        W45580   0.368  12.072   5.018  0.0310  0.1422 -0.2210
28733W        W45581  10.544   6.737  13.380 -0.0269  0.2707 -0.3938
28734W        W45582   2.989  16.850   4.395 -0.2182 -0.1410 -0.3729
28735W        W45583   3.512  12.772   1.134 -0.0881 -0.0555 -0.0097
28736W        W45584   8.624  10.388  15.660  0.3237 -0.0814 -0.0095
28737W        W45585   5.398   9.422   1.822 -0.0229  0.1367  0.2590
28738W        W45586  10.064   5.355  13.086  0.2867 -0.1789 -0.0433
28739W        W45587   2.970   5.724   1.425  0.1062  0.1713 -0.2693
28740W        W45588   0.282   0.539  12.867 -0.2902  0.0923 -0.0223
28741W        W45589   4.424  15.305   2.642  0.1672  0.1561  0.0334
28742W        W45590  11.932   4.665  11.283 -0.0176  0.0183  0.0151
28743W        W45591  17.062  10.068   4.662 -0.1289 -0.0021  0.3077
28744W        W45592  13.873   6.676   1.145  0.0256 -0.0085 -0.0847
28745W        W45593  11.000  12.908   1.156 -0.2998  0.2019 -0.1084
28746W        W45594  15.744  16.690   2.510 -0.0666  0.4857 -0.1364
28747W        W45595  14.263  14.507  15.812 -0.1279 -0.2975  0.1148
28748W        W45596   1.803   1.519   0.935 -0.0857  0.0129  0.2466
28749W        W45597   3.667   2.486  15.944  0.0907  0.1469 -0.1929
28750W        W45598   9.920   0.288  15.423  0.1474  0.1410 -0.1603
28751W        W45599   8.157  16.368   2.007  0.0742 -0.2936  0.4382
28752W        W45600  15.196  16.471   2.912 -0.0546 -0.3042  0.0189
28753W        W45601   1.138  13.599  12.685  0.1512 -0.0837 -0.1041
28754W        W45602   2.939  13.268   2.515 -0.0845  0.2163 -0.0970
28755W        W45603   0.090  17.883   4.010 -0.2778  0.0321 -0.1088
28756W        W45604   4.686  13.353  13.244 -0.1055  0.1316 -0.1635
28757W        W45605  16.305  15.112  11.694 -0.0650  0.0384  0.0660
28758W        W45606  12.033   5.557   1.804 -0.1459  0.3906 -0.1694
28759W        W45607   9.389  12.719  16.274  0.0624  0.0560 -0.1393
28760W        W45608   5.999   6.934  12.181  0.0505  0.0769  0.0661
28761W        W45609   9.125  14.825  14.657  0.0526  0.2431  0.1546
28762W        W45610   5.978   5.477  15.756 -0.0612 -0.1702 -0.0210
28763W        W45611  14.640   7.672  14.380 -0.0797  0.2785  0.2278
28764W        W45612  14.593  14.180   0.775 -0.0987  0.5038 -0.0766
28765W        W45613  11.621   9.270   0.498 -0.0136  0.0723 -0.2983
28766W        W45614   2.779   3.272  15.090  0.2746  0.1746 -0.3076
28767W        W45615  16.870   5.047   2.842 -0.0862  0.0440 -0.1398
28768W        W45616   6.038  15.679   1.436  0.4165 -0.0855  0.1464
28769W        W45617   6.113   4.744  12.562  0.3023 -0.0173 -0.0422
28770W        W45618  15.434  12.997   3.114 -0.2087 -0.2191  0.0698
28771W        W45619   3.522   5.701  13.428  0.0595  0.3358 -0.0669
28772W        W45620  13.778  12.177   2.421 -0.0721 -0.1217 -0.2514
28773W        W45621  10.413   2.624   4.959  0.1346  0.0532 -0.2049
28774W        W45622  15.256   7.805   1.773  0.0430  0.1467 -0.1504
28775W        W45623  17.207   4.905  15.502 -0.1066  0.1981 -0.0045
28776W        W45624  14.874   8.996   2.404 -0.0079 -0.2619  0.3476
28777W        W45625  10.064   6.570  13.943 -0.1914  0.0214  0.1098
28778W        W45626  17.686  13.439  16.412 -0.1775 -0.3224 -0.0536
28779W        W45627   2.821  12.364  13.449  0.1800 -0.0589 -0.0634
28780W        W45628   6.207   5.073   2.391  0.2228  0.2792 -0.1225
28781W        W45629   8.849  13.395   2.621  0.3476 -0.0869  0.0733
28782W        W45630  10.204   7.344   0.233 -0.2273  0.1295  0.0450
28783W        W45631   8.024  17.407   0.373  0.1088  0.2098 -0.1013
28784W        W45632  15.097  16.311   1.531 -0.1543  0.2149  0.0388
28785W        W45633   7.141   8.726  13.277 -0.2194  0.2196  0.0343
28786W        W45634   4.705   1.762  16.366  0.1263  0.0994  0.0047
28787W        W45635  11.808   0.124   2.023 -0.0321  0.0751 -0.0946
28788W        W45636  15.382   5.746  11.670 -0.1239  0.1420 -0.0648
28789W        W45637  16.366   2.846  12.589  0.1153 -0.2246 -0.0393
28790W        W45638  10.303  14.040  14.614  0.0924  0.1156 -0.4421
28791W        W45639  13.319   0.150   3.963  0.0771  0.0162 -0.0974
28792W        W45640  12.658   5.364   5.196 -0.1850  0.0431 -0.1155
28793W        W45641  13.547  14.429   1.965  0.1578 -0.1640 -0.1062
28794W        W45642   5.022   5.430  15.811 -0.1768 -0.2622 -0.2306
28795W        W45643  15.052   0.266   3.163  0.2056  0.1060 -0.0395
28796W        W45644   7.828  15.776  10.884 -0.2806  0.1891  0.1470
28797W        W45645   7.515  12.312   1.208 -0.1442 -0.2298 -0.4843
28798W        W45646  12.458   7.706  11.457 -0.2043 -0.0118 -0.0176
28799W        W45647   6.262  16.915  12.488 -0.3787 -0.0332  0.1655
28800W        W45648   7.686   3.208   2.336 -0.0067  0.1291 -0.0100
28801W        W45649  13.608  17.790  10.989 -0.2653 -0.0975 -0.0120
28802W        W45650   9.420   7.010   1.221  0.0502  0.1810 -0.2312
28803W        W45651  16.677   0.800  15.192 -0.2240 -0.0130 -0.1276
28804W        W45652  11.236   3.578  14.194 -0.0530 -0.0872 -0.1293
28805W        W45653   6.359   3.900   1.220 -0.0625  0.0667  0.1299
28806W        W45654   4.641  13.971   2.662 -0.2207  0.0790  0.1254
28807W        W45655  11.607   4.317   4.035  0.1395 -0.2133  0.0304
28808W        W45656   3.868   9.867   2.971 -0.0521 -0.0892  0.0507
28809W        W45657  15.998   6.904  14.289 -0.1848  0.2566 -0.1774
28810W        W45658   5.239  10.842  12.399  0.1910 -0.0756  0.0359
28811W        W45659   9.610  11.742   6.491 -0.1450 -0.3686 -0.3316
28812W        W45660   3.316   5.306  12.579 -0.1269  0.1912 -0.0700
28813W        W45661   4.573   2.324  15.499  0.1162 -0.2956 -0.0399
28814W        W45662  10.594   9.562   5.910 -0.0430  0.1686 -0.0059
28815W        W45663   7.214   3.473   2.152  0.2538 -0.0648 -0.1954
28816W        W45664  14.332  15.498  13.082 -0.1248  0.1151  0.2374
28817W        W45665   8.716  13.764  12.514 -0.0130  0.0145  0.2136
28818W        W45666   1.677   5.026  11.506 -0.0150  0.1806  0.0976
28819W        W45667  17.526   4.422   2.294 -0.1195 -0.3809  0.0845
28820W        W45668  16.008   3.682  12.183  0.3823 -0.2841 -0.0121
28821W        W45669  16.810   3.308   3.156  0.0512 -0.1889 -0.0866
28822W        W45670   2.111   2.871  16.090  0.0126  0.1673 -0.1350
28823W        W45671   8.815   8.533   3.604  0.0775 -0.0307 -0.2507
28824W        W45672   0.452   6.147  15.063  0.3176  0.1810  0.0288
28825W        W45673  12.887   5.682   2.960 -0.0934 -0.2140 -0.2660
28826W        W45674   4.609   4.615  10.808 -0.0732 -0.1279 -0.1438
28827W        W45675  17.051  12.644  14.671 -0.0409 -0.1087 -0.2286
28828W        W45676   1.776  12.191  14.111 -0.2889  0.3959 -0.0997
28829W        W45677   2.745   8.476  12.617 -0.0216 -0.0422 -0.0002
28830W        W45678  12.068  13.821  14.693  0.0651  0.0926  0.0469
28831W        W45679   8.254   6.584   4.709 -0.1654 -0.1878 -0.0111
28832W        W45680   8.175   1.920  11.652  0.2466  0.1346  0.1120
28833W        W45681  10.357  16.215   2.005 -0.1185  0.0923  0.1582
28834W        W45682   8.704  13.829  13.075 -0.3962 -0.0594 -0.1681
28835W        W45683  11.176   9.019   0.416 -0.0671  0.1056  0.1933
28836W        W45684  16.179   8.658  15.697 -0.1752 -0.0351  0.0175
28837W        W45685   9.130  10.834  13.290 -0.1900 -0.0975 -0.1523
28838W        W45686   3.061   4.901   0.967 -0.0525  0.0262 -0.0079
28839W        W45687   8.328  17.484  11.567  0.0525 -0.1743  0.4301
28840W        W45688   2.405  14.901   0.827  0.2248 -0.2948  0.2131
28841W        W45689   8.077   3.076   2.772 -0.4589  0.0861 -0.1740
28842W        W45690   5.611   6.799   0.710 -0.1727  0.0209 -0.2142
28843W        W45691   1.751  12.099  11.177  0.1303  0.0710 -0.1162
28844W        W45692  15.701   5.035  13.287  0.1568 -0.1796 -0.1215
28845W        W45693  16.863   5.005   4.034  0.1177  0.1695  0.1445
28846W        W45694   3.015   2.374   2.813 -0.1858  0.1336 -0.2491
28847W        W45695  11.146   7.992   3.282 -0.3727 -0.1103  0.0769
28848W        W45696  17.428  10.680   2.371 -0.0796 -0.2822 -0.0445
28849W        W45697   9.412  15.721   5.060  0.0643 -0.0325 -0.0744
28850W        W45698   9.870  13.260  14.901 -0.0754  0.1038  0.1234
28851W        W45699   7.072   2.182   2.657 -0.0077  0.1696 -0.0208
28852W        W45700  10.705   3.500   2.386  0.0374  0.0463  0.0882
28853W        W45701   7.894  16.174  15.624  0.0304 -0.1477 -0.0573
28854W        W45702   4.057   5.257  15.137  0.1301  0.3703 -0.0041
28855W        W45703   3.883  16.261  13.450  0.0778  0.2019 -0.0574
28856W        W45704   3.961  15.319   3.438  0.1000  0.0674 -0.0463
28857W        W45705   2.371   9.591   3.593  0.0839 -0.2919  0.2900
28858W        W45706   5.474  13.452  14.268  0.2301 -0.0794 -0.0575
28859W        W45707  12.764  12.102  14.468  0.2527  0.3176 -0.0705
28860W        W45708   7.801   8.568   0.569 -0.0964  0.0545 -0.0184
28861W        W45709   3.945  17.639  14.475  0.0538  0.1744  0.1014
28862W        W45710   9.898  15.718  16.360  0.1084  0.1118  0.0643
28863W        W45711   3.706   4.737  11.831  0.2450  0.0879 -0.1239
28864W        W45712   7.932   3.520   2.609 -0.1160 -0.2435 -0.2005
28865W        W45713   5.351   8.611  12.316 -0.0437  0.0056  0.0357
28866W        W45714  17.611  15.868  14.458  0.1844  0.1786  0.2177
28867W        W45715  14.564   7.658  13.896 -0.0898  0.0305  0.0030
28868W        W45716   2.591  10.151  13.998  0.1572 -0.0495  0.0348
28869W        W45717   8.049   2.326   3.919 -0.1106  0.2298 -0.0705
28870W        W45718   4.333   3.131   5.464 -0.2889  0.0883 -0.4897
28871W        W45719  10.767   4.412   5.850  0.0191  0.0653 -0.2782
28872W        W45720  15.848   3.931  14.695  0.1092 -0.0513  0.0527
28873W        W45721   4.288   2.238   5.365 -0.0315  0.2583  0.1770
28874W        W45722   7.078   5.436  11.245 -0.0665  0.2824 -0.0762
28875W        W45723  12.215  15.052  16.387 -0.1257  0.0440  0.2609
28876W        W45724   2.140   0.980  12.188  0.1299 -0.0380 -0.1536
28877W        W45725  12.760   3.043   4.585  0.1278 -0.1001 -0.0891
28878W        W45726   6.672   0.207  14.349  0.1115  0.3845 -0.2648
28879W        W45727   4.825  17.278   5.387  0.3029  0.2055 -0.2181
28880W        W45728   0.730   5.972  14.257 -0.3464  0.1056 -0.0162
28881W        W45729   4.893  10.448  15.102 -0.2406  0.0085  0.0038
28882W        W45730   9.652  16.120   0.120 -0.0018 -0.0053 -0.1118
28883W        W45731   7.533  12.888  13.678 -0.0746  0.0209 -0.1756
28884W        W45732  17.200  11.687  11.305  0.2179 -0.2409 -0.0975
28885W        W45733   6.767   2.319  12.657 -0.1013  0.1417  0.0612
28886W        W45734   0.822  13.430   4.902 -0.1417  0.0806  0.2322
28887W        W45735  10.168   1.592  13.408 -0.1301 -0.1953  0.0960
28888W        W45736  14.465   2.931   4.652  0.0291  0.0554  0.2586
28889W        W45737   2.658  10.847   4.562  0.2656  0.2630 -0.1920
28890W        W45738  16.746  10.150  12.852 -0.0809  0.3573 -0.0137
28891W        W45739  12.600   1.224  15.766  0.0719 -0.0740  0.1313
28892W        W45740  17.174  15.080   1.023 -0.0265  0.0280  0.0743
28893W        W45741   4.591   8.254   1.279 -0.2136 -0.0144  0.3105
28894W        W45742   9.395  15.491   4.125 -0.2517 -0.0403  0.0140
28895W        W45743  10.254   5.130   5.177 -0.0502 -0.3009 -0.1525
28896W        W45744  13.470   1.505   4.782  0.0924  0.0245 -0.0081
28897W        W45745   0.917  14.481  13.609  0.1836 -0.1042  0.4559
28898W        W45746   4.813   1.594  14.127 -0.1121 -0.0171  0.2257
28899W        W45747   6.327  16.953   4.386 -0.1390  0.0154 -0.1963
28900W        W45748  13.066  10.141   4.631  0.1213 -0.0436  0.2409
28901W        W45749  14.368   4.312  13.620  0.3273 -0.1231 -0.0869
28902W        W45750  12.565   5.011  11.832  0.0542  0.1709  0.2812
28903W        W45751   4.358   2.013   2.473 -0.2409  0.0155  0.0036
28904W        W45752   0.427   1.936  10.750  0.2098 -0.1217 -0.2410
28905W        W45753   9.166   5.672   2.551 -0.1968 -0.0529 -0.0514
28906W        W45754  17.357   7.041  13.003  0.0259  0.0312 -0.0953
28907W        W45755   8.602   0.398  13.362 -0.0649 -0.0964 -0.0486
28908W        W45756   2.136  16.043   1.964  0.1254 -0.3863  0.1177
28909W        W45757  16.574   3.595   2.212  0.3051 -0.0039  0.2280
28910W        W45758  12.026   6.640  16.200 -0.3087 -0.1797 -0.2430
28911W        W45759  15.716  11.103  15.502 -0.0035  0.0130  0.3818
28912W        W45760  17.659  15.954   3.305  0.1316  0.2422 -0.0576
28913W        W45761   8.210   7.264  12.928  0.2202  0.2669  0.1474
28914W        W45762  14.487  10.671   1.141  0.1335 -0.2287 -0.2660
28915W        W45763   9.536  15.202  12.557  0.0082 -0.1857  0.3309
28916W        W45764  13.563   9.533  15.313 -0.0206 -0.2018 -0.0330
28917W        W45765  10.897   3.822  10.666 -0.2406  0.1144  0.0235
28918W        W45766  12.986   4.557  15.881 -0.1090 -0.0495 -0.0212
28919W        W45767  16.063   7.343  14.082 -0.0983 -0.2073  0.2715
28920W        W45768  16.824   4.857  15.057  0.1881  0.0589  0.1729
28921W        W45769  17.528   2.634   2.423 -0.0189 -0.2190  0.0129
28922W        W45770   4.039   3.842  10.269 -0.1416  0.4609  0.0980
28923W        W45771   0.576  11.564  13.580 -0.1903  0.1944 -0.0682
28924W        W45772   6.888   6.615  11.780 -0.1708  0.0158  0.1104
28925W        W45773   0.856  11.642   1.333 -0.1826  0.5100 -0.0678
28926W        W45774  11.471  15.693  12.573  0.0338  0.1766 -0.1157
28927W        W45775   2.477   9.699  11.878 -0.0247  0.1286  0.0399
28928W        W45776  11.368   3.362  12.768  0.1985  0.1089 -0.0010
28929W        W45777   7.189  13.086  14.564  0.2109  0.1927 -0.0784
28930W        W45778  16.085   9.509   2.977  0.0173 -0.0784 -0.1552
28931W        W45779   2.514   4.124   5.516  0.1075 -0.1074  0.2708
28932W        W45780  16.080   3.265   2.631  0.0034 -0.0931  0.1302
28933W        W45781   2.549   6.058   1.209 -0.0030 -0.0388  0.0695
28934W        W45782   2.705  15.741  14.827 -0.2383 -0.0857  0.0943
28935W        W45783   4.499   8.687   6.307 -0.0385 -0.0104 -0.1414
28936W        W45784  12.153  11.221   0.913 -0.0631 -0.0821 -0.0360
28937W        W45785  11.443   1.571  13.930 -0.0794  0.0644 -0.1818
28938W        W45786  14.618  16.501  16.304  0.1381 -0.0995  0.2153
28939W        W45787  12.938  15.946  16.330 -0.0121  0.2495 -0.3224
28940W        W45788  16.252  14.544  11.952 -0.1734 -0.2510  0.0686
28941W        W45789   0.527   2.794  13.252  0.3228 -0.2385  0.1999
28942W        W45790   6.436   1.990   0.913 -0.0003  0.1315 -0.1770
28943W        W45791   8.815  12.704   1.904  0.1667 -0.0425  0.1847
28944W        W45792  11.576   5.739  16.202 -0.3531 -0.1065 -0.1077
28945W        W45793  13.399   9.070   4.769  0.0193  0.1828 -0.1049
28946W        W45794   6.002  15.271  16.004 -0.0209  0.2476 -0.0623
28947W        W45795  17.356   0.484   4.538 -0.1501  0.0101 -0.0365
28948W        W45796   3.704  16.704  10.691 -0.1364  0.1118  0.3050
28949W        W45797   7.770   3.237  14.318 -0.4025  0.2012  0.0028
28950W        W45798   5.560  11.682  12.343  0.0569  0.1199  0.0898
28951W        W45799   6.276  14.752  14.253 -0.0302  0.0347  0.0864
28952W        W45800  11.962  11.913   0.638 -0.0318  0.0814 -0.1487
28953W        W45801  13.888  10.820   0.411  0.2703  0.1746 -0.1634
28954W        W45802   9.248   5.960  13.847 -0.1614  0.0164 -0.1850
28955W        W45803   5.954  12.547   5.986  0.1612  0.0457  0.1638
28956W        W45804  11.983  13.536   3.299 -0.1270 -0.1468 -0.3804
28957W        W45805   5.448  14.380   2.750  0.0371  0.0660 -0.1361
28958W        W45806   9.570  16.754  14.884  0.0285 -0.0496 -0.0737
28959W        W45807  14.682  16.762  13.351 -0.2451 -0.0035  0.1241
28960W        W45808  14.822   3.536   2.430 -0.0442 -0.3256  0.2315
28961W        W45809   0.188  14.539  14.733  0.1180  0.2329  0.2323
28962W        W45810  16.579  15.640   2.543 -0.3685 -0.1918  0.1221
28963W        W45811  12.235  10.003  13.305  0.3954 -0.0939 -0.3664
28964W        W45812  13.933  16.596  13.398  0.0989  0.1437  0.2907
28965W        W45813  15.564  17.434   4.544 -0.2006  0.0404  0.0532
28966W        W45814  16.013   5.698  15.334  0.2172  0.2851 -0.1932
28967W        W45815  12.799   5.208   2.843  0.2727 -0.0548 -0.0218
28968W        W45816  10.869   2.919  16.316  0.0693 -0.0320 -0.0008
28969W        W45817  13.913  10.123   1.845 -0.1089 -0.0555  0.3381
28970W        W45818   6.890   2.415   4.771  0.0747 -0.0058  0.0323
28971W        W45819  10.368   8.912   4.741 -0.1003  0.3650  0.1160
28972W        W45820  15.839   5.087  12.531  0.1891  0.1763 -0.0032
28973W        W45821   2.628  11.148  14.046 -0.3654  0.1655 -0.1500
28974W        W45822   6.036  15.495   1.887  0.1437 -0.0787  0.3076
28975W        W45823  14.362   6.595  12.304  0.2610 -0.2236  0.0533
28976W        W45824   9.717   0.088   0.859 -0.4014  0.0789  0.3980
28977W        W45825  15.184   3.412   3.909  0.2313  0.1565  0.0189
28978W        W45826   7.836   7.933   1.241 -0.1733  0.1224 -0.0379
28979W        W45827  10.616   2.809  13.708 -0.0988  0.0285  0.0046
28980W        W45828  15.748  10.312  12.920 -0.2782  0.0232  0.1862
28981W        W45829   9.092  16.192  11.700 -0.1351  0.1949  0.0771
28982W        W45830  14.921   7.241  11.416 -0.1433 -0.1573 -0.3071
28983W        W45831   1.115  10.032  16.267 -0.4319 -0.0248 -0.1983
28984W        W45832   9.829   8.427  11.566  0.0049 -0.3147 -0.0500
28985W        W45833  15.225   8.795  12.247  0.1754  0.1554 -0.1053
28986W        W45834  15.028   1.058  12.132 -0.1373 -0.2020 -0.1241
28987W        W45835   3.963   5.161  13.365  0.1210  0.0051 -0.5447
28988W        W45836   8.086   2.984   2.290  0.1024  0.0151  0.0771
28989W        W45837  15.811  14.654  12.213 -0.8805  0.1342  0.3383
28990W        W45838  11.455   9.097  15.976 -0.3695  0.0722 -0.3045
28991W        W45839   2.597   2.709  15.638 -0.0922 -0.2884  0.0876
28992W        W45840   7.741   6.232  12.125 -0.3192 -0.0481 -0.3060
28993W        W45841  16.429  17.647  11.439 -0.0382 -0.0851  0.0570
28994W        W45842  17.138  16.514  12.465  0.2490 -0.1043 -0.3065
28995W        W45843   3.249   2.800  11.624  0.0983  0.3091 -0.3254
28996W        W45844  12.995  12.068  11.974  0.2101 -0.2527 -0.2014
28997W        W45845   8.874   2.888   2.329  0.2952  0.0892 -0.1189
28998W        W45846   4.948   4.546   0.360  0.2752  0.1368  0.5293
28999W        W45847   0.976  16.707  16.048 -0.4095 -0.0331 -0.1683
29000W        W45848   5.005   1.261   1.812  0.1500 -0.0812 -0.0201
29001W        W45849   1.170   0.238  11.455  0.0015 -0.0645  0.0429
29002W        W45850  14.821  14.448  13.675 -0.0365 -0.0123 -0.1829
29003W        W45851   9.041  11.462   0.231 -0.3074  0.0104  0.3114
29004W        W45852  14.513   6.061   0.051  0.2695 -0.0257  0.0685
29005W        W45853   5.236  13.120  13.945  0.0233 -0.1660 -0.1721
29006W        W45854   2.559   6.619   3.169 -0.2005 -0.1064  0.0436
29007W        W45855  15.297   1.492  16.020 -0.0374 -0.1340 -0.0836
29008W        W45856  14.965   4.839  16.405  0.0138 -0.1624  0.0183
29009W        W45857   7.766  11.577   1.405 -0.4865  0.0213  0.2512
29010W        W45858   2.634   4.417  12.553  0.1666 -0.2316  0.1653
29011W        W45859  17.675  17.299   1.482 -0.0145  0.1596  0.0340
29012W        W45860  13.817  16.660  11.438 -0.2605 -0.4094  0.1441
29013W        W45861   4.723   4.375   4.102  0.3039 -0.0284  0.2291
29014W        W45862   9.751   4.435   1.970 -0.1583 -0.0490  0.0120
29015W        W45863   2.368   4.965   5.085 -0.1694  0.1357 -0.0305
29016W        W45864  12.700   1.482   5.399 -0.0612  0.2851 -0.3368
29017W        W45865   5.691   4.723  12.187 -0.1381 -0.0047 -0.1239
29018W        W45866   0.276  10.168   5.742 -0.0001 -0.2498 -0.0847
29019W        W45867  13.475  10.993   2.290 -0.1521  0.2238 -0.1097
29020W        W45868  11.450   0.036   3.496  0.0143  0.0434  0.1622
29021W        W45869   9.537  16.183   0.626 -0.1352 -0.0044 -0.0331
29022W        W45870  13.171   2.710  11.793  0.4644 -0.2594 -0.1641
29023W        W45871  12.536  10.445   2.997  0.0819 -0.0301 -0.1077
29024W        W45872   1.814   6.916  12.060  0.0125  0.1067  0.2992
29025W        W45873   7.629   5.665   3.883  0.1122  0.2817  0.2289
29026W        W45874   7.762  12.991   3.042  0.4401  0.3225 -0.4109
29027W        W45875  12.864  16.138   5.670  0.1087 -0.0351  0.0230
29028W        W45876   3.863  14.985   2.021 -0.0666 -0.2400 -0.3499
29029W        W45877   5.468  10.514   1.730  0.1891  0.1289 -0.1518
29030W        W45878  16.666   2.388   4.300  0.2184 -0.1509 -0.3408
29031W        W45879   3.168   3.200   1.600  0.0373  0.0628 -0.2795
29032W        W45880   1.865  15.686  11.522  0.2041 -0.0887 -0.0113
29033W        W45881   6.470   2.124  16.107  0.0435 -0.3395  0.0175
29034W        W45882  14.734   9.564  13.992  0.0801  0.1793  0.1091
29035W        W45883  16.988   9.279   2.904 -0.0065  0.2335 -0.0731
29036W        W45884  16.988   7.706  12.874  0.1764 -0.1707 -0.3164
29037W        W45885  12.119   1.925   4.976 -0.4525  0.2026 -0.0460
29038W        W45886   3.387  16.990   3.698  0.1342 -0.3258  0.1219
29039W        W45887   0.811  16.075   3.323  0.0369  0.1402  0.1178
29040W        W45888  17.452  12.651  11.441  0.2944 -0.2410  0.1729
29041W        W45889   5.827  13.726   5.012 -0.0900 -0.0468  0.1182
29042W        W45890   5.964   1.772   0.744 -0.0837 -0.3616  0.1191
29043W        W45891   5.632   2.114  16.243  0.0317 -0.0816 -0.2453
29044W        W45892   9.213   6.837  11.673 -0.0673  0.1899  0.1510
29045W        W45893  16.212  15.800   2.187 -0.0556 -0.1154 -0.3245
29046W        W45894  14.609  14.593   2.250  0.0582  0.1482  0.0920
29047W        W45895   0.287   3.676   0.791  0.0039  0.0385  0.0462
29048W        W45896   5.240  17.554  11.509  0.2992  0.2167  0.0298
29049W        W45897  13.807  15.382   4.583  0.2564 -0.2202  0.0191
29050W        W45898   8.939   1.340   5.448  0.0710  0.0125  0.1207
29051W        W45899   6.716  15.525   4.334  0.0927 -0.0580  0.1548
29052W        W45900  15.802  14.776   4.376  0.0712  0.0975 -0.0833
29053W        W45901  16.945   8.549  12.149 -0.3613 -0.0646  0.1642
29054W        W45902  10.815   0.169   1.140 -0.3922 -0.1905  0.0149
29055W        W45903   6.095   8.932  14.002 -0.0321 -0.2124 -0.0792
29056W        W45904   3.824  10.403   2.177 -0.1000  0.3400 -0.1197
29057W        W45905   8.808   1.226   4.783  0.0408  0.0131  0.0767
29058W        W45906  13.718   7.989   2.695 -0.3335  0.3112 -0.2998
29059W        W45907   0.277  16.213  12.376  0.4687  0.1630 -0.0480
29060W        W45908   3.524   8.192  15.633  0.0468  0.0931 -0.0828
29061W        W45909   8.154  10.868   1.244 -0.1512  0.1290  0.5134
29062W        W45910   9.818  10.490  15.128  0.0124 -0.0299  0.0384
29063W        W45911  13.350  13.858   0.218  0.0758  0.1444 -0.0298
29064W        W45912  13.015   6.729  12.680  0.2189  0.1393 -0.1442
29065W        W45913   9.249   7.817   3.354 -0.2639  0.4216 -0.1649
29066W        W45914  10.331  14.748  11.963  0.0322 -0.1133  0.0649
29067W        W45915   8.779  15.584  15.208  0.2396  0.0918  0.1245
29068W        W45916  14.837  11.665  12.139 -0.1171 -0.0343 -0.1723
29069W        W45917  12.480  12.281   5.585  0.0737 -0.1419 -0.1234
29070W        W45918  13.656   3.580   4.966 -0.4396 -0.0177 -0.1134
29071W        W45919  10.331   4.385  13.440 -0.0449 -0.0141  0.0344
29072W        W45920   6.738  13.860   4.527 -0.0428  0.0746  0.1131
29073W        W45921   6.566  11.911  11.901 -0.2050 -0.0743  0.1534
29074W        W45922  11.043   1.920  13.825 -0.0703  0.3333 -0.2172
29075W        W45923   1.570   7.351   4.144 -0.1216  0.0632 -0.0552
29076W        W45924   9.051  16.439   2.610 -0.0832 -0.0637 -0.0514
29077W        W45925  10.491   1.591   2.397  0.0516 -0.1119 -0.0357
29078W        W45926  14.113  11.658  15.420  0.1030  0.1723 -0.2049
29079W        W45927   2.405   2.602   4.349  0.2180 -0.1343  0.4346
29080W        W45928   5.272  14.101  13.750 -0.1449  0.2164  0.0692
29081W        W45929  15.861  15.516  11.004  0.1689 -0.1829 -0.0126
29082W        W45930   0.620   1.463   4.288 -0.2715  0.1892 -0.1503
29083W        W45931  17.093   0.180   3.775 -0.1361  0.2057 -0.1205
29084W        W45932   6.921   2.440  16.317 -0.0908  0.1225 -0.2247
29085W        W45933  17.413  15.764  14.944 -0.0100 -0.0011  0.0030
29086W        W45934   6.298   5.417   4.686 -0.1408 -0.0129  0.1152
29087W        W45935  14.198  10.767  13.442 -0.1386 -0.2729  0.2244
29088W        W45936  15.499  13.075   4.111  0.0175  0.0821 -0.2256
29089W        W45937   6.315  17.572  11.183 -0.2348  0.0215  0.0605
29090W        W45938  15.332   9.659   1.847 -0.0216  0.1911 -0.0480
29091W        W45939  10.904   6.728  13.863 -0.3423 -0.2409 -0.0935
29092W        W45940   5.856   9.664   1.767 -0.1973 -0.0716 -0.0802
29093W        W45941  15.940   6.991  13.752  0.2410 -0.1079  0.1663
29094W        W45942   1.449   8.684   2.813  0.1862  0.1248 -0.2254
29095W        W45943   3.423   8.881   0.870 -0.0043  0.0401  0.2791
29096W        W45944   2.187   2.291   3.585  0.0564  0.1437  0.1082
29097W        W45945  12.806   7.750   2.711 -0.1758 -0.1033 -0.1349
29098W        W45946  15.330   0.221  13.063 -0.0938 -0.1177  0.1755
29099W        W45947   8.928  17.467  15.983 -0.1353  0.2211  0.2582
29100W        W45948  14.331   7.970  14.692 -0.3892 -0.1587 -0.1151
29101W        W45949  10.666   0.721  15.357  0.1524 -0.1134  0.1577
29102W        W45950  16.212   0.251  12.678 -0.1367 -0.0470  0.1046
29103W        W45951   2.100  17.585  15.933  0.0526  0.1177 -0.0282
29104W        W45952  11.839  11.196   4.841 -0.0551  0.1161  0.1760
29105W        W45953   0.629   7.288   5.194  0.2050  0.2356  0.0938
29106W        W45954  12.922   5.357  11.826  0.1766 -0.0653  0.1700
29107W        W45955   9.945   4.623  16.250  0.0728  0.3119  0.1752
29108W        W45956   0.992  15.619   0.629  0.2648 -0.0455 -0.1423
29109W        W45957  12.874  10.999   1.036 -0.2194  0.3909  0.0600
29110W        W45958   6.396  13.557   1.080  0.0531 -0.0525  0.0479
29111W        W45959   9.087   3.997   1.250  0.0469 -0.3412 -0.1253
29112W        W45960   3.931  12.875  13.771  0.0285 -0.3846  0.2674
29113W        W45961   3.597  17.004   1.026 -0.3658 -0.1062  0.1643
29114W        W45962   5.185  15.984  10.530  0.0273  0.0540 -0.0271
29115W        W45963  11.377   1.259   5.775  0.0161  0.0877  0.1154
29116W        W45964  11.393  16.026  11.911  0.1726 -0.1371 -0.2804
29117W        W45965  17.002   1.474   5.785  0.0297 -0.0935  0.2011
29118W        W45966  13.415  11.851   4.689 -0.1559 -0.2526  0.1304
29119W        W45967   7.223  10.609  16.246 -0.0962  0.2121 -0.0437
29120W        W45968  11.461  17.234  11.627 -0.0406  0.0430  0.1057
29121W        W45969   5.711  11.394  13.149  0.0011  0.1745  0.3695
29122W        W45970  14.645  17.265   0.225 -0.3064 -0.0051 -0.0304
29123W        W45971  10.660   6.356  15.094  0.1183  0.2300  0.0710
29124W        W45972   3.634  16.450   1.178  0.1074  0.0358  0.0419
29125W        W45973   7.059  11.198  13.942 -0.0832 -0.1761 -0.2356
29126W        W45974  14.998   2.015   3.572  0.0838  0.0717  0.0173
29127W        W45975  14.988   4.385   4.405 -0.2187 -0.0685 -0.1375
29128W        W45976  17.121  14.884  14.246  0.0996 -0.1393  0.4143
29129W        W45977   0.824   3.664  12.197 -0.1042  0.1391  0.1659
29130W        W45978   5.863   1.790  14.004  0.3288  0.3384 -0.0030
29131W        W45979   8.976  17.589   2.989 -0.2057 -0.3459  0.1127
29132W        W45980  11.253   7.177   5.539 -0.1758 -0.1403 -0.2806
29133W        W45981  11.919   6.813   4.652 -0.1352 -0.1013 -0.1582
29134W        W45982  12.647  16.758  13.011  0.2236  0.1439  0.0544
29135W        W45983  17.355   8.600   2.375  0.1016  0.0637 -0.0749
29136W        W45984  15.448  14.805   1.678  0.0473 -0.2028 -0.0926
29137W        W45985   0.259  14.895   3.248 -0.2032  0.0646  0.0392
29138W        W45986   3.081   2.729  15.775  0.0479  0.1837  0.1921
29139W        W45987   4.491   4.724   3.286 -0.0612  0.2029 -0.1834
29140W        W45988  11.315   6.613   5.491  0.0266  0.2989 -0.3228
29141W        W45989   8.431   9.720   0.595 -0.2780 -0.1231 -0.1045
29142W        W45990   1.798  14.759  13.692  0.1212  0.0438 -0.0873
29143W        W45991   8.628   0.905  13.828  0.1156 -0.2161  0.0196
29144W        W45992   6.200   9.873  11.411 -0.1374 -0.1880 -0.1150
29145W        W45993  13.007  13.413   1.267 -0.1063 -0.1215 -0.1682
29146W        W45994   4.756   9.118  13.939 -0.1210 -0.0464 -0.1917
29147W        W45995  15.791  14.021  10.770  0.0291  0.0111 -0.0501
29148W        W45996   6.238   3.399   3.544  0.1414 -0.0022  0.3088
29149W        W45997  12.604   1.925   1.536 -0.0260 -0.1317  0.1479
29150W        W45998   9.913  10.246  12.144 -0.0658 -0.1521  0.0661
29151W        W45999   6.230  17.465  11.811 -0.3090  0.2038  0.0247
29152W        W46000   1.391   5.837  12.493 -0.4088  0.1429 -0.0750
29153W        W46001   8.520  17.761   2.697 -0.0532 -0.0798  0.2624
29154W        W46002   3.427   8.799   3.027  0.2231  0.1942  0.2360
29155W        W46003  11.548   5.270  16.343 -0.0138 -0.3494  0.2369
29156W        W46004  14.351  11.545   1.463  0.0877 -0.0425 -0.0108
29157W        W46005   8.148  10.282   1.282 -0.1018 -0.3421 -0.0054
29158W        W46006   1.736  17.038  12.743  0.1321 -0.0630 -0.0881
29159W        W46007  15.069  17.165  11.180 -0.3105 -0.0081 -0.2870
29160W        W46008   0.538   9.933   2.902  0.2030 -0.3432 -0.1963
29161W        W46009   6.006   3.315  12.234 -0.0570 -0.3560 -0.1840
29162W        W46010   1.771   1.203   1.374  0.4175 -0.3054 -0.1676
29163W        W46011   0.341   4.596   1.640 -0.3182 -0.1305 -0.0159
29164W        W46012  13.030   6.638   4.203 -0.4969 -0.0068  0.3914
29165W        W46013  16.524   3.957   1.232 -0.3365  0.1549  0.1376
29166W        W46014   4.764  15.464   1.658 -0.0139 -0.0708 -0.3168
29167W        W46015   1.581  12.828  12.272  0.3647 -0.1327  0.2545
29168W        W46016   8.388  13.921   4.855  0.4858  0.0378  0.1028
29169W        W46017  12.216  13.514  15.161 -0.0994  0.0822  0.0947
29170W        W46018   6.954  15.985  11.791  0.1391 -0.0159 -0.1447
29171W        W46019   5.168   5.111  13.936  0.1672  0.0242 -0.0404
29172W        W46020   6.802  10.100   5.746  0.0489 -0.2341  0.1910
29173W        W46021   3.748  15.119  16.088 -0.0856 -0.1357 -0.4094
29174W        W46022   9.494   6.895  12.476 -0.3669  0.0498 -0.1426
29175W        W46023   4.100   4.024   0.568 -0.1226  0.1054  0.0119
29176W        W46024   5.884   8.288   3.499 -0.1234  0.0373 -0.0813
29177W        W46025   4.211   7.800  13.666 -0.0416  0.0869 -0.2513
29178W        W46026   7.715   0.645   0.642 -0.1070  0.2513 -0.1567
29179W        W46027  16.202  15.611   4.211  0.0655 -0.0467  0.1677
29180W        W46028   7.318   5.782  15.877 -0.2065  0.1744 -0.1460
29181W        W46029   3.644   7.865  11.611  0.0729  0.1006 -0.0198
29182W        W46030   4.411  12.466   4.624  0.2693  0.0480  0.1920
29183W        W46031   0.807  16.577   4.224  0.0127 -0.0827  0.2293
29184W        W46032  12.967   7.860  11.525  0.1187 -0.1598  0.3507
29185W        W46033  16.568   9.323   4.952  0.1931  0.0598  0.0598
29186W        W46034  10.707  17.189   0.870 -0.1551  0.2459 -0.3480
29187W        W46035   1.303   9.671   4.816  0.0133  0.3473  0.1045
29188W        W46036   3.903   7.055   4.517 -0.2651  0.1258 -0.2433
29189W        W46037   1.289  12.476  12.499  0.0948 -0.0010 -0.2308
29190W        W46038  12.691   1.452  13.000  0.3755 -0.2749  0.4008
29191W        W46039  10.453   7.556  11.398 -0.0307 -0.0261  0.0723
29192W        W46040   2.845   3.696   2.952  0.1788 -0.2058  0.0793
29193W        W46041   0.595  12.679   5.852 -0.1184 -0.1230 -0.2574
29194W        W46042   6.733  17.653  13.458 -0.1520  0.2328  0.0916
29195W        W46043   3.821   0.204   1.316  0.0285 -0.1213 -0.2130
29196W        W46044  14.271   4.342  15.332  0.0197 -0.0361 -0.1427
29197W        W46045   8.702  12.158   3.487  0.0683 -0.0840  0.2738
29198W        W46046  12.226   5.873  12.859  0.3685 -0.2290  0.0628
29199W        W46047  15.673  14.256   3.215  0.2997  0.1240  0.3806
29200W        W46048  13.964  14.085   4.433 -0.1521  0.1512 -0.0815
29201W        W46049  15.019  12.782  16.307  0.1272 -0.2902  0.0051
29202W        W46050   2.123  13.968   1.014 -0.0114  0.0673  0.0239
29203W        W46051   0.690   8.183  14.712  0.1128  0.1143 -0.0251
29204W        W46052   8.079   2.393  12.805  0.1096  0.1137 -0.0042
29205W        W46053  14.557   4.282  14.465 -0.2704  0.0976 -0.0200
29206W        W46054   1.961   2.813  14.083  0.2882  0.0504  0.3957
29207W        W46055   0.932   3.812   4.287 -0.1399  0.1886  0.2206
29208W        W46056  16.343  13.134   0.865 -0.2352 -0.0853 -0.0452
29209W        W46057   8.542  11.181   1.175  0.1614 -0.0401  0.0401
29210W        W46058   9.364   9.093   2.039 -0.1704 -0.4722  0.0704
29211W        W46059   2.295   9.519  15.146 -0.1447  0.2996  0.2598
29212W        W46060   3.779   6.736   3.625  0.1223 -0.3227 -0.0310
29213W        W46061  14.091   7.802   3.127  0.0333 -0.1819 -0.1432
29214W        W46062  10.481  11.632  15.919  0.0411  0.0771 -0.3191
29215W        W46063  12.227   7.850  10.995 -0.4420 -0.3830  0.1734
29216W        W46064   7.034  15.534  10.570 -0.2226  0.2604  0.1512
29217W        W46065  12.404   0.639   1.815 -0.0836 -0.0940  0.0321
29218W        W46066  13.929  13.906   0.976  0.1028  0.0289  0.3148
29219W        W46067   6.010  14.870   3.287 -0.2262  0.2200 -0.0051
29220W        W46068   5.972  17.587   3.787 -0.0331 -0.1580  0.1001
29221W        W46069  11.895   9.275  16.213  0.1247 -0.0559  0.2522
29222W        W46070   1.746  12.652   3.922 -0.0893 -0.6771  0.1904
29223W        W46071   8.850   4.613   5.060  0.1513 -0.0762  0.3358
29224W        W46072  13.616   3.895   1.571 -0.0183 -0.1556  0.0704
29225W        W46073   6.943  16.384  13.780  0.2006 -0.1151  0.1073
29226W        W46074   4.931   8.037   0.885 -0.2347 -0.1836 -0.0869
29227W        W46075  13.545   9.613  11.428 -0.1782 -0.0624  0.1480
29228W        W46076   4.230   2.455   3.037  0.0395  0.1475  0.1102
29229W        W46077  11.272   9.450   1.308 -0.4077 -0.0456 -0.1544
29230W        W46078  14.885   4.631   1.713  0.0946 -0.0852 -0.1757
29231W        W46079   5.166  10.391   3.514  0.2342  0.0039  0.0855
29232W        W46080   0.756  11.684  14.667 -0.1194 -0.0270 -0.1411
29233W        W46081   0.951   4.086  12.586  0.0464  0.1828 -0.0710
29234W        W46082   8.707  11.473   2.823  0.1090  0.1619  0.0844
29235W        W46083   1.764  17.254   4.592 -0.1870  0.0009 -0.2794
29236W        W46084  17.664   8.224  15.321 -0.2687  0.1914  0.3880
29237W        W46085   9.785  10.415   0.586 -0.1616 -0.0233 -0.0793
29238W        W46086   8.488   6.717  13.681  0.0386  0.2071 -0.2129
29239W        W46087   0.657   7.503   3.608  0.0805 -0.1612 -0.2167
29240W        W46088   8.392   2.432   0.325 -0.1005 -0.1326 -0.1851
29241W        W46089   8.024   3.251   4.040  0.1375  0.1929  0.2200
29242W        W46090   3.746   2.954  13.162  0.0273  0.0990  0.0448
29243W        W46091   1.783   9.846  12.003  0.1064  0.1296  0.0761
29244W        W46092  10.671   0.732   0.028 -0.2390 -0.0463  0.0897
29245W        W46093  12.405  11.284  14.248 -0.0822  0.2358 -0.0486
29246W        W46094  11.218  15.268  11.253 -0.0906 -0.2879 -0.0261
29247W        W46095  15.232   4.846  12.917  0.0593 -0.1582  0.3442
29248W        W46096   0.290   8.116   4.647 -0.0259  0.1050 -0.0687
29249W        W46097  12.708  13.246  15.059 -0.2314  0.2066  0.0358
29250W        W46098  11.180   6.912  14.753 -0.0393 -0.0194  0.2003
29251W        W46099   6.606   5.398  12.171 -0.2507  0.1603  0.1118
29252W        W46100  16.621  14.708  14.943 -0.3734 -0.0971 -0.0989
29253W        W46101  16.209   2.845  13.112 -0.0899 -0.0358  0.1315
29254W        W46102   9.184   7.324  15.280 -0.3829  0.0266  0.1732
29255W        W46103   4.600   1.573   3.684 -0.2371  0.0021 -0.0861
29256W        W46104   1.224   6.992  16.443 -0.0209 -0.1112 -0.0115
29257W        W46105  10.725   3.013   4.895 -0.0303 -0.1683 -0.1608
29258W        W46106  12.121   4.776  13.375  0.0107 -0.0310  0.0130
29259W        W46107  12.333   8.417  14.189  0.2019  0.5121  0.3115
29260W        W46108  13.868   6.760   2.304 -0.0031 -0.1728 -0.0581
29261W        W46109   1.165  12.802  13.285  0.1899 -0.0905 -0.1114
29262W        W46110   5.012   0.741   1.681 -0.0329  0.3461 -0.0867
29263W        W46111  10.719  12.008   1.544  0.1461  0.1520 -0.0550
29264W        W46112   9.976   3.281  12.095 -0.1229  0.1858 -0.1152
29265W        W46113   7.616  15.170  13.659  0.0629  0.0671  0.1607
29266W        W46114  17.749  17.682   0.458 -0.3562 -0.1058 -0.1914
29267W        W46115  15.140   7.829  15.240  0.3049  0.1555  0.0151
29268W        W46116  11.868   1.252  14.019  0.0112  0.1654 -0.1594
29269W        W46117  15.239   5.370  15.166 -0.4276  0.0324 -0.0804
29270W        W46118   9.723   6.601   1.981  0.3048  0.2474  0.1918
29271W        W46119   9.714   9.621  13.811  0.0582  0.3822  0.0223
29272W        W46120  13.928   4.091  12.431 -0.2118 -0.0635  0.0978
29273W        W46121   1.203   9.832   0.680  0.2112  0.4680  0.1561
29274W        W46122   8.135   9.043   2.651  0.0020  0.0915  0.1467
29275W        W46123   5.470  15.185  12.856 -0.0328  0.2779  0.0960
29276W        W46124   8.491   3.971   0.450  0.2197 -0.0232  0.0373
29277W        W46125  12.669   1.890   0.513 -0.1917 -0.0064  0.2526
29278W        W46126   0.655   3.461   4.515  0.1429  0.0205  0.0462
29279W        W46127  11.251  10.113   2.449  0.1534  0.3784  0.3044
29280W        W46128   4.376  15.089  14.781 -0.0131  0.0272  0.0208
29281W        W46129  10.213  10.247  16.154  0.1054 -0.0482 -0.1543
29282W        W46130  16.224  13.165  10.944  0.1177  0.2380 -0.3746
29283W        W46131  14.093   6.787  14.881 -0.0195 -0.0176 -0.0130
29284W        W46132  13.400  13.538   1.687  0.0258 -0.3860 -0.0518
29285W        W46133   4.098   4.677   0.329 -0.2848 -0.2147 -0.1366
29286W        W46134   8.798   6.466   3.507  0.1795 -0.0997  0.1608
29287W        W46135   8.826   7.212  11.131  0.3478  0.0725 -0.1638
29288W        W46136  12.864  14.843   4.021 -0.1436  0.1739 -0.1289
29289W        W46137   7.176   8.619  11.668 -0.0229 -0.0554 -0.0818
29290W        W46138  14.392  16.401  13.673  0.1223  0.0435  0.2276
29291W        W46139  16.043   9.928  16.190  0.1023 -0.1335  0.2426
29292W        W46140   1.261  12.798   2.750 -0.2175  0.0920 -0.1107
29293W        W46141  15.952  11.612   0.153 -0.0978 -0.0218 -0.2828
29294W        W46142   6.486   1.509   1.049 -0.2271 -0.0845 -0.2705
29295W        W46143   9.051   6.543   2.659 -0.0414  0.0690 -0.2154
29296W        W46144  14.292  16.618  12.590  0.0635 -0.0156 -0.0924
29297W        W46145  13.093   9.015  14.285 -0.1239  0.2381  0.0761
29298W        W46146  11.531  13.238   1.656 -0.0767 -0.2675 -0.1978
29299W        W46147   4.135  15.906  15.836  0.1402  0.2017  0.1548
29300W        W46148   8.964   3.256  15.423  0.3408 -0.2871 -0.0845
29301W        W46149   6.483   3.309  11.847  0.1545  0.1902 -0.3757
29302W        W46150  17.808  15.536   3.563  0.3895  0.1792  0.0540
29303W        W46151   9.042   9.442   5.825  0.0854  0.0686 -0.1944
29304W        W46152   5.671   7.529  16.108  0.2604 -0.0078  0.1520
29305W        W46153   1.076   0.075  13.023 -0.3639 -0.0535 -0.1216
29306W        W46154  12.217   9.002   3.978 -0.0422  0.2962 -0.1669
29307W        W46155  16.528   5.581   3.310  0.0435 -0.2074  0.0877
29308W        W46156  13.378   6.315   4.551  0.0010 -0.0408  0.1204
29309W        W46157   4.120   3.018  13.541 -0.1216 -0.4394 -0.0379
29310W        W46158  11.823  14.768  14.515 -0.0643  0.1995 -0.1214
29311W        W46159   2.383   4.390  15.935 -0.0483  0.0131  0.2407
29312W        W46160   9.324  17.556   1.694  0.1020  0.2700  0.0115
29313W        W46161  10.594  13.764   4.432 -0.0149 -0.2792  0.0140
29314W        W46162   6.648  10.166  12.116  0.0808  0.1542 -0.3671
29315W        W46163   0.280   9.925  13.118 -0.1078 -0.0537 -0.1745
29316W        W46164  11.746  14.851  13.246  0.2125 -0.2173 -0.2036
29317W        W46165  11.134   6.608   1.277  0.1285  0.0714 -0.2513
29318W        W46166   5.233   3.556  12.864  0.0839 -0.1941 -0.0286
29319W        W46167  15.748   9.194   2.798  0.1708  0.2258 -0.0026
29320W        W46168   3.008   6.048  11.124 -0.0970  0.1014  0.4127
29321W        W46169  12.563  14.228   0.822 -0.1491  0.2729  0.1049
29322W        W46170   7.595   5.325   4.219 -0.0787  0.1779 -0.1551
29323W        W46171   6.385  10.099  13.442  0.2188  0.0419  0.0318
29324W        W46172  12.034  10.752  16.410  0.2590  0.2914 -0.1905
29325W        W46173  14.566   9.671  16.049  0.2959  0.0004  0.2492
29326W        W46174   0.201   4.084   3.990  0.2660 -0.0510  0.0395
29327W        W46175   3.634   6.913   4.905 -0.0010  0.0717 -0.2459
29328W        W46176  10.820  17.056   2.305 -0.1212  0.1242 -0.1535
29329W        W46177  15.025  13.381  15.372 -0.2901  0.1161  0.0990
29330W        W46178  10.748  14.312  14.551  0.0361 -0.1701 -0.1183
29331W        W46179  14.914  15.369   1.010  0.0593 -0.0148  0.2766
29332W        W46180  14.210   0.264  12.357 -0.0109  0.0432  0.1671
29333W        W46181   5.846  12.306  11.625  0.2947  0.1912  0.0740
29334W        W46182   1.403  16.125   5.058  0.0695 -0.2311  0.4062
29335W        W46183  17.285   9.442   1.525 -0.1718 -0.1453 -0.1360
29336W        W46184  11.124  12.469   2.916 -0.1341  0.0832 -0.0948
29337W        W46185   3.683   6.019  14.354 -0.0679 -0.1548 -0.0881
29338W        W46186   4.239   6.269   4.800 -0.1035  0.1426  0.1596
29339W        W46187  14.406  13.111   4.725  0.0192  0.0191 -0.0493
29340W        W46188   9.140   5.856  12.322  0.3655  0.1297 -0.0940
29341W        W46189   7.597  10.762  14.485  0.1133  0.1863  0.0598
29342W        W46190   5.905  15.317   0.735 -0.1599 -0.1127  0.1724
29343W        W46191   2.215   1.603  12.689  0.3514  0.0158 -0.1465
29344W        W46192   5.880  11.615   3.534 -0.0588 -0.1515 -0.2510
29345W        W46193   9.532  14.939  13.337 -0.2108 -0.0836  0.1085
29346W        W46194   6.764  11.523   3.939 -0.0635  0.2376  0.1937
29347W        W46195   3.906   5.203  14.178 -0.0758  0.0683  0.1334
29348W        W46196   2.856   8.096   4.298 -0.2708 -0.0437 -0.4570
29349W        W46197   2.414   8.397   0.644 -0.0091 -0.2195  0.3346
29350W        W46198   0.299  12.657   2.790  0.0134  0.0418  0.0686
29351W        W46199   0.100   8.835   2.000  0.2714 -0.1938 -0.1214
29352W        W46200   6.989   0.389   1.681 -0.1687 -0.0503 -0.2530
29353W        W46201   9.986  11.949   4.049 -0.3187  0.1266 -0.0228
29354W        W46202  11.682   5.024   4.666 -0.1746  0.2927 -0.1106
29355W        W46203   1.181   5.695  12.095 -0.2455  0.1281 -0.3813
29356W        W46204   7.707  11.966  12.509 -0.1928  0.1312  0.4535
29357W        W46205   9.198   0.190   3.013 -0.3192 -0.0599  0.1231
29358W        W46206   7.213  12.312   2.248  0.1557 -0.0425 -0.1289
29359W        W46207   3.477   5.620   2.375  0.0196  0.0611 -0.1003
29360W        W46208   5.827   8.695  12.415  0.2904 -0.0953  0.1492
29361W        W46209  14.917  16.202   2.483 -0.0366 -0.0821  0.2334
29362W        W46210   0.628  11.526  14.037 -0.0570 -0.0248 -0.0562
29363W        W46211   4.153   6.419  12.485 -0.0562  0.2831 -0.0185
29364W        W46212   4.912   0.405   0.428 -0.1225  0.0701 -0.4264
29365W        W46213   4.503   4.952  13.365 -0.3318  0.0373  0.1525
29366W        W46214   3.224   3.587   3.756 -0.0289  0.3397  0.2098
29367W        W46215   0.771   4.351   0.806 -0.1445 -0.2387 -0.0702
29368W        W46216  12.123   6.722   2.917 -0.0296  0.0144 -0.0211
29369W        W46217   2.203  10.009  15.293 -0.2580 -0.1406 -0.2864
29370W        W46218   4.693   0.665  11.718 -0.0691  0.1623  0.3585
29371W        W46219  15.475   9.038  15.248  0.0497  0.1728  0.1792
29372W        W46220  15.601   8.041  15.194  0.0210 -0.0972  0.3520
29373W        W46221   8.312   6.308  11.949 -0.1338 -0.1444  0.2221
29374W        W46222   4.451  14.331  15.431 -0.0431  0.0486  0.0521
29375W        W46223   2.282   9.211   4.932 -0.1716 -0.2186  0.0731
29376W        W46224  15.060  13.960  13.743 -0.1684  0.2574 -0.1148
29377W        W46225  11.987   7.135  16.321  0.0182  0.1218  0.1472
29378W        W46226  10.513   0.552   4.833  0.0827  0.2070  0.2360
29379W        W46227  16.269   5.784   2.757 -0.2042  0.0138  0.1640
29380W        W46228  14.138   4.562   0.533  0.1963  0.4396  0.2035
29381W        W46229  12.651  15.714   0.317 -0.5359  0.0499 -0.1394
29382W        W46230  11.134  15.541  15.111  0.0299  0.1244 -0.1215
29383W        W46231   8.088   2.948  11.681 -0.0973  0.4761 -0.0471
29384W        W46232   0.937   1.451  15.868 -0.1870  0.1344 -0.1224
29385W        W46233  11.638   8.141  11.826 -0.2833 -0.0866  0.2831
29386W        W46234  14.325   4.165  10.923 -0.1548 -0.0087 -0.0700
29387W        W46235  10.874   4.423  11.887 -0.1704  0.0919  0.0347
29388W        W46236  17.674   3.375   0.749  0.2394 -0.3001  0.2288
29389W        W46237   6.528  16.389  12.047  0.0545 -0.1553  0.0877
29390W        W46238  15.259   4.325  12.849  0.3739 -0.1745 -0.1063
29391W        W46239  15.143  12.528   2.024 -0.0706  0.3192 -0.1581
29392W        W46240  12.931   2.287   2.456 -0.2982 -0.0300 -0.2095
29393W        W46241   2.415  16.265  15.922  0.2531 -0.0039 -0.2905
29394W        W46242   9.151  16.030  16.067 -0.1108 -0.0631  0.1807
29395W        W46243  16.784  16.338  12.094 -0.0018 -0.2617 -0.1277
29396W        W46244  11.342   1.491   4.729 -0.2571  0.4525 -0.1127
29397W        W46245   2.930  14.020   1.503 -0.2051  0.0310 -0.0734
29398W        W46246  17.294   7.634   4.980  0.3605 -0.3104 -0.1969
29399W        W46247  12.107  13.969  12.923  0.0363 -0.2586 -0.2549
29400W        W46248  16.063   8.605  16.383  0.1599 -0.1043  0.0683
29401W        W46249   0.765  12.534  13.150 -0.0584  0.1422  0.0154
29402W        W46250  13.834   1.866  13.116 -0.1590 -0.1454  0.1392
29403W        W46251   6.810  11.246  15.292  0.2997 -0.0899  0.0015
29404W        W46252   0.154  13.765   2.995  0.2854 -0.2562  0.0676
29405W        W46253   6.204   3.522  12.717 -0.0708 -0.0504  0.1029
29406W        W46254   1.976   5.532  11.425 -0.1336 -0.0881  0.2777
29407W        W46255  14.528  10.647  13.923  0.3179 -0.0577 -0.1145
29408W        W46256  10.397   3.817   4.766  0.2401  0.3516 -0.0740
29409W        W46257   5.154  15.234   2.756 -0.0069  0.0677  0.0646
29410W        W46258  10.416   7.026  10.588 -0.0002 -0.0165  0.1121
29411W        W46259   9.899  10.199  14.734  0.0005 -0.2122  0.1887
29412W        W46260   7.663   6.157  12.666  0.0608  0.0725  0.1929
29413W        W46261   8.896  16.563  16.012  0.0328 -0.0430 -0.1597
29414W        W46262   7.876   5.592  16.111 -0.1272 -0.2080  0.0425
29415W        W46263   9.929  17.103   0.394  0.0577  0.3092 -0.0989
29416W        W46264   4.549  13.204   2.406 -0.0221 -0.0603  0.2396
29417W        W46265  10.753  10.802   0.293  0.3811  0.3079 -0.1356
29418W        W46266   3.159   3.461   2.037 -0.0427 -0.0343  0.1013
29419W        W46267   6.600  16.101   5.584  0.0050  0.0020  0.0376
29420W        W46268  15.242   3.630   6.473 -0.1007 -0.2799  0.1901
29421W        W46269   2.467  13.834   4.801 -0.1903 -0.0382  0.1384
29422W        W46270  14.696  10.304   4.614 -0.1991 -0.1363  0.0662
29423W        W46271   9.742   1.151  11.741  0.0144 -0.0626 -0.4693
29424W        W46272   3.003  10.184  14.336  0.0964  0.0019 -0.1698
29425W        W46273  12.486   2.163  13.302  0.0724 -0.1308 -0.0355
29426W        W46274   3.835  11.030   3.205 -0.0189 -0.1893 -0.0883
29427W        W46275   4.166   6.497  13.255  0.1068  0.0367  0.0047
29428W        W46276   8.680   0.009  15.999 -0.1511 -0.5687  0.2220
29429W        W46277  11.040  16.826  15.684  0.0514 -0.1746  0.0004
29430W        W46278  15.513  12.539   2.979  0.0616 -0.1142 -0.3076
29431W        W46279   3.613  12.975  11.421 -0.3056 -0.0829 -0.1975
29432W        W46280   0.143  12.444  11.418  0.2044 -0.0504 -0.1234
29433W        W46281   3.940  15.526   1.954  0.0049  0.0880 -0.0618
29434W        W46282  15.514  15.148   4.576 -0.2226  0.1235  0.2913
29435W        W46283   3.867  16.466  12.531  0.0200 -0.1175  0.0422
29436W        W46284  10.388  11.608   2.946  0.0347  0.4790 -0.0286
29437W        W46285   2.923   0.221   3.165 -0.0309  0.0880  0.0838
29438W        W46286   9.986  16.031  15.595  0.0802  0.0008 -0.0199
29439W        W46287   9.003  13.105  13.783  0.0307  0.1236 -0.0359
29440W        W46288  17.057   0.161   2.862  0.3331 -0.2253 -0.1585
29441W        W46289  10.671   6.089  12.656  0.1337 -0.4495  0.1488
29442W        W46290  16.994  14.500  15.639  0.1950 -0.3234 -0.0870
29443W        W46291   2.606   2.974   0.904  0.1142 -0.0550  0.1419
29444W        W46292   5.605   4.498   1.160 -0.0291  0.0002  0.1121
29445W        W46293  15.325   6.515  12.643  0.0637 -0.1364  0.0534
29446W        W46294   1.717  12.599  15.352  0.0556  0.1143  0.3133
29447W        W46295   2.951  17.857   1.339 -0.1204  0.2501 -0.3113
29448W        W46296   1.561  13.229  14.940 -0.4364 -0.5002 -0.3424
29449W        W46297   7.244   0.314   4.097  0.0450  0.1089 -0.0720
29450W        W46298  11.942  14.368   1.232 -0.2172  0.2854  0.1445
29451W        W46299  12.795  16.211   1.886 -0.0985  0.2295  0.1053
29452W        W46300   3.474   3.356   2.876 -0.1541  0.0189 -0.1818
29453W        W46301  12.829   1.369  13.859  0.0151 -0.1307  0.1145
29454W        W46302   8.751   6.989  11.825  0.0967  0.0743 -0.0280
29455W        W46303  10.017  14.462   4.632 -0.1714 -0.1083  0.0284
29456W        W46304  10.694  17.498  12.038 -0.0241 -0.0458 -0.1866
29457W        W46305   1.044  16.512   5.161  0.0076  0.1724 -0.1003
29458W        W46306  16.386   6.881   2.787  0.0759 -0.0012  0.1588
29459W        W46307  17.315  16.802  11.997 -0.3935  0.1948  0.3247
29460W        W46308   1.418   3.735   2.928  0.1031  0.0785  0.2419
29461W        W46309  11.274   8.517   0.764  0.3610 -0.2204  0.1960
29462W        W46310   1.064   9.060  13.573 -0.1964 -0.3115  0.0575
29463W        W46311  14.047  14.235  15.464 -0.0910  0.0923  0.0535
29464W        W46312   7.096  10.592   0.308  0.1983  0.2258 -0.1193
29465W        W46313   7.313   1.776  14.546  0.3954  0.0115  0.2022
29466W        W46314   3.199   7.967   1.559 -0.2364  0.1724  0.2145
29467W        W46315   9.160   9.235   5.386  0.0554  0.1651 -0.0194
29468W        W46316  15.089  15.264  11.543  0.3467 -0.2576 -0.1119
29469W        W46317  13.275   2.986   4.885  0.0880  0.1153  0.1231
29470W        W46318   0.895   6.048   3.718 -0.0965 -0.1212  0.3312
29471W        W46319   9.021   4.614   2.627 -0.0891  0.0994  0.2016
29472W        W46320   2.578   8.740   4.845 -0.0619 -0.4456  0.2427
29473W        W46321  17.694   1.045  12.140 -0.1839  0.0299  0.0728
29474W        W46322   0.707  12.970   5.103  0.1259  0.5108  0.3542
29475W        W46323  12.221  15.057   0.686  0.0744 -0.0101  0.2357
29476W        W46324  14.029  11.583   5.300 -0.1885  0.1970 -0.0597
29477W        W46325   0.353   1.753   5.360  0.3482 -0.0677 -0.0947
29478W        W46326   6.320  10.692  14.089 -0.0674 -0.2552 -0.0766
29479W        W46327  13.036  11.456  11.869  0.0516 -0.0951  0.1774
29480W        W46328   5.321   7.963  16.229 -0.1261  0.1417  0.0357
29481W        W46329  17.683  16.500  15.995 -0.0476  0.1195  0.2875
29482W        W46330  16.405   5.320  15.677 -0.0975 -0.0143  0.1262
29483W        W46331   0.154  14.884   1.229  0.0444 -0.1121 -0.0345
29484W        W46332   8.669   2.864  14.142  0.0995 -0.4280  0.1883
29485W        W46333  13.378  16.430  12.726  0.3263  0.0296  0.1957
29486W        W46334  16.120   7.092   0.005 -0.2917  0.2483  0.0802
29487W        W46335  11.198  13.304  14.706 -0.1062 -0.3171  0.3149
29488W        W46336   8.473   9.872   4.346 -0.1399 -0.0092  0.0577
29489W        W46337  15.222  14.127  10.796  0.3420  0.0271 -0.1906
29490W        W46338   0.167   2.924  14.913 -0.4242 -0.1459 -0.0290
29491W        W46339  16.416  16.962  13.582  0.0952  0.1496 -0.1842
29492W        W46340  17.289  15.181  15.545 -0.0442  0.0418  0.0659
29493W        W46341   4.613   9.461  14.755  0.7105 -0.2544  0.2240
29494W        W46342   0.273  16.508  11.716  0.0769  0.1503 -0.1929
29495W        W46343   8.779   4.367   1.090 -0.1877 -0.0953  0.1049
29496W        W46344  10.777  13.370  12.648  0.0044  0.0687  0.0324
29497W        W46345  15.060   4.823   0.405  0.0501  0.0474 -0.0906
29498W        W46346  13.173   2.074   3.752 -0.0824  0.1978  0.2522
29499W        W46347   1.016  13.160  14.876  0.2173 -0.1150  0.2171
29500W        W46348   1.495   2.403   4.257 -0.1763  0.0428  0.0527
29501W        W46349   8.537  16.787   5.998  0.2914 -0.2193  0.1055
29502W        W46350  16.816  12.674   1.355  0.2667  0.2983  0.0723
29503W        W46351   8.860  11.313  12.347  0.4206 -0.0478  0.1268
29504W        W46352  13.520  12.547   2.724 -0.3442  0.1819  0.3254
29505W        W46353  16.253  10.205  11.452 -0.0853 -0.1816 -0.1844
29506W        W46354   7.733   5.966  11.148  0.2564 -0.1307 -0.0906
29507W        W46355   3.905   8.125  13.857  0.1565  0.0137 -0.1869
29508W        W46356  13.515   8.904  13.971  0.0184  0.3164 -0.0116
29509W        W46357   2.906   1.478   3.125 -0.1501 -0.0200  0.4209
29510W        W46358   8.958  14.603   2.864  0.0121 -0.3300 -0.1181
29511W        W46359  12.147   9.203  14.062  0.0711  0.0085 -0.0956
29512W        W46360   1.347   2.501   0.613 -0.1570 -0.0572  0.1231
29513W        W46361  11.622   8.212  15.119  0.1011  0.1392 -0.0121
29514W        W46362   3.148   3.017   3.349 -0.1060  0.0763  0.0779
29515W        W46363  10.660   2.705  11.412 -0.1706  0.0994 -0.1102
29516W        W46364   6.330  10.714   3.623  0.2080 -0.1417  0.2389
29517W        W46365  14.247  14.717   0.735 -0.1536  0.0165 -0.1620
29518W        W46366   1.588  16.536  14.553  0.0157 -0.0306 -0.0271
29519W        W46367   6.654   4.656  12.687 -0.1599 -0.2950  0.0450
29520W        W46368   9.581  11.601  11.916  0.2174  0.2463  0.0889
29521W        W46369   4.349  16.870   1.661 -0.2331  0.1871  0.3171
29522W        W46370  17.408  12.801  11.996  0.0947 -0.2412  0.1456
29523W        W46371   2.947   5.511  11.201  0.0015  0.0754  0.2291
29524W        W46372   9.141  14.952  13.703  0.1597 -0.1015  0.1037
29525W        W46373  14.245   4.804  10.944 -0.0681  0.3033 -0.0189
29526W        W46374  12.836  11.734  12.391 -0.0274 -0.4847 -0.1290
29527W        W46375   1.106  16.680   0.599 -0.3315 -0.0312  0.1780
29528W        W46376   3.788   9.831  13.588  0.4614 -0.0530 -0.1335
29529W        W46377  17.801  16.692  12.057  0.1360 -0.2177  0.1169
29530W        W46378  11.428   0.495  12.305  0.1364 -0.0588  0.1421
29531W        W46379   1.100  12.124  11.755  0.2817  0.0120 -0.1694
29532W        W46380  16.581   8.616  13.194  0.1399  0.0309 -0.2201
29533W        W46381  17.085   8.552   4.891  0.0980 -0.0404 -0.1396
29534W        W46382   3.102  12.160  14.879 -0.1805  0.2912 -0.0091
29535W        W46383   1.959   9.239  14.806 -0.2600 -0.4413  0.1048
29536W        W46384  14.732   5.426  15.728 -0.1019 -0.2085  0.1534
29537W        W46385   6.670   7.340   1.820 -0.2952  0.0451  0.0085
29538W        W46386  14.859  11.504  14.406 -0.3069  0.0850 -0.2118
29539W        W46387  15.881   4.414  15.463 -0.3765  0.1449  0.0618
29540W        W46388   1.877  13.815  15.810  0.1333 -0.1870  0.0803
29541W        W46389  17.234  13.301  12.761 -0.3107  0.0108  0.0689
29542W        W46390   0.730  11.334   0.493  0.0997  0.2151  0.1746
29543W        W46391  15.405   8.464   1.177 -0.0239 -0.1935  0.0678
29544W        W46392   4.465   2.701   5.183  0.3872 -0.0292 -0.1610
29545W        W46393   5.429   3.836   0.001 -0.0104 -0.0838 -0.0606
29546W        W46394   8.482   8.068  14.531  0.4238  0.2217 -0.2587
29547W        W46395   0.730   1.936   4.082  0.2109  0.0226 -0.0137
29548W        W46396   8.126  13.155   1.233  0.3301  0.2124  0.0160
29549W        W46397   2.602   4.375  16.397 -0.1728 -0.1999  0.2894
29550W        W46398  11.082   4.604   3.308 -0.0683  0.3714  0.0121
29551W        W46399   0.331   1.584  16.213  0.1424  0.0520 -0.1422
29552W        W46400   3.712  15.563   5.373 -0.3095  0.0457 -0.0307
29553W        W46401   2.642   9.984   5.341 -0.1668 -0.1670  0.0849
29554W        W46402   2.713  12.158   4.154  0.0965  0.2829 -0.2724
29555W        W46403  16.887   6.938   4.730  0.0739  0.0935 -0.2567
29556W        W46404   8.078  17.533  13.196 -0.0199  0.0000 -0.1484
29557W        W46405  17.378  10.102  15.726 -0.0880 -0.3023  0.0290
29558W        W46406  12.266   9.050  13.257 -0.1607 -0.2286  0.0821
29559W        W46407  14.021   8.004   0.344  0.0728  0.0325 -0.0689
29560W        W46408   0.242   8.390  11.231  0.0105  0.2439 -0.0007
29561W        W46409  14.581  13.246   4.262 -0.1863 -0.4028 -0.0802
29562W        W46410   5.135  14.220   2.448 -0.0883  0.5208  0.2241
29563W        W46411  13.604   4.167   4.217 -0.2214 -0.0541  0.1466
29564W        W46412   9.846   1.302  14.418  0.0695  0.0720 -0.1712
29565W        W46413  17.520   1.872  13.831 -0.0360 -0.0769  0.1410
29566W        W46414   5.681  14.054   1.214 -0.1071 -0.2163 -0.1169
29567W        W46415   2.779  16.341  15.501  0.2501 -0.1091  0.0241
29568W        W46416   8.493  17.595   6.402 -0.1795 -0.4623 -0.0507
29569W        W46417   1.969  17.312  16.266  0.4422  0.4657 -0.1605
29570W        W46418   9.487   3.310  12.099  0.1520 -0.0510 -0.1623
29571W        W46419  16.757   7.797   0.818  0.1904 -0.5426  0.2180
29572W        W46420   3.720  14.690   1.667  0.2364  0.1153 -0.0201
29573W        W46421  11.003  14.094  13.125 -0.4899 -0.0846  0.0531
29574W        W46422  15.651  12.649   1.940 -0.1438  0.1218 -0.4392
29575W        W46423  12.162   0.397  12.672  0.1755 -0.2720  0.0117
29576W        W46424   8.446   0.703  10.619 -0.3591  0.1116 -0.0133
29577W        W46425   1.453  17.576  16.100  0.1087 -0.2432 -0.0429
29578W        W46426   1.807   4.336   3.140  0.0141 -0.0958 -0.1515
29579W        W46427  11.351  13.968  12.766  0.1471 -0.2098 -0.0438
29580W        W46428  16.567  10.377  11.971  0.0015 -0.1200 -0.0699
29581W        W46429  17.149   4.331   4.414  0.1840  0.1387 -0.2529
29582W        W46430   7.563   7.143   4.249 -0.2105 -0.2048  0.0331
29583W        W46431   4.957   8.462   5.423  0.1162 -0.1081  0.3125
29584W        W46432   4.122  12.750   1.906 -0.1748 -0.0718  0.2909
29585W        W46433   4.400   8.756   4.661 -0.1262 -0.0774 -0.1399
29586W        W46434   7.543   3.911  14.652  0.2297  0.2631 -0.3549
29587W        W46435  11.695   5.770   4.283 -0.1015 -0.0440  0.1037
29588W        W46436  14.510   4.139   0.104  0.1567  0.0519  0.2159
29589W        W46437   0.939  11.157   3.248 -0.2476  0.1097  0.1488
29590W        W46438  14.141  15.252   2.838  0.0848 -0.0193 -0.0410
29591W        W46439   9.696  14.392   3.603  0.1194  0.1988  0.2084
29592W        W46440   9.594   7.620  16.208 -0.1806  0.0984 -0.0753
29593W        W46441  14.946  15.836  14.057  0.0714  0.0284 -0.0815
29594W        W46442   9.278   5.845   1.586 -0.0687  0.1401 -0.0947
29595W        W46443  15.766   0.221   3.671 -0.0331  0.1181 -0.0730
29596W        W46444   4.109   1.452   3.678 -0.0302  0.1172 -0.1908
29597W        W46445   8.248   5.818   2.481  0.1409  0.0589  0.0666
29598W        W46446  14.522   9.595   2.594 -0.1485 -0.0819  0.2320
29599W        W46447   9.772   2.670   3.431  0.1273  0.1567 -0.0548
29600W        W46448   2.975   9.931  11.806 -0.1967  0.1090 -0.0266
29601W        W46449  12.501  12.743  12.297  0.2362 -0.0111 -0.0621
29602W        W46450  11.328  10.273   0.588  0.4170  0.1123 -0.0377
29603W        W46451  10.693   8.958   0.741  0.1615  0.1316  0.4929
29604W        W46452   8.794   8.852  11.897  0.0037 -0.0185  0.2658
29605W        W46453  14.616  10.326  15.982 -0.3027 -0.0433  0.0132
29606W        W46454   6.756  15.097   5.131 -0.3539 -0.1723 -0.1342
29607W        W46455   0.328   9.066   0.281  0.0398 -0.2082  0.0111
29608W        W46456  14.604   7.273   2.525 -0.0442  0.0430  0.0769
29609W        W46457  17.754  14.071   2.582 -0.1558 -0.1908 -0.4233
29610W        W46458   6.747   2.616  13.535 -0.1895 -0.2402  0.1310
29611W        W46459   8.872   1.303   1.518  0.1749  0.3642  0.1283
29612W        W46460   7.348   9.034  12.862 -0.1883 -0.3351 -0.0718
29613W        W46461   7.444   1.559   2.076 -0.2244  0.2924  0.1043
29614W        W46462   5.029   6.610  11.956 -0.0310  0.3985  0.0442
29615W        W46463   4.855  15.809  16.129  0.1347 -0.0279  0.0566
29616W        W46464   1.511  14.527  12.789  0.0711  0.1059  0.1479
29617W        W46465   9.064   5.789   0.911 -0.2049  0.0305 -0.0967
29618W        W46466   8.671  15.567  14.671  0.0535  0.1338  0.2128
29619W        W46467   6.880   9.720  12.536  0.1087 -0.1547  0.0341
29620W        W46468  10.694   2.717   3.339  0.0571  0.0363 -0.3635
29621W        W46469   9.184   8.323   2.487  0.2032 -0.1580 -0.0592
29622W        W46470  14.760   5.870   3.672 -0.3029  0.0869  0.1857
29623W        W46471  11.880  14.124   2.079 -0.3067 -0.2293 -0.0378
29624W        W46472   7.423   5.302   0.910  0.0162 -0.3547 -0.0216
29625W        W46473   5.038   9.478  12.466  0.0664  0.0032 -0.1815
29626W        W46474   3.832   1.065  13.321 -0.3920  0.1441 -0.0389
29627W        W46475   9.220   1.937  15.955  0.1119 -0.1901 -0.0640
29628W        W46476  14.297   6.550  14.488  0.0473  0.5099  0.2914
29629W        W46477  11.583   4.014  16.255  0.0609 -0.1024 -0.2941
29630W        W46478   3.028  15.302  16.150 -0.1839  0.1693  0.2008
29631W        W46479   5.773   6.230  13.133 -0.1690  0.0833  0.0788
29632W        W46480  17.888   2.668  14.371  0.1338 -0.1246  0.0821
29633W        W46481   6.462  16.722  12.960  0.3186 -0.0957  0.0632
29634W        W46482  11.505   4.718   1.515 -0.1947  0.1619 -0.0647
29635W        W46483   4.150  14.007  13.349 -0.0494  0.2574 -0.0647
29636W        W46484  12.003   5.504   3.859  0.1224  0.1575  0.3613
29637W        W46485   7.943  10.095  12.114 -0.0256 -0.0692  0.0794
29638W        W46486   3.141  16.233  14.255  0.0796 -0.2350 -0.0035
29639W        W46487   7.914  17.219   2.917 -0.2330  0.1983 -0.0986
29640W        W46488   7.141  13.642   4.628 -0.0005  0.1238  0.1800
29641W        W46489  16.279   9.199  12.486  0.0567 -0.0116  0.1672
29642W        W46490   8.311   5.224  14.724  0.3738  0.3881 -0.0842
29643W        W46491   4.244  13.595  11.709 -0.2857  0.2064 -0.0545
29644W        W46492   8.691  16.310  14.767 -0.2289 -0.0925 -0.4902
29645W        W46493   3.375  16.726  14.344  0.0283  0.0005  0.0362
29646W        W46494   3.256   5.922  16.401 -0.0048  0.2338  0.0644
29647W        W46495  17.302  11.574   2.159  0.0519  0.1833  0.0591
29648W        W46496   4.139  13.275   1.604  0.0454  0.1016 -0.1664
29649W        W46497   8.067   5.889  12.030  0.0457 -0.1688  0.1043
29650W        W46498  17.047  13.897   3.498  0.3881  0.1511 -0.4481
29651W        W46499  14.543   2.728   3.866  0.1980  0.3026 -0.0071
29652W        W46500  14.499  15.081   3.679  0.1673  0.0599 -0.2019
29653W        W46501  10.562  14.076  16.214  0.0941  0.2913 -0.0227
29654W        W46502   0.656  14.968   0.061 -0.0330 -0.0125 -0.2435
29655W        W46503   3.358   2.943  14.278  0.2663 -0.3584  0.0837
29656W        W46504   9.274  12.567  14.907 -0.3374 -0.0274 -0.1073
29657W        W46505   7.543   9.621  11.645 -0.1142  0.0290 -0.0190
29658W        W46506  12.300  15.267  13.719  0.0845 -0.1454 -0.3351
29659W        W46507   4.831   3.167  13.000  0.0503  0.1705 -0.0325
29660W        W46508   1.510  16.750   5.927  0.2855  0.0361  0.0344
29661W        W46509  10.349  12.885  13.553 -0.2322 -0.2838  0.0395
29662W        W46510  15.010   9.135  15.488  0.1390  0.0368 -0.3601
29663W        W46511   1.141   9.927  12.097  0.0620 -0.0926  0.2498
29664W        W46512  12.329  14.043  15.098  0.1083  0.2433  0.1624
29665W        W46513   3.730   4.429   1.897  0.1161 -0.0422 -0.3497
29666W        W46514  13.550  10.275  13.003 -0.1395  0.2913  0.0406
29667W        W46515  16.043   1.044   3.939  0.0899 -0.1239 -0.1973
29668W        W46516   5.798  11.885   0.538 -0.2945  0.0247  0.5595
29669W        W46517   2.263  11.423  15.350  0.3122  0.1872 -0.1877
29670W        W46518   1.541  13.632   2.206  0.1148  0.1317 -0.2193
29671W        W46519   2.547  11.435  14.411  0.0694  0.0054 -0.1700
29672W        W46520   4.038   6.287   3.462  0.1065  0.1058 -0.0638
29673W        W46521  11.067  17.243  13.032  0.0984  0.1090  0.2254
29674W        W46522  10.946  12.641  14.112 -0.5421  0.1080 -0.1344
29675W        W46523   0.844   2.856   0.169 -0.2343 -0.1508 -0.0433
29676W        W46524   1.977   1.427  11.085  0.0868 -0.1775 -0.1129
29677W        W46525   5.757  15.744   3.088 -0.1198  0.0675  0.0832
29678W        W46526  15.961   0.761  15.949  0.1122 -0.1653 -0.3488
29679W        W46527  11.980   5.886   0.899 -0.5753  0.0562  0.2514
29680W        W46528   1.209  14.398   0.820  0.2918  0.3314 -0.1771
29681W        W46529  12.829   0.118   0.930 -0.2257 -0.0124 -0.0198
29682W        W46530  16.934  13.855   4.835  0.0882 -0.1965 -0.1288
29683W        W46531   1.871   5.020  13.708  0.1325  0.1694  0.0295
29684W        W46532  16.298  13.172   9.929  0.1343  0.1147  0.1267
29685W        W46533  12.851   3.072   2.961  0.1251 -0.1485  0.1179
29686W        W46534   5.516   9.607   2.857 -0.2695 -0.1627 -0.1940
29687W        W46535  15.510   6.240  14.157 -0.3910  0.1345 -0.0992
29688W        W46536   2.883   9.046   4.480  0.3984 -0.2991  0.1855
29689W        W46537   1.798   9.041   0.387  0.0820 -0.2283  0.2600
29690W        W46538   4.565   2.642  15.870  0.1640 -0.2013  0.1548
29691W        W46539  16.789   0.211  15.996  0.0041 -0.1055 -0.0055
29692W        W46540   0.997   5.878  13.431 -0.0572  0.0177  0.3185
29693W        W46541   1.888   7.756   4.225  0.2083  0.0105 -0.0452
29694W        W46542   3.293   1.317  15.174  0.0085 -0.0412  0.1388
29695W        W46543   3.835  12.387   3.330  0.2663  0.3865  0.2781
29696W        W46544  14.896   0.197  15.810 -0.1319 -0.0132  0.2715
29697W        W46545  10.297   0.627   2.669  0.1377  0.0235  0.0298
29698W        W46546   4.506   5.863  13.828  0.1010 -0.3483 -0.1175
29699W        W46547   7.905   9.513  14.318  0.1186  0.3222 -0.2079
29700W        W46548   8.506  17.509  12.045  0.0427  0.1077  0.2866
29701W        W46549   2.224  16.902  12.665  0.0489 -0.2211  0.2038
29702W        W46550   6.099   9.680   4.442  0.0809  0.0870  0.0042
29703W        W46551   0.714  15.113  15.580 -0.1536 -0.0553  0.1797
29704W        W46552  11.085   7.831  10.798  0.0551 -0.0028  0.0429
29705W        W46553   2.219   6.941  15.412 -0.2279 -0.0018  0.2099
29706W        W46554  16.594   4.098   1.987 -0.2510 -0.0571 -0.0938
29707W        W46555  12.796   4.605  16.442  0.0523 -0.2382 -0.1225
29708W        W46556   2.031  12.334   1.111 -0.1609  0.0563 -0.0730
29709W        W46557   8.377   4.340  14.341  0.2936 -0.0574 -0.2694
29710W        W46558   6.925   1.062  12.680  0.1074  0.1515  0.0631
29711W        W46559  11.493  17.185   4.831  0.3473 -0.3282 -0.0154
29712W        W46560   5.406   4.202  15.376 -0.0544  0.0954  0.2191
29713W        W46561   1.194   4.728   4.542 -0.1568  0.0254 -0.1146
29714W        W46562   9.518  13.377  11.071 -0.3220 -0.1136  0.0751
29715W        W46563   7.284  13.145   3.340 -0.2188  0.1036  0.0723
29716W        W46564  13.627  17.699   5.688 -0.0535 -0.2100 -0.0885
29717W        W46565   7.198  11.168  14.418  0.1492 -0.1765  0.1365
29718W        W46566  16.571  14.252   1.836  0.2440  0.0947  0.1144
29719W        W46567   2.425   6.511   0.165 -0.2289  0.1315 -0.2977
29720W        W46568  12.790   6.581  14.505 -0.0718 -0.2200 -0.1887
29721W        W46569   3.044  14.846   3.932  0.1501  0.0107  0.0047
29722W        W46570   8.095  13.914   3.595  0.1181  0.1173  0.1828
29723W        W46571  15.094   9.881  14.980  0.2004 -0.0080 -0.0513
29724W        W46572  10.550  11.582   1.731 -0.1827 -0.0179  0.0166
29725W        W46573   7.727   0.416   4.330  0.2014 -0.0793 -0.1013
29726W        W46574  16.066   8.831   0.389 -0.3424  0.0686 -0.0571
29727W        W46575   6.758  13.238   5.079  0.1639 -0.0311 -0.3676
29728W        W46576  12.429   5.645  12.027  0.3832  0.2796 -0.3139
29729W        W46577   4.867  15.355  14.986 -0.0417 -0.4291  0.0162
29730W        W46578  10.528  15.727   2.060  0.3860 -0.1022 -0.0068
29731W        W46579  11.049  13.753   4.217  0.1203  0.2607  0.2883
29732W        W46580   3.080   1.298   1.284  0.1664 -0.1400 -0.1562
29733W        W46581  17.291   0.880   4.930  0.1398  0.0913 -0.0336
29734W        W46582  11.281  13.882  13.505 -0.1632 -0.0404  0.1928
29735W        W46583   6.198   6.100   4.852  0.1082  0.2224 -0.0415
29736W        W46584  10.598  16.189   0.773  0.1273  0.0021 -0.0139
29737W        W46585  16.665   3.717  15.926  0.0063  0.3744  0.0491
29738W        W46586  13.666   4.748  12.065  0.1031 -0.2139 -0.0806
29739W        W46587   2.708   9.048  12.345 -0.1496 -0.2410  0.2192
29740W        W46588  14.771   7.956   5.146  0.0364  0.1123 -0.0132
29741W        W46589  16.675   6.923   1.894  0.0944 -0.0517  0.0937
29742W        W46590   9.876  14.930   0.977  0.1527 -0.0928 -0.1609
29743W        W46591   2.945  12.016   2.597  0.0483 -0.0039  0.2750
29744W        W46592  15.382   7.916   2.675  0.1696 -0.0718  0.0124
29745W        W46593   6.565  13.084  11.302  0.0350 -0.1714  0.2538
29746W        W46594  13.286   4.628  16.305 -0.0689 -0.0091 -0.2598
29747W        W46595   0.726   4.002   4.798  0.2206  0.4522  0.2105
29748W        W46596   7.845  10.995  14.135  0.1784  0.2928 -0.4804
29749W        W46597  12.161  10.397   3.379 -0.1053  0.3181  0.0380
29750W        W46598   5.871   5.462   1.223  0.1489 -0.0121 -0.0800
29751W        W46599   3.487   7.591   2.674  0.0521  0.1610  0.0128
29752W        W46600  11.167   1.523  12.043 -0.0399 -0.1484 -0.1094
29753W        W46601   2.263   1.110   1.846  0.0654  0.2294  0.2754
29754W        W46602  11.504  16.876  14.710 -0.0950 -0.1919  0.3956
29755W        W46603  14.430  14.452  16.457  0.1315  0.0858  0.0226
29756W        W46604  15.808  15.174   3.306  0.1138 -0.0327  0.2817
29757W        W46605   1.211  11.989  14.603  0.0808 -0.0911  0.0426
29758W        W46606  14.564  14.959   4.226  0.0806 -0.2737  0.1364
29759W        W46607  14.402   1.500  14.012  0.0199  0.0707  0.1001
29760W        W46608   9.125  11.248   1.960 -0.0172  0.2575  0.3111
29761W        W46609  10.792  15.940   2.899  0.2953 -0.1851  0.1650
29762W        W46610  13.563  16.913   4.711  0.0370  0.2205 -0.0704
29763W        W46611   8.460  14.613   6.193  0.0038  0.0813  0.1733
29764W        W46612   0.566  10.843   0.811 -0.0835 -0.2124 -0.2184
29765W        W46613  11.221   2.192  14.636  0.0261 -0.0861  0.3088
29766W        W46614   4.362  14.497  11.332 -0.0678  0.1686  0.0984
29767W        W46615  11.827   6.743  13.695  0.1961  0.0410 -0.2032
29768W        W46616  13.792   4.926   0.459  0.0977 -0.0745  0.2883
29769W        W46617  11.888   7.144   3.055  0.3114  0.2032  0.1205
29770W        W46618  16.411   8.251  13.584  0.0375 -0.0375 -0.0239
29771W        W46619  13.170  10.649  13.461  0.1012 -0.1244 -0.0261
29772W        W46620   2.518  11.544   2.875  0.1938  0.2141 -0.0342
29773W        W46621   0.397  10.564   0.090 -0.0460 -0.0046  0.0476
29774W        W46622  15.567   0.355  15.918  0.2875  0.1735 -0.1897
29775W        W46623  12.052   2.751   2.571  0.1573  0.0306 -0.1277
29776W        W46624   9.988   1.468  12.872  0.1453 -0.1138  0.3259
29777W        W46625   9.411  13.809  15.464  0.3034  0.1187  0.1048
29778W        W46626   5.345   8.877  13.214 -0.1702  0.1386  0.2065
29779W        W46627  15.631   5.715  14.044 -0.0315 -0.1804  0.0721
29780W        W46628  14.375  13.324   0.799  0.1753 -0.2858 -0.3190
29781W        W46629   7.683  14.234  14.040  0.2870  0.0383  0.0323
29782W        W46630  13.886   9.221  11.548  0.3007  0.2249 -0.0042
29783W        W46631   8.976  17.372   3.457 -0.0899  0.1058  0.1257
29784W        W46632  13.211  13.013   0.332  0.1451 -0.0868  0.1988
29785W        W46633   7.988   4.321   0.773  0.1468 -0.2717  0.2320
29786W        W46634   1.403   7.354   5.027 -0.0716  0.2225 -0.0447
29787W        W46635   2.015   5.950  11.602  0.0104  0.2331 -0.0654
29788W        W46636   7.086  13.352  15.240 -0.1899  0.1098 -0.3160
29789W        W46637   7.626  10.110  11.549 -0.0574  0.2370 -0.0983
29790W        W46638   9.356   2.568  11.386  0.1435  0.2845 -0.1838
29791W        W46639   9.203  13.369   0.207 -0.0169  0.2115 -0.0262
29792W        W46640  16.498  13.253  11.658 -0.0651  0.3861 -0.0136
29793W        W46641   8.161   1.491  12.647 -0.2485  0.3901 -0.0964
29794W        W46642  13.275   1.612   3.881  0.1229 -0.1385  0.1435
29795W        W46643   1.663   5.260   3.115  0.0071 -0.0989 -0.1071
29796W        W46644  10.017  10.998  12.822 -0.1239  0.1208 -0.1047
29797W        W46645  13.698  13.101   5.333  0.0563 -0.1158  0.1615
29798W        W46646   0.353  13.385   4.574 -0.2104 -0.4469  0.1494
29799W        W46647   6.457   3.798  16.330 -0.0553 -0.0805 -0.0513
29800W        W46648  16.840  17.146  13.887  0.1526  0.2580 -0.1542
29801W        W46649   5.933  15.212   5.186 -0.0581 -0.1277  0.1369
29802W        W46650  14.624  10.836   5.153 -0.0133 -0.0278 -0.0041
29803W        W46651  14.393  17.116   3.736  0.3958  0.0031 -0.0699
29804W        W46652   5.059   9.681   0.051  0.0891 -0.0914 -0.1353
29805W        W46653   3.929  14.728  11.082 -0.1645 -0.0079 -0.1953
29806W        W46654  14.800   5.670   1.803 -0.2488  0.2777  0.0889
29807W        W46655  15.426   2.069   4.800  0.1603  0.0604  0.0528
29808W        W46656   4.352   4.185   1.586  0.2926 -0.0802 -0.0125
29809W        W46657   2.054  14.714   1.352  0.1203  0.0453 -0.1574
29810W        W46658   5.105   9.918  12.286  0.1448  0.1127 -0.2039
29811W        W46659   2.663  16.523   3.182 -0.2002  0.1446  0.2440
29812W        W46660   0.718   1.927  13.562 -0.2071 -0.0843  0.4571
29813W        W46661   9.782   9.095  15.660  0.0601 -0.0927  0.1042
29814W        W46662   2.131   1.877  11.180  0.1219 -0.0523 -0.2267
29815W        W46663   8.443  12.431  12.061 -0.1032 -0.0849  0.0154
29816W        W46664   7.639   6.115  11.614 -0.2699 -0.2121  0.0324
29817W        W46665  11.779   1.717  11.650  0.3177 -0.1030 -0.0481
29818W        W46666   1.300   4.254   0.530 -0.2857  0.1515 -0.0145
29819W        W46667  14.818  17.003  15.213 -0.0164  0.0226  0.0836
29820W        W46668  12.565  14.571   1.881 -0.1935 -0.0731  0.1405
29821W        W46669  13.015   3.583   0.854 -0.2131 -0.2401 -0.0289
29822W        W46670   2.814   3.854  14.294  0.0212  0.0665  0.3034
29823W        W46671   9.932  15.244  14.414 -0.1188 -0.1213  0.0148
29824W        W46672   5.300   3.796   3.581  0.2830  0.3859 -0.1544
29825W        W46673  11.092   6.741   2.290  0.0665  0.1365 -0.2429
29826W        W46674  12.090   3.879  13.807  0.0251 -0.0230  0.0200
29827W        W46675   3.996   4.372   6.083  0.0445 -0.1812 -0.2111
29828W        W46676   3.464  12.440  13.489 -0.2128 -0.0256  0.2393
29829W        W46677   3.224   5.546   5.013 -0.0739 -0.0955  0.2270
29830W        W46678  10.626   5.992  10.802  0.1853 -0.0752 -0.1161
29831W        W46679   2.957  11.263  15.657 -0.1710  0.1225  0.0132
29832W        W46680  11.845   1.887  14.569  0.2013  0.2151 -0.1046
29833W        W46681   8.072   8.872  11.662 -0.2500  0.2191 -0.1426
29834W        W46682  11.635   6.843   5.070  0.1417  0.0677 -0.1476
29835W        W46683   0.512  11.688   3.080 -0.0282  0.1606  0.1009
29836W        W46684   4.151  15.834  10.643  0.0242  0.0002 -0.0810
29837W        W46685   4.507  10.507   2.690 -0.0349 -0.3095  0.0889
29838W        W46686   5.900   0.930  14.417  0.0811 -0.1374 -0.2056
29839W        W46687  14.592   6.409  14.115  0.0090  0.0914  0.1548
29840W        W46688  13.190   9.734   4.419 -0.1768 -0.0352 -0.1012
29841W        W46689  11.535  15.361  13.406  0.1528 -0.1866  0.0315
29842W        W46690   4.487  11.757   2.906 -0.2725 -0.0014 -0.1657
29843W        W46691   5.162   9.445   4.430 -0.3538 -0.4308 -0.0235
29844W        W46692   7.371   6.451   3.708  0.0618  0.1275 -0.2109
29845W        W46693  13.486   5.684   1.770 -0.1433  0.0974 -0.0243
29846W        W46694   0.849   4.533  11.295  0.1051 -0.2212 -0.1786
29847W        W46695   4.323  10.198   1.684 -0.1138 -0.1894 -0.0658
29848W        W46696   7.703  16.282  13.713  0.1626 -0.3343  0.2756
29849W        W46697  13.323  15.326   1.656 -0.2734 -0.1237 -0.0675
29850W        W46698  13.967   1.111  12.532 -0.2316  0.2785 -0.0335
29851W        W46699   8.666   9.236   5.551  0.2859 -0.0474 -0.0679
29852W        W46700   7.803  17.522  15.559  0.3168 -0.0851 -0.1017
29853W        W46701  10.120   0.247  12.267 -0.2472 -0.1571  0.4890
29854W        W46702  17.369   7.786  15.235  0.2282  0.0123  0.0358
29855W        W46703  12.500   3.688  13.665 -0.1445  0.2637  0.2832
29856W        W46704   0.186  12.235   1.071 -0.1814 -0.0772 -0.0107
29857W        W46705   3.869  16.640  16.094 -0.0444 -0.1411 -0.0724
29858W        W46706   1.242   4.115  13.084  0.4098 -0.0905 -0.2614
29859W        W46707  16.739   8.352  10.996  0.2507 -0.1633  0.2892
29860W        W46708   1.812  10.560  11.674 -0.2451 -0.0314  0.2057
29861W        W46709   6.085   8.268  15.765  0.2069 -0.0130  0.0474
29862W        W46710   5.107   9.375  10.499 -0.1696  0.1427  0.1613
29863W        W46711   1.596   3.333   1.509 -0.0075 -0.1058  0.0709
29864W        W46712   6.309  12.374   9.135  0.0399  0.1135  0.0790
29865W        W46713  11.515  16.576   0.551 -0.1205  0.2442 -0.0932
29866W        W46714   7.067   5.973  16.281 -0.0123  0.0414  0.1241
29867W        W46715   7.034   5.511  12.408 -0.0721  0.0581  0.0486
29868W        W46716  14.443   8.808  14.382 -0.2443 -0.2912 -0.2114
29869W        W46717  10.746  13.800  11.644  0.2955 -0.0458 -0.0519
29870W        W46718   0.373   8.598  11.808 -0.1017  0.3133 -0.0253
29871W        W46719   0.124  11.488  11.230 -0.1300 -0.0436 -0.0894
29872W        W46720  17.191   6.058   5.025  0.0651 -0.1055  0.0236
29873W        W46721   5.771   2.282   2.275  0.1215  0.3586 -0.1676
29874W        W46722  17.797   9.230   1.644  0.1334 -0.0455 -0.1121
29875W        W46723   3.293   4.870   3.949  0.0097 -0.0721  0.0671
29876W        W46724  17.165   1.932  14.752 -0.1593  0.2439  0.1603
29877W        W46725   1.370   4.210  14.881 -0.0838  0.2003 -0.0223
29878W        W46726  11.041   6.076  15.303 -0.2135  0.2805  0.1837
29879W        W46727  17.214   8.763  15.605  0.1936 -0.2248  0.1417
29880W        W46728  11.789  14.633   2.054 -0.1879  0.1047  0.2402
29881W        W46729   2.205   6.494  11.665 -0.1527 -0.0238  0.1700
29882W        W46730  13.629  16.453   4.582 -0.0691 -0.0025 -0.0323
29883W        W46731  13.179  17.523  13.457  0.0805 -0.2329 -0.2411
29884W        W46732  15.598  17.012   3.391  0.3702 -0.0049 -0.0939
29885W        W46733  12.664  13.677   1.468  0.2366  0.0804 -0.1660
29886W        W46734  13.652   0.195  12.514  0.0364  0.3224  0.2375
29887W        W46735   4.646  16.918  14.719  0.0738 -0.2687  0.2074
29888W        W46736  16.387  16.127  16.094 -0.0291 -0.2724 -0.0343
29889W        W46737  11.931   6.305   0.102 -0.2664  0.2947  0.0221
29890W        W46738  10.698  16.683  14.692  0.1345 -0.0783  0.2282
29891W        W46739  13.316  16.555  12.264 -0.1346  0.0259 -0.0865
29892W        W46740   0.559   1.001   1.781  0.1069 -0.1416 -0.0781
29893W        W46741  15.507  10.385   1.120 -0.1361 -0.1168  0.0912
29894W        W46742   8.043  11.327   1.020  0.1462  0.1295 -0.1522
29895W        W46743   2.978  16.646   0.422  0.2920 -0.0568 -0.2682
29896W        W46744  13.688   6.950  14.696 -0.2065 -0.0345  0.1380
29897W        W46745   3.955  15.100  13.230 -0.2842  0.2261  0.1724
29898W        W46746  17.277   7.448  15.561  0.1662  0.1596  0.1028
29899W        W46747   5.860   4.181   2.831  0.0444  0.3813  0.2753
29900W        W46748   2.133  10.049   0.486 -0.2688  0.1306 -0.1726
29901W        W46749   1.463   9.025  13.896  0.2580 -0.0539  0.2892
29902W        W46750  16.643   0.849   0.502 -0.0696 -0.0723  0.4408
29903W        W46751  14.604   4.181  12.928  0.1398  0.0376 -0.0250
29904W        W46752   2.748   7.159   2.278 -0.5441  0.0461  0.1288
29905W        W46753  16.007  10.898   3.398 -0.0483 -0.0308  0.0514
29906W        W46754   8.272   5.660   1.038 -0.0779 -0.1834  0.3290
29907W        W46755   1.638  11.239   0.799 -0.0536 -0.0205 -0.0380
29908W        W46756  16.505   7.155  14.364  0.2714  0.0258  0.0248
29909W        W46757   9.559  15.630   3.383 -0.1049  0.0608 -0.0265
29910W        W46758   1.771  10.427  14.950 -0.0442  0.2640 -0.0439
29911W        W46759  15.629   9.176   3.980  0.2358 -0.1733 -0.3082
29912W        W46760   8.395   7.237  15.750 -0.0747  0.0941  0.3927
29913W        W46761   3.888   3.583  15.223 -0.1497 -0.0513 -0.0912
29914W        W46762   2.445   2.987  15.217 -0.1654  0.1075 -0.1634
29915W        W46763   2.795   9.874   3.951  0.1073 -0.0288 -0.0195
29916W        W46764   1.122  16.100  11.727  0.0590  0.4262 -0.1949
29917W        W46765  13.767   3.101  12.387 -0.0996 -0.4110  0.1855
29918W        W46766  16.778  14.402   2.786 -0.3871  0.3396  0.3182
29919W        W46767  15.135  15.831   0.942 -0.1436 -0.1403 -0.0617
29920W        W46768  12.654   3.360   2.577 -0.2507 -0.2286 -0.2518
29921W        W46769  10.049   8.361   3.006  0.0979 -0.2439 -0.3436
29922W        W46770   3.460  15.397   2.134 -0.0623  0.2152 -0.3091
29923W        W46771   5.833   3.525   5.736  0.1651  0.1247  0.0646
29924W        W46772   8.477   1.105   2.269 -0.0456  0.1177 -0.2412
29925W        W46773   9.600   0.284   2.722  0.0197 -0.0673 -0.2714
29926W        W46774   9.756  13.632  11.994 -0.0765 -0.0547 -0.1355
29927W        W46775   9.961   5.141  15.329 -0.0630  0.1514  0.4526
29928W        W46776   4.662  10.004   1.438 -0.1891 -0.2229 -0.0021
29929W        W46777  14.160  13.085   3.745  0.0971 -0.0388 -0.0633
29930W        W46778  14.067  14.542   4.782  0.4614  0.0496  0.3185
29931W        W46779  10.304   5.133   2.213  0.0822 -0.1201  0.0328
29932W        W46780   2.605   7.091   0.311 -0.1290  0.0034 -0.1894
29933W        W46781   6.646   8.888  14.864 -0.1257 -0.2942  0.1615
29934W        W46782  14.657  11.490   0.656  0.0688 -0.3803 -0.0950
29935W        W46783   2.305  15.086   4.940  0.3059 -0.2204 -0.1538
29936W        W46784  12.719  16.261  13.867  0.2886  0.0771 -0.0110
29937W        W46785   5.088   2.316   1.469 -0.1106  0.1433  0.0224
29938W        W46786   4.942  10.549   1.124 -0.1184  0.0290 -0.0323
29939W        W46787   5.404  15.360  15.305 -0.0498  0.4627  0.1066
29940W        W46788   8.605   8.871   2.631  0.1247 -0.1516  0.0387
29941W        W46789   2.124  10.032  14.796 -0.0327 -0.0088 -0.4631
29942W        W46790   5.415  12.376   4.182 -0.2472  0.1308 -0.3099
29943W        W46791   4.482  15.739  13.161 -0.2500 -0.0055  0.0381
29944W        W46792   2.480   1.038  14.743  0.1554  0.0557  0.1540
29945W        W46793   5.331  16.157   3.782  0.1261 -0.0027  0.3973
29946W        W46794  13.998   3.840  15.300 -0.0935  0.1537 -0.3263
29947W        W46795   2.974   8.933  11.887  0.1114 -0.1914 -0.1051
29948W        W46796  16.471  15.354   3.773 -0.2403  0.1319 -0.0515
29949W        W46797   0.061  16.196   0.642 -0.1319 -0.0529  0.2858
29950W        W46798  15.305   8.919  12.793  0.1850  0.1886  0.2767
29951W        W46799   6.210   1.282   3.746 -0.0494 -0.0313  0.0171
29952W        W46800  10.140  11.969   2.625 -0.2569  0.1835  0.3121
29953W        W46801  16.328   7.594   0.715  0.0392 -0.1291 -0.1869
29954W        W46802  10.286  13.474  12.448  0.0568  0.2170  0.0304
29955W        W46803   5.234  16.950   3.149 -0.1265 -0.1381 -0.1131
29956W        W46804   7.607   9.005  12.337  0.0936  0.1777 -0.0708
29957W        W46805   0.273   5.126   4.120 -0.2704  0.3242  0.1697
29958W        W46806   1.612  14.161  14.246  0.3452 -0.2173 -0.2527
29959W        W46807  13.835   2.869   1.803 -0.2305 -0.1251 -0.0827
29960W        W46808  12.779  16.620  11.634  0.3474 -0.0771 -0.5828
29961W        W46809   1.262   3.384   5.559 -0.4149 -0.0337 -0.1783
29962W        W46810  10.532  17.114  13.043  0.1103 -0.2529  0.0470
29963W        W46811   4.391   4.779   1.274  0.1773 -0.0902  0.0983
29964W        W46812   3.490   6.856  12.825 -0.0102  0.4546  0.2769
29965W        W46813  15.142  14.568  12.005 -0.1756  0.1607  0.0941
29966W        W46814   8.490   5.502  14.309 -0.3490 -0.1348 -0.2445
29967W        W46815  10.072  12.729   1.316  0.2493  0.0775  0.1619
29968W        W46816   3.473   7.552   6.344 -0.2478 -0.1631 -0.1396
29969W        W46817  11.556   2.894  13.971 -0.1239  0.1661  0.0271
29970W        W46818   5.976  16.675  12.160 -0.0939  0.3765  0.0109
29971W        W46819   8.787   4.993   5.419 -0.0665 -0.0859  0.1164
29972W        W46820   3.757   1.350  12.522  0.1716  0.1135  0.0283
29973W        W46821  16.116   5.262  14.839 -0.1158 -0.0273  0.0777
29974W        W46822  13.277  13.625  13.431 -0.1826 -0.0143  0.2377
29975W        W46823  13.648   1.478   4.202 -0.3951  0.2357  0.1533
29976W        W46824  14.353   5.541  13.761  0.0700  0.1706 -0.3416
29977W        W46825   1.489   6.360   5.498  0.0633  0.2381 -0.1218
29978W        W46826   2.001   2.821   2.174 -0.3385 -0.4462  0.0984
29979W        W46827  11.468  13.178   3.651 -0.0173  0.0607  0.0756
29980W        W46828   5.949   7.664  15.665 -0.0420  0.1736  0.1851
29981W        W46829  12.859  11.210  14.007  0.0813  0.0921 -0.1419
29982W        W46830  14.190  15.534  11.993  0.1179  0.0220 -0.1848
29983W        W46831  11.686  14.490  11.400  0.0711  0.0158 -0.0702
29984W        W46832   9.350  16.073  13.429  0.1891  0.1382 -0.0950
29985W        W46833  17.759   1.820   2.873 -0.2378  0.1265 -0.0133
29986W        W46834   4.049   2.378  14.139 -0.2845  0.0411 -0.1536
29987W        W46835   9.118  16.904   2.369  0.0212 -0.1512  0.2772
29988W        W46836  15.792  11.259  16.058  0.2238 -0.0489  0.3818
29989W        W46837   6.337   5.680   5.152  0.1443 -0.0175  0.2140
29990W        W46838  13.881   2.870   2.348  0.0898 -0.2586  0.3427
29991W        W46839   7.699  15.530   3.450 -0.0287  0.1392  0.0134
29992W        W46840  15.767  12.537  12.908  0.0119  0.1827 -0.2209
29993W        W46841   8.339  17.876  14.685  0.2244  0.4207 -0.3063
29994W        W46842  12.802  13.070  11.762 -0.0045 -0.1253 -0.0730
29995W        W46843  10.687   8.878   0.204 -0.0281 -0.2308  0.0221
29996W        W46844   5.885   4.194  15.076 -0.0821 -0.2067 -0.2519
29997W        W46845   5.603   4.240   3.833  0.0213  0.2728  0.2430
29998W        W46846   1.287  17.077  13.033  0.3926  0.1351  0.0763
29999W        W46847   5.762   3.833  15.472  0.1283  0.1175  0.1550
30000W        W46848   1.034   1.128   1.861  0.3132 -0.3108  0.1286
30001W        W46849   9.717   8.359  12.069 -0.0466 -0.0964 -0.2137
30002W        W46850  15.762   1.489  15.137  0.0509 -0.1455  0.0866
30003W        W46851   0.116  17.066   4.451 -0.3103 -0.0084  0.0130
30004W        W46852   2.304   7.415   4.466 -0.1104  0.0202 -0.1028
30005W        W46853  12.768   0.260   0.473 -0.1995 -0.1706 -0.0898
30006W        W46854   9.866   3.526   4.766 -0.1495  0.0360 -0.4534
30007W        W46855  17.249   4.523   5.712 -0.1765 -0.0500  0.0688
30008W        W46856  13.965   1.825   3.139 -0.2195  0.1688  0.3260
30009W        W46857  13.403  14.550  16.266 -0.0773  0.0729  0.2286
30010W        W46858   6.874  17.559  15.207 -0.1049  0.0660  0.2277
30011W        W46859   6.009   5.317   2.798 -0.1295  0.1146  0.2693
30012W        W46860   6.122   3.712  10.534  0.0392  0.1304 -0.1477
30013W        W46861   1.836  11.367   6.065  0.0176 -0.0860  0.2564
30014W        W46862  17.539  16.828   4.864  0.2061 -0.1672 -0.4403
30015W        W46863   6.577   2.535  14.641 -0.0224 -0.0338 -0.2526
30016W        W46864   1.915   6.492   4.712 -0.0980  0.1165 -0.1685
30017W        W46865  17.840  13.517   2.536 -0.0399  0.0040 -0.3298
30018W        W46866   0.329  13.846  15.102  0.0668 -0.0686 -0.1194
30019W        W46867   2.394   7.111  10.874 -0.1144  0.0479  0.1802
30020W        W46868   4.570   1.473  14.570  0.1842  0.0340  0.1378
30021W        W46869  16.619   7.863  10.298 -0.0713  0.2913  0.0349
30022W        W46870  17.088  11.866   0.754 -0.1584  0.1947  0.0083
30023W        W46871  15.692   7.107   2.112  0.0074 -0.0811  0.0695
30024W        W46872   5.661   9.731  13.115  0.0739  0.1661  0.1204
30025W        W46873   3.369   9.178  15.144  0.1942 -0.1250  0.0124
30026W        W46874   2.901  17.430  13.742 -0.1614 -0.0089 -0.3937
30027W        W46875   5.625   7.276   1.667 -0.0007 -0.0316  0.0847
30028W        W46876  17.490   2.722   3.059 -0.1040 -0.2845 -0.0718
30029W        W46877   8.530   6.467  14.421 -0.1259  0.0918  0.1338
30030W        W46878  11.823  10.785   3.462  0.0353  0.0042 -0.0272
30031W        W46879   9.980  15.788   2.029  0.2073  0.2633  0.0364
30032W        W46880   0.665   6.354  15.486  0.1886 -0.3183  0.0165
30033W        W46881  17.330  17.081  14.122 -0.0688 -0.1511 -0.0903
30034W        W46882   5.139  15.403  14.300  0.0081 -0.0256  0.1028
30035W        W46883   5.590   9.334   0.020  0.0244 -0.0622  0.0299
30036W        W46884   4.992   0.274  12.406  0.1371  0.0476  0.0804
30037W        W46885  12.603  17.273   2.554  0.0597 -0.0987 -0.3097
30038W        W46886   9.368   2.894  13.536  0.1699 -0.0801 -0.1295
30039W        W46887   0.147   2.670  11.789  0.3477 -0.0435 -0.1508
30040W        W46888  17.868  15.625  13.193 -0.1483 -0.4224 -0.1255
30041W        W46889   0.277   0.461   6.094 -0.1166  0.0219 -0.0716
30042W        W46890   3.408  11.719  14.727 -0.1284 -0.0381 -0.0704
30043W        W46891   4.243   6.973  11.163 -0.0762 -0.1719  0.2719
30044W        W46892   6.210   1.126  11.708 -0.0888  0.0082 -0.2186
30045W        W46893   7.612   2.510   3.866  0.0558 -0.0601  0.1958
30046W        W46894   6.039   5.518  12.076 -0.1297 -0.2364 -0.0176
30047W        W46895  12.341   2.127   0.161  0.0539 -0.2003  0.1864
30048W        W46896   7.060   8.398   5.306  0.0047 -0.0390 -0.1177
30049W        W46897  13.229  17.671   0.058  0.1367  0.0965 -0.1176
30050W        W46898  14.300   0.927   1.078 -0.2269 -0.0038 -0.2610
30051W        W46899   5.198   1.693   2.638 -0.1716 -0.1781  0.1156
30052W        W46900  13.292   3.455  13.505  0.0521  0.0605 -0.0540
30053W        W46901   4.317   6.662   3.567  0.0607  0.2586  0.1278
30054W        W46902   0.805  17.007  13.370 -0.0157  0.0192 -0.2359
30055W        W46903  10.300   8.072   3.745 -0.0921 -0.0792 -0.0596
30056W        W46904  13.012   5.078  16.198 -0.3550 -0.1245  0.0953
30057W        W46905  17.619  15.501   5.195 -0.2282  0.4356 -0.0227
30058W        W46906   0.063   6.062   0.156 -0.0142 -0.1248  0.1393
30059W        W46907  14.866   9.784   0.724 -0.2149 -0.0034 -0.0120
30060W        W46908   5.132  15.581   0.040  0.1887 -0.0223 -0.2789
30061W        W46909   1.905   8.687  10.821  0.2152  0.1846 -0.3921
30062W        W46910   1.695   1.953  13.933 -0.2528 -0.0726 -0.0125
30063W        W46911   2.376  14.156   2.156 -0.0565  0.0693  0.0702
30064W        W46912  10.544   2.134   4.397 -0.1230  0.1386 -0.2585
30065W        W46913   4.637   6.827   2.338 -0.0819  0.3121 -0.3085
30066W        W46914  12.794  12.658  11.448  0.0814 -0.1835  0.0074
30067W        W46915  17.182   1.746  12.753 -0.0461  0.0467 -0.3605
30068W        W46916   5.358  15.589   3.965  0.1063  0.2097  0.2292
30069W        W46917  13.443  16.017   0.023 -0.1162  0.2881  0.2101
30070W        W46918   6.038  16.321   0.913  0.5149 -0.2187  0.0648
30071W        W46919  11.600   1.233  11.746  0.0538 -0.2572  0.1666
30072W        W46920  16.078   1.274   4.454 -0.0844 -0.0808  0.2400
30073W        W46921  11.739  11.736  14.883  0.0046 -0.0073 -0.1272
30074W        W46922  11.428  13.919  15.934  0.2267 -0.1674 -0.1819
30075W        W46923  12.164  16.644  11.543 -0.2805  0.3472  0.0863
30076W        W46924   4.119   6.015   1.926  0.3195  0.1986  0.0530
30077W        W46925   5.969  14.194  14.141 -0.2568  0.0259  0.1478
30078W        W46926   5.400  10.301   1.225  0.2030 -0.0596  0.0190
30079W        W46927   9.480   8.731   0.774 -0.1467  0.2209  0.2174
30080W        W46928  14.951   9.592   2.378  0.0030 -0.0036 -0.1891
30081W        W46929   2.118   0.847  13.904  0.1588  0.2792 -0.1919
30082W        W46930  13.594  10.887  15.396 -0.0027  0.0735  0.0213
30083W        W46931  16.991   3.526   4.834  0.0059  0.1771  0.1320
30084W        W46932  11.100   4.033   3.064  0.0227  0.0043 -0.0251
30085W        W46933   1.018   7.392  15.126  0.2316  0.2884  0.1348
30086W        W46934  14.552  17.135  13.897 -0.3102  0.2411  0.1920
30087W        W46935   6.476  17.427   2.210  0.1959 -0.2168 -0.0623
30088W        W46936  16.731  16.994  14.419 -0.1694 -0.2172  0.1199
30089W        W46937  13.352  16.572  15.969 -0.1811 -0.0033  0.4439
30090W        W46938   8.904   6.309  14.000 -0.1647 -0.0874 -0.1823
30091W        W46939  14.341  12.321   0.149 -0.2240  0.0266 -0.1897
30092W        W46940   3.986  14.311   0.889 -0.0008  0.2929  0.1513
30093W        W46941   7.829   6.213  16.450 -0.2975 -0.1476 -0.0194
30094W        W46942   1.425  13.363  11.683 -0.1140  0.2097  0.2423
30095W        W46943  16.504   9.668   0.800  0.0405  0.2464 -0.0327
30096W        W46944  10.983  10.955   4.070  0.3356  0.1676  0.1267
30097W        W46945  11.067   2.560  12.948 -0.1422  0.1817  0.1010
30098W        W46946   1.454   4.660   4.078  0.1373 -0.1081  0.1339
30099W        W46947   7.878  11.792  14.805 -0.1592  0.0625 -0.2992
30100W        W46948  11.853   7.729  12.080  0.0073  0.0995 -0.1615
30101W        W46949   7.188  13.476  14.234  0.2532 -0.1943  0.1149
30102W        W46950   1.735  10.973  15.764 -0.2030 -0.0423 -0.0829
30103W        W46951   7.624  15.531  16.122 -0.0420 -0.1092  0.4111
30104W        W46952  10.112   7.688   3.349  0.0432  0.2023  0.2678
30105W        W46953   8.146   3.736   3.928 -0.1225 -0.2992  0.1214
30106W        W46954   1.019  14.700  11.488 -0.1961 -0.2870  0.2408
30107W        W46955   7.447   7.536   1.544  0.0974  0.2699  0.0249
30108W        W46956   4.830  12.635  12.454 -0.4118 -0.1983 -0.1663
30109W        W46957  16.408   9.018   1.559  0.0182  0.0536  0.1053
30110W        W46958   4.026   8.613  12.048  0.1227 -0.2531 -0.0247
30111W        W46959   4.098   8.367  14.216 -0.1319 -0.0256 -0.1603
30112W        W46960  17.189  10.108   0.195  0.0518  0.2636 -0.1456
30113W        W46961  13.053  14.451   3.648  0.1659  0.1523 -0.3508
30114W        W46962   9.340  13.942  14.641 -0.2141  0.3386  0.0700
30115W        W46963  17.609  17.368  11.819 -0.2009  0.0420 -0.0586
30116W        W46964  12.494   6.999   3.104 -0.1763 -0.2161 -0.1550
30117W        W46965  13.915   0.419  15.156  0.4793 -0.1522  0.0033
30118W        W46966   4.974  15.583  15.577 -0.0935 -0.3407  0.0532
30119W        W46967   8.942   1.872   0.713 -0.0527  0.1529  0.1095
30120W        W46968   6.865  10.730  15.228 -0.1752  0.1583 -0.1616
30121W        W46969  10.866   2.116  12.763 -0.0430 -0.0607  0.0979
30122W        W46970  14.714  10.443  11.963  0.0345 -0.4818 -0.1806
30123W        W46971   3.511  14.156  12.657 -0.3698  0.0985  0.1550
30124W        W46972   5.120   4.618   4.394 -0.1643  0.0879  0.1500
30125W        W46973  15.779  11.698  10.839 -0.1840  0.3224 -0.2342
30126W        W46974   1.279  17.566   2.310 -0.1718 -0.3064  0.0650
30127W        W46975  16.666   1.775   0.049  0.0222 -0.1606 -0.1597
30128W        W46976   7.045   2.020   5.085 -0.0260  0.0561 -0.0017
30129W        W46977  13.125   4.737   4.240 -0.0576 -0.2565  0.0886
30130W        W46978  10.677  14.503  15.896 -0.0102  0.1010  0.1339
30131W        W46979   1.420  16.524  13.082  0.1537  0.0704 -0.1796
30132W        W46980  12.565   3.167  14.162  0.0405 -0.2310  0.3693
30133W        W46981   8.886  17.654   4.894  0.2025  0.2525 -0.1246
30134W        W46982  17.467  10.670   1.261 -0.0214 -0.0186 -0.0431
30135W        W46983  10.738  15.219   3.980 -0.0327  0.0687  0.2197
30136W        W46984   8.966  14.270   1.468 -0.3806 -0.0867  0.0596
30137W        W46985  11.355   0.525   4.891  0.0902 -0.1997 -0.0501
30138W        W46986   6.109   1.824   1.253  0.2035  0.0537 -0.1755
30139W        W46987   0.553   3.618  13.353 -0.2184 -0.2580  0.3721
30140W        W46988  13.566   2.327  13.824  0.0218  0.2235  0.1559
30141W        W46989  14.082   4.240   1.060  0.0597  0.3559 -0.0230
30142W        W46990   1.781  13.961  10.381  0.0927 -0.2280 -0.0508
30143W        W46991  13.320   1.555  10.768  0.0535 -0.0377 -0.0886
30144W        W46992   4.494   6.268  14.714  0.0418  0.0593 -0.1552
30145W        W46993   1.466  13.200   2.445 -0.0663  0.2908 -0.1763
30146W        W46994   0.776   3.981  13.115  0.2195 -0.0710  0.1978
30147W        W46995   5.149  12.838   1.308  0.1073 -0.0589  0.0099
30148W        W46996   4.853  15.326  13.402 -0.2445  0.0542  0.1130
30149W        W46997   3.677  11.583   3.957 -0.1349 -0.3221  0.1911
30150W        W46998   8.937   6.049  15.530 -0.1243 -0.1146  0.0102
30151W        W46999  10.891   7.756   0.293 -0.0585  0.2798  0.1029
30152W        W47000  10.447  13.281   4.817  0.1132 -0.1037 -0.0095
30153W        W47001   0.278   9.468   3.741  0.0084  0.0696 -0.0344
30154W        W47002  14.023   3.856   1.928 -0.3335 -0.3383 -0.1947
30155W        W47003   3.355  10.665   0.371 -0.2460 -0.2837 -0.1061
30156W        W47004   2.437   5.508   4.882 -0.1389  0.2276 -0.1221
30157W        W47005  13.976   2.975   4.407  0.1226 -0.0608 -0.0314
30158W        W47006  11.956  10.801  13.710  0.0310 -0.2566  0.0813
30159W        W47007   0.088  14.029  11.984  0.2084 -0.0503  0.1217
30160W        W47008   7.297  15.689  13.120 -0.1204  0.0445 -0.2225
30161W        W47009   9.233  14.743   1.572 -0.1295  0.2684  0.1301
30162W        W47010  11.876  14.835  15.246 -0.0037 -0.0072 -0.0216
30163W        W47011  10.029   6.263  12.197 -0.0029  0.2184 -0.0720
30164W        W47012  16.849  11.805   4.604  0.0348  0.0406 -0.2772
30165W        W47013  10.983   2.040   3.092  0.2402 -0.0046 -0.1458
30166W        W47014   4.183   7.811   0.437 -0.0068 -0.1090  0.0206
30167W        W47015   9.809  11.453   1.210 -0.1126  0.3058 -0.1646
30168W        W47016   4.484   6.388   1.996  0.0726 -0.0139  0.0878
30169W        W47017   2.965   0.713  15.086  0.4504  0.0358  0.0137
30170W        W47018   4.846   6.704   1.916  0.1276 -0.0536 -0.0566
30171W        W47019  16.696  12.411  11.625 -0.0064  0.1307  0.0202
30172W        W47020   5.602  11.256   1.328 -0.0986  0.0054 -0.3129
30173W        W47021   3.568   6.256  14.851  0.1446 -0.1319 -0.1649
30174W        W47022   6.387  14.022   3.277 -0.2449 -0.1271  0.3387
30175W        W47023  10.497   8.551  12.620 -0.0797 -0.0751 -0.1559
30176W        W47024  15.855   8.918  15.990  0.0431  0.3359 -0.1580
30177W        W47025  13.416  10.365  12.437 -0.0918  0.3026 -0.2879
30178W        W47026   0.229  14.236  16.197 -0.0687  0.0533  0.2424
30179W        W47027  17.143  15.529   0.768  0.1397  0.0880 -0.1113
30180W        W47028   0.994  17.726  11.201  0.2934  0.3264  0.0545
30181W        W47029   8.697  12.071  16.062  0.0615 -0.2817 -0.2716
30182W        W47030  13.616  15.938   4.600 -0.1262  0.0494 -0.1498
30183W        W47031   8.878   6.866   2.946 -0.0047  0.0219  0.2161
30184W        W47032   9.003  13.868   2.572  0.3140 -0.1557 -0.0877
30185W        W47033  16.712  10.190  11.439  0.2119  0.1931 -0.0001
30186W        W47034  12.571   8.899   1.442  0.0886 -0.2190  0.0401
30187W        W47035  13.862   5.338  11.210 -0.1935 -0.5854 -0.0866
30188W        W47036   6.644   0.209   3.308  0.1005  0.1879  0.0951
30189W        W47037   3.161   4.095  11.623  0.1296 -0.2268  0.2605
30190W        W47038   1.291  16.843   1.606 -0.1058  0.0042  0.0075
30191W        W47039   7.772  11.326  15.054  0.2065  0.1224  0.1081
30192W        W47040  13.973   6.125   3.070  0.3045 -0.0087 -0.1298
30193W        W47041   8.812   4.332   4.423  0.1086 -0.1007 -0.1841
30194W        W47042  17.671   3.919  13.061 -0.2770 -0.0049  0.3546
30195W        W47043  11.005   4.039  14.613  0.1245 -0.1472  0.0758
30196W        W47044   9.359   2.875  16.314 -0.2828  0.0125  0.1076
30197W        W47045  10.511   5.054  12.831 -0.0863 -0.0887 -0.1154
30198W        W47046  10.876   8.244  10.667 -0.1416  0.1098  0.0243
30199W        W47047  10.828   9.610   4.314 -0.1676  0.1643 -0.2327
30200W        W47048   9.764  17.207  11.402  0.1941  0.1201 -0.0993
30201W        W47049  14.672  13.315   1.184  0.0012  0.0610 -0.0211
30202W        W47050  16.672   3.011  11.708 -0.1725 -0.2063  0.1497
30203W        W47051   2.831   7.546   0.622 -0.0499 -0.0541 -0.1359
30204W        W47052   7.495   1.041   1.914  0.1023 -0.0118 -0.1259
30205W        W47053   7.314   8.635   0.655  0.0973 -0.0736 -0.0597
30206W        W47054  15.746   8.286  11.923 -0.0026 -0.0895  0.0301
30207W        W47055   7.031  10.946   2.466  0.1099 -0.2032  0.0865
30208W        W47056  15.112   4.954  11.368  0.2387  0.0428  0.0450
30209W        W47057   0.310   3.304  15.851  0.3251 -0.0562 -0.0493
30210W        W47058   1.501  13.270  13.032  0.1138 -0.0546 -0.4362
30211W        W47059  11.736   0.306   5.185  0.0726  0.0193  0.4151
30212W        W47060  15.611  10.229   4.427  0.1573  0.1763 -0.3656
30213W        W47061  14.636  13.270   0.382  0.0655  0.1963 -0.1559
30214W        W47062  13.852  13.592  16.424 -0.0131 -0.1244 -0.4686
30215W        W47063   0.653   3.999   1.740 -0.0424 -0.0579 -0.0329
30216W        W47064  13.572   8.784  14.943 -0.0644  0.0050  0.0318
30217W        W47065  12.391  16.783  12.467 -0.1659 -0.0784  0.2076
30218W        W47066   3.994  12.910   0.278  0.1391 -0.3180 -0.1440
30219W        W47067   0.084   1.154  15.031 -0.2465  0.0801  0.1558
30220W        W47068   0.379  11.597   1.959 -0.2184  0.0076  0.0162
30221W        W47069   0.644   8.768   2.763 -0.2396 -0.2513 -0.0405
30222W        W47070   7.082   2.068  13.008 -0.2053  0.0954 -0.1708
30223W        W47071  14.578   3.124   1.165  0.0507  0.1240  0.0543
30224W        W47072   0.522   4.782   0.646 -0.0581  0.0150 -0.1783
30225W        W47073  14.782   7.246  14.620  0.0828 -0.3261 -0.0453
30226W        W47074   7.459  17.879   4.418  0.1328 -0.0422  0.0160
30227W        W47075  17.048  17.275  16.056 -0.0472 -0.1672 -0.3310
30228W        W47076   0.207  11.174   4.749  0.1115  0.0321  0.0288
30229W        W47077  14.655   4.952  15.968  0.0932 -0.1985  0.3550
30230W        W47078  10.339   4.745   1.836 -0.0458  0.0078  0.1878
30231W        W47079   0.474  13.837  15.711 -0.1745 -0.0088 -0.0336
30232W        W47080   8.480   8.621  16.376 -0.2405 -0.1629 -0.0243
30233W        W47081  15.684  15.817   0.809  0.2186 -0.2629  0.0078
30234W        W47082  17.801   9.791  14.383 -0.1246  0.5696  0.1167
30235W        W47083   9.855   3.622  13.542  0.0946  0.0275  0.1017
30236W        W47084   4.552   3.411  13.523  0.1015 -0.0370 -0.0963
30237W        W47085  16.987   6.974  11.674  0.3074 -0.1025 -0.1472
30238W        W47086   5.473   5.831  12.961  0.1457 -0.0419  0.0170
30239W        W47087   7.480   9.288   5.012  0.2899 -0.1568 -0.0317
30240W        W47088  13.371   0.069   1.768 -0.0904 -0.2127  0.0555
30241W        W47089   4.647   0.575   2.686 -0.0585 -0.2792 -0.2804
30242W        W47090   4.565  10.019  16.017  0.3075  0.2089  0.3024
30243W        W47091  14.643  13.470   2.906  0.2696  0.0597  0.0614
30244W        W47092   4.740   8.616  13.802 -0.0657  0.0984  0.2475
30245W        W47093   6.181   0.404   2.525  0.1038  0.2182 -0.0531
30246W        W47094   9.318  16.076   3.270  0.0265 -0.0114 -0.0984
30247W        W47095  14.532   8.962  14.860  0.0812  0.2326 -0.0350
30248W        W47096   8.447   9.916  15.833 -0.0701 -0.0838  0.1185
30249W        W47097  12.191  17.802  12.807 -0.0534 -0.1140  0.0466
30250W        W47098   7.768  12.826   0.139  0.1598  0.1488 -0.1894
30251W        W47099  15.683   4.840   3.866 -0.1562  0.0995  0.1519
30252W        W47100  10.658   1.464   1.659 -0.2489  0.0832 -0.0387
30253W        W47101  12.033  16.800   2.161 -0.0109  0.0275 -0.2690
30254W        W47102  16.237   3.677   3.266  0.0340 -0.0237 -0.1427
30255W        W47103   7.046   2.993   2.044  0.2468  0.0178  0.2352
30256W        W47104  14.613   0.852  13.553 -0.0202  0.1713  0.2681
30257W        W47105  12.000   8.133  13.500  0.2611 -0.0155 -0.0582
30258W        W47106   3.342   9.725   4.210  0.2044  0.0123  0.4262
30259W        W47107   4.061   3.316  12.754  0.0041 -0.0982  0.0916
30260W        W47108  14.265   3.850  14.392 -0.0238  0.2854  0.0254
30261W        W47109  10.817  11.158   1.494  0.0087 -0.1103 -0.1838
30262W        W47110  11.676   1.277   0.179 -0.0608  0.1852 -0.2505
30263W        W47111  16.042  16.236  14.644  0.0189 -0.0964  0.0246
30264W        W47112  16.691  12.397   0.376  0.1742  0.1006  0.3623
30265W        W47113  16.694  16.629   0.521 -0.0304 -0.2855 -0.0516
30266W        W47114   6.728   5.443   3.544  0.1050  0.2430  0.0079
30267W        W47115   1.953   0.157   5.311 -0.2692  0.0055  0.0977
30268W        W47116  14.838  10.992  12.817 -0.2202 -0.1026  0.1204
30269W        W47117  12.948   7.917   2.244  0.3562  0.1509  0.0851
30270W        W47118   5.747   2.507   4.244  0.1060  0.1294 -0.2171
30271W        W47119   5.486  15.968  16.439 -0.2362  0.4274 -0.1291
30272W        W47120   1.980   3.947  14.743 -0.0056 -0.1914  0.3840
30273W        W47121  10.562   3.623   4.122  0.0136 -0.0118  0.4311
30274W        W47122  15.877  17.648  14.505 -0.1984 -0.1636 -0.0694
30275W        W47123   5.375   5.650   0.063 -0.1342  0.0536 -0.0741
30276W        W47124  10.331   5.289  14.630 -0.0654  0.0949  0.1440
30277W        W47125   9.880   2.768  13.951 -0.2063  0.1292 -0.0461
30278W        W47126   1.389   2.775  14.082 -0.0586 -0.0002  0.0997
30279W        W47127   5.335   4.935   2.723 -0.0326  0.0635  0.2740
30280W        W47128   9.229  11.571  13.730  0.0059  0.3098 -0.0320
30281W        W47129   8.514   4.934  14.334  0.0909  0.0209  0.1384
30282W        W47130  15.817   6.229  15.410  0.2229  0.1182 -0.0713
30283W        W47131  12.950   2.317  14.924  0.1895  0.3055  0.0995
30284W        W47132   9.587   0.498  12.906 -0.0240 -0.0694 -0.1613
30285W        W47133  10.507   6.212  15.914  0.2583 -0.0286  0.1824
30286W        W47134   8.610  12.576   3.790  0.0041  0.0380  0.0410
30287W        W47135  17.545   4.760  14.236 -0.0618 -0.2595  0.1572
30288W        W47136   8.180  12.078   3.394 -0.0869 -0.1618  0.2544
30289W        W47137  15.446   0.267   2.746 -0.0832  0.0486 -0.0763
30290W        W47138  15.811   6.587  11.459 -0.0085  0.0552 -0.1573
30291W        W47139   4.524   6.820  15.458 -0.3254 -0.0376 -0.2321
30292W        W47140   1.117   6.889   3.016  0.3650 -0.0295  0.1792
30293W        W47141   8.129  15.614  12.256  0.1683 -0.0140 -0.0424
30294W        W47142   6.848   8.534   4.869  0.3662 -0.2160 -0.0134
30295W        W47143   2.118   1.238   2.770  0.3339 -0.1107 -0.1473
30296W        W47144  11.731   8.973   1.015  0.0045 -0.0994  0.0944
30297W        W47145   8.392   2.622   2.105 -0.0722 -0.3525  0.1708
30298W        W47146  16.528   6.511   3.789 -0.1599 -0.1068 -0.0985
30299W        W47147   8.897  10.116   2.400 -0.0973 -0.1030  0.1014
30300W        W47148   7.380  11.960  12.111  0.2990  0.1156  0.0102
30301W        W47149  17.794  12.742  13.215 -0.0635  0.1845 -0.0813
30302W        W47150   6.705  11.603   0.252 -0.2770  0.2248 -0.2478
30303W        W47151   3.564  17.224   0.158  0.1678 -0.2970 -0.1780
30304W        W47152   1.879   6.462  14.637  0.0215 -0.0017  0.0791
30305W        W47153   6.252  16.005   0.357  0.0211 -0.1833 -0.1040
30306W        W47154   8.116   3.482  13.283  0.2700 -0.0675  0.1150
30307W        W47155   6.481   6.889   5.008  0.0202 -0.3122 -0.0009
30308W        W47156  10.312  13.314   0.863  0.5468  0.1091  0.1044
30309W        W47157   2.381  12.380  12.735  0.0574 -0.0221  0.2027
30310W        W47158   6.138  10.954  10.609 -0.3279 -0.1099 -0.2292
30311W        W47159  12.963  13.993   4.113 -0.2068  0.0630 -0.2071
30312W        W47160  17.509  15.503   0.436  0.0118 -0.2155  0.2506
30313W        W47161  17.027  16.210  11.075  0.0930 -0.0973  0.0986
30314W        W47162   5.743   5.692  12.491 -0.0730 -0.4885  0.0473
30315W        W47163   2.346   5.278  14.915 -0.2199  0.3192 -0.0177
30316W        W47164   2.433   4.102  15.115 -0.1465  0.1818  0.3205
30317W        W47165   5.881   4.083   4.257  0.2832  0.4901  0.0703
30318W        W47166   0.773  17.047   3.935 -0.1484  0.0476  0.0326
30319W        W47167   8.372   9.318   4.873 -0.0504 -0.0112  0.0709
30320W        W47168  10.957  14.265   5.200  0.0518 -0.1219 -0.1215
30321W        W47169   6.607  10.470   1.854 -0.0398 -0.1297  0.0441
30322W        W47170   7.357   8.908  14.205  0.1278 -0.0508  0.1143
30323W        W47171  14.625  13.081  10.504  0.2742  0.2555 -0.1288
30324W        W47172   2.345   8.718  13.760 -0.0063  0.0685 -0.2438
30325W        W47173   9.145  14.994   4.718  0.0465 -0.0407  0.2355
30326W        W47174  16.317  10.353  16.065  0.0374 -0.1548 -0.0114
30327W        W47175   5.509   1.923   0.845 -0.2646  0.0283 -0.1063
30328W        W47176   7.060  11.831   2.057 -0.4585  0.1049  0.2299
30329W        W47177   5.879   8.390  16.255 -0.1075  0.1655  0.0356
30330W        W47178   7.978   2.380   1.932 -0.1294  0.1352  0.0882
30331W        W47179   7.231   9.702   4.901 -0.0014 -0.1269  0.0318
30332W        W47180  13.702   5.499   5.057 -0.2456  0.4487 -0.0480
30333W        W47181   7.791   9.256  12.753 -0.1665 -0.0986 -0.3346
30334W        W47182   4.679  14.766  13.002 -0.0317 -0.0559 -0.0772
30335W        W47183   7.605  17.828  15.225  0.0297 -0.0192 -0.1302
30336W        W47184   8.004   6.508  16.054 -0.0961  0.0427  0.0248
30337W        W47185  14.706  10.088   2.429 -0.1779 -0.3932  0.0646
30338W        W47186   2.960  16.608  13.964  0.1176 -0.0812 -0.3118
30339W        W47187   1.242   4.149   4.863 -0.0827  0.3184  0.0857
30340W        W47188  15.229   7.219  15.501  0.1237  0.2958  0.0235
30341W        W47189   9.928   6.148   2.175 -0.2190 -0.0433 -0.1294
30342W        W47190  11.840   9.452  14.926  0.1987  0.0528 -0.2183
30343W        W47191   4.858   4.024   1.517  0.3265 -0.1636  0.1806
30344W        W47192  10.654  16.898  16.325  0.0113  0.4357 -0.1660
30345W        W47193   5.296   2.848  10.852 -0.0740  0.0993  0.0939
30346W        W47194  15.162   6.276   4.164 -0.2228  0.0186  0.0840
30347W        W47195   1.408  12.229  15.482 -0.0988 -0.1907 -0.0582
30348W        W47196   8.660   9.720   3.145  0.0499 -0.0251 -0.0879
30349W        W47197   6.096  14.398   2.043  0.1771 -0.0604  0.1241
30350W        W47198   9.020  11.078  15.504 -0.1240  0.2414 -0.0007
30351W        W47199  10.085  11.810  14.751 -0.6796 -0.1940  0.1190
30352W        W47200   9.136   2.023   3.162  0.3747  0.1465 -0.1101
30353W        W47201   3.987  16.010  12.558  0.0678  0.0222 -0.0721
30354W        W47202   4.880  11.612   3.410 -0.0249  0.1910 -0.1727
30355W        W47203  13.292   0.241  10.768 -0.0789  0.0420 -0.2539
30356W        W47204  13.357  16.824   0.290  0.0218 -0.0793  0.1574
30357W        W47205   4.747  15.182  13.896 -0.0545 -0.0709  0.0925
30358W        W47206   9.419   6.528   2.987  0.0409  0.0353 -0.3058
30359W        W47207  14.931   4.984  15.470 -0.2955  0.0315  0.2829
30360W        W47208   3.369   1.617   3.284 -0.1120  0.2023 -0.2527
30361W        W47209  17.885  16.985  15.123  0.0692  0.0438 -0.2185
30362W        W47210   4.505   3.547   3.860 -0.1446  0.0911  0.1535
30363W        W47211   0.250   0.930  14.613  0.1804  0.1563 -0.1082
30364W        W47212  15.448   6.414   0.248 -0.2469 -0.0630 -0.1326
30365W        W47213  14.818   5.290  14.426  0.0208  0.0310  0.0809
30366W        W47214   3.044  14.172   0.665 -0.0927  0.0396 -0.2237
30367W        W47215   6.688   9.495   0.016 -0.3242 -0.1030 -0.1617
30368W        W47216   1.457   5.364   0.126  0.1044  0.1904 -0.0135
30369W        W47217   4.396  17.316  16.290 -0.0030  0.0269  0.1623
30370W        W47218   2.398  16.224   4.349  0.1414 -0.1758  0.1216
30371W        W47219   0.873   7.353  12.455  0.0918  0.0559 -0.0645
30372W        W47220  14.173   5.073  16.111 -0.1244  0.1863  0.1613
30373W        W47221  15.508  17.180  16.363 -0.3530  0.2674  0.0609
30374W        W47222   7.664   1.921   3.215 -0.0762  0.2610 -0.1197
30375W        W47223  13.707   0.813  16.287  0.0250 -0.1957 -0.3661
30376W        W47224   5.118  13.950   1.521  0.5225  0.0724  0.2333
30377W        W47225   2.826  14.098  11.824  0.1211 -0.1199 -0.3006
30378W        W47226  12.577   8.689  13.048  0.0583 -0.0999  0.0966
30379W        W47227  14.501   3.761   3.350 -0.0564  0.3071  0.2877
30380W        W47228   3.760  17.788   0.232  0.0624 -0.1846 -0.0240
30381W        W47229   2.812  10.839   1.687 -0.2059  0.0107  0.0220
30382W        W47230   9.381   8.644  16.368 -0.3405 -0.0624 -0.1233
30383W        W47231  14.040   2.532  14.834  0.1899 -0.0620 -0.0526
30384W        W47232  17.252   3.626   3.988  0.4240  0.3022 -0.1137
30385W        W47233  13.429  14.261  13.893 -0.2773 -0.0875 -0.1132
30386W        W47234   7.978  15.342  15.883  0.1557  0.0663 -0.0168
30387W        W47235   3.175   8.526   3.339 -0.1696 -0.2117 -0.0349
30388W        W47236   6.347   7.658   4.808 -0.2402 -0.2856 -0.1335
30389W        W47237   0.367   9.352   4.781  0.0399  0.0966 -0.2389
30390W        W47238   8.342   8.802   2.193 -0.2640 -0.1783 -0.0253
30391W        W47239  17.376  14.268   3.402  0.1712  0.0467 -0.0502
30392W        W47240  12.186  13.000   0.517  0.2965 -0.0087  0.0534
30393W        W47241   1.423   8.240   2.016  0.0934 -0.0900 -0.0464
30394W        W47242  12.797   2.484   3.462 -0.4795 -0.2624 -0.2561
30395W        W47243  14.446   9.163   0.149  0.3071 -0.0512 -0.2729
30396W        W47244   4.152   9.695  16.246 -0.2422 -0.4321  0.1348
30397W        W47245  16.744   4.467   4.152 -0.0244 -0.0908 -0.0043
30398W        W47246   7.613   7.216   1.875 -0.0375 -0.1453  0.1197
30399W        W47247  13.520   3.464   0.217 -0.0316  0.2490  0.0043
30400W        W47248  14.102  14.545   3.555  0.0796  0.0369 -0.0523
30401W        W47249   4.772   4.517   1.606 -0.0923 -0.0292  0.1779
30402W        W47250   5.239   4.659  11.986  0.0258 -0.0612  0.1634
30403W        W47251  11.279  13.143   0.645 -0.5569  0.0240 -0.3726
30404W        W47252  11.182   4.627   3.801 -0.1773 -0.2638  0.1628
30405W        W47253   5.766  15.475  11.631 -0.0742  0.2038  0.0102
30406W        W47254  17.040  16.215   3.782  0.1746  0.0385  0.0975
30407W        W47255   6.229  10.242  14.351 -0.0299 -0.2183  0.0739
30408W        W47256   7.365  10.424   1.452  0.0526 -0.2008 -0.2515
30409W        W47257   3.464   5.858   0.731 -0.0078 -0.1223 -0.3273
30410W        W47258  16.579   8.763   4.942  0.0861  0.1730  0.3075
30411W        W47259   1.627   1.556  13.319  0.0986 -0.0276 -0.0681
30412W        W47260  11.313   2.934  12.583  0.3180 -0.0060  0.4435
30413W        W47261   2.906   1.744  14.480  0.1311 -0.0022  0.1694
30414W        W47262  15.499  13.621  13.724 -0.0227  0.2215 -0.1081
30415W        W47263  11.062  10.202   2.921 -0.1586  0.1000 -0.1741
30416W        W47264  12.467   1.302  14.936 -0.0090 -0.1702 -0.0766
30417W        W47265   0.399  11.395  14.946  0.2379 -0.1958 -0.0128
30418W        W47266   4.233   9.033  11.823 -0.1176 -0.1853 -0.0579
30419W        W47267   4.692  12.616   5.561 -0.0757 -0.0631 -0.1829
30420W        W47268  10.428  13.841  15.138 -0.1745  0.3437 -0.1382
30421W        W47269  10.623   9.527  14.917  0.2071 -0.1154 -0.0333
30422W        W47270  11.312  15.881   0.478  0.0968 -0.0130  0.1364
30423W        W47271  12.893  17.687  14.445  0.4357 -0.0526  0.1411
30424W        W47272   7.471  12.685  14.658  0.1264 -0.3105  0.0473
30425W        W47273  12.404  10.822  13.950  0.1076 -0.0100 -0.0066
30426W        W47274  12.007  13.444   3.812 -0.5335  0.4053 -0.1807
30427W        W47275  11.221   5.164   2.338 -0.3768 -0.0706  0.1425
30428W        W47276   6.671  12.083   1.748 -0.0935 -0.2351  0.0255
30429W        W47277  15.206   7.239  14.276  0.0372  0.0163 -0.1355
30430W        W47278  12.587   6.437  12.544 -0.1291  0.1275 -0.0147
30431W        W47279  10.558  13.711   6.090 -0.2554 -0.3124  0.0942
30432W        W47280  14.171   5.654  12.576 -0.0056 -0.2172  0.2422
30433W        W47281   0.633   2.378   1.325  0.0814 -0.0741  0.1422
30434W        W47282   4.341   5.386  13.639 -0.1722 -0.0639 -0.1157
30435W        W47283   7.207  14.861   2.159  0.0413  0.1134  0.1664
30436W        W47284  13.447  11.010   1.709  0.0948 -0.0858 -0.4493
30437W        W47285  16.661  12.388   2.133  0.0320 -0.1304  0.1342
30438W        W47286  10.165   2.478   4.465  0.1038  0.0176  0.0502
30439W        W47287   9.472  12.922  15.788 -0.1097  0.0503  0.1696
30440W        W47288  16.751   8.874  13.657  0.1295 -0.1898 -0.0756
30441W        W47289  16.806   2.400   3.417 -0.1210 -0.1100 -0.2686
30442W        W47290  12.874   4.062  11.554 -0.0874  0.1155  0.0637
30443W        W47291   7.131  15.248  13.269  0.1099 -0.3307 -0.4053
30444W        W47292  12.924  17.459  15.443  0.1264  0.0879 -0.2587
30445W        W47293   1.900  17.612  11.677  0.0806 -0.0198  0.0746
30446W        W47294   9.750  16.712   4.706  0.1300 -0.0476  0.0371
30447W        W47295  11.706  14.274  14.490  0.1118  0.1888 -0.0889
30448W        W47296   6.236   5.902   0.516  0.1716  0.2983 -0.1210
30449W        W47297   9.110   9.744   3.371 -0.1307  0.0396 -0.1031
30450W        W47298   2.730  17.079   0.432  0.2693 -0.1484  0.1898
30451W        W47299   5.175  16.835  13.447 -0.0863 -0.1058 -0.1279
30452W        W47300   3.252  11.710  12.132 -0.0448  0.0286  0.2846
30453W        W47301   2.981  11.228   1.305  0.2051 -0.0878  0.0615
30454W        W47302  14.034   6.016  15.394  0.0695 -0.0267 -0.2074
30455W        W47303  16.712   3.720   1.614  0.1362  0.1314  0.0290
30456W        W47304   0.472   7.607  16.304 -0.0892  0.1172 -0.2522
30457W        W47305  14.501   7.611  13.323  0.0071 -0.1506 -0.1803
30458W        W47306   5.799  15.437  12.150  0.1126  0.0904  0.1065
30459W        W47307   4.909   6.080  13.630  0.0436 -0.1719 -0.1281
30460W        W47308  13.479   4.447  11.188 -0.0009 -0.1066  0.1531
30461W        W47309   6.212   7.593   0.028  0.3706  0.3084 -0.1731
30462W        W47310   4.582   3.674   4.347 -0.1719  0.0030 -0.2241
30463W        W47311  11.641   8.731   5.290 -0.1125  0.2474  0.1784
30464W        W47312  12.751  12.302   4.571  0.3042 -0.0446  0.2750
30465W        W47313   0.032  12.000   9.876  0.1193 -0.1179  0.1461
30466W        W47314   4.228   3.558   5.832 -0.2340 -0.0792  0.1154
30467W        W47315   5.155   5.837  15.488 -0.2227  0.1262  0.0503
30468W        W47316   8.022  11.674   3.958 -0.0070 -0.1424  0.1336
30469W        W47317  13.786   6.779   4.759  0.1720  0.0396 -0.1826
30470W        W47318  17.515  11.817   3.151  0.2869 -0.1543  0.0816
30471W        W47319  13.983   8.021   1.886 -0.0222  0.3123  0.0007
30472W        W47320   9.406   5.574  15.278 -0.0474 -0.4349  0.0493
30473W        W47321   5.260  17.117   0.632  0.1569 -0.0098 -0.0009
30474W        W47322   4.981   9.240   1.384 -0.0233 -0.0856  0.0849
30475W        W47323  13.936   9.967  12.223 -0.4392  0.2202  0.1036
30476W        W47324  10.899  12.520   1.926  0.2699 -0.1061  0.1807
30477W        W47325  16.209   1.095  12.263  0.0736 -0.0891  0.0780
30478W        W47326   3.868   7.471   2.419 -0.1696  0.0305  0.2434
30479W        W47327  12.227   6.643   4.194  0.2293  0.0895  0.2148
30480W        W47328  12.089  13.658  13.349 -0.0204 -0.0317  0.0652
30481W        W47329  13.540   8.894  13.414  0.0959  0.0181 -0.2196
30482W        W47330   7.932  11.693   2.300 -0.3131 -0.0739  0.1183
30483W        W47331  14.169  17.356   0.294 -0.0861 -0.0072 -0.2680
30484W        W47332   4.828  17.585  16.369 -0.1630  0.0992 -0.2374
30485W        W47333   7.183  14.627   2.923 -0.1343  0.0877  0.0855
30486W        W47334  14.520   1.197   5.336 -0.2370 -0.0431  0.0562
30487W        W47335   7.628   8.094   3.382 -0.0687  0.0752 -0.0547
30488W        W47336   5.038   4.142  13.966  0.2550 -0.6036  0.0469
30489W        W47337  11.370   6.191   1.471 -0.2201 -0.0489  0.2523
30490W        W47338   6.827   3.856  14.764  0.0462 -0.0510 -0.1716
30491W        W47339   3.005  11.166   4.151 -0.3813 -0.1618  0.0497
30492W        W47340   2.845   6.601   0.411  0.0431 -0.2724 -0.2931
30493W        W47341   7.284   7.765   3.128  0.2866 -0.0543 -0.0322
30494W        W47342  15.820   5.484  11.538  0.0161 -0.2182 -0.1313
30495W        W47343   4.125  12.313  14.557  0.0055  0.1451 -0.1579
30496W        W47344   3.098  16.144  12.038 -0.3397 -0.1794 -0.1891
30497W        W47345  10.054  10.043  14.269  0.2928  0.0907 -0.0079
30498W        W47346   0.909   6.811  12.628 -0.1976 -0.0700 -0.0144
30499W        W47347   0.700   2.532   1.876 -0.0727  0.0182 -0.0579
30500W        W47348  14.773  13.463   4.733  0.1992 -0.4109 -0.1497
30501W        W47349  15.961  15.137   1.931 -0.2780  0.0871  0.0696
30502W        W47350   3.737   5.546   3.360 -0.2821 -0.1985  0.1646
30503W        W47351   7.298   6.603   1.043  0.2636  0.0924 -0.0696
30504W        W47352   8.714   3.551  10.825 -0.3452 -0.0554 -0.0129
30505W        W47353   8.862  17.636   0.229  0.1332 -0.0227 -0.2128
30506W        W47354  17.050  15.127  12.880  0.0768 -0.1547 -0.2613
30507W        W47355  16.037   1.086   2.827  0.0734  0.1525  0.3744
30508W        W47356  17.165   6.713   2.274  0.1401  0.3410  0.0654
30509W        W47357   6.301  16.738   0.722 -0.1989  0.2230 -0.1539
30510W        W47358  17.505   1.477   4.893 -0.4435  0.0116  0.1336
30511W        W47359  14.468  11.627  12.974  0.0648 -0.4812 -0.3148
30512W        W47360  10.113  12.746  14.324  0.0226  0.1017  0.0358
30513W        W47361   8.720  17.198  14.746  0.0331  0.0802  0.0382
30514W        W47362   0.765   4.685   4.168  0.4222 -0.0517 -0.2200
30515W        W47363   8.390   1.775   4.035  0.0418  0.1042 -0.3694
30516W        W47364   8.457  16.397   3.492 -0.1847  0.1718  0.1565
30517W        W47365   7.139  16.947   2.550  0.4277 -0.3452 -0.1312
30518W        W47366  11.341   7.183   3.165  0.0704  0.0940  0.0732
30519W        W47367   4.525   8.624  11.884 -0.0630  0.0094 -0.0184
30520W        W47368  10.313  12.843   0.117 -0.1012 -0.1252 -0.0626
30521W        W47369   3.287   9.527  13.674 -0.0757 -0.0034  0.2107
30522W        W47370  15.034   0.095  14.506  0.1115  0.0633 -0.0926
30523W        W47371  11.383  11.187  15.560 -0.1620 -0.0626  0.2686
30524W        W47372   0.937  10.211   4.998  0.1188 -0.1844 -0.0107
30525W        W47373  14.382  11.965  13.828 -0.3073  0.2051  0.3057
30526W        W47374   6.920  17.417  13.031 -0.0504  0.1149 -0.0105
30527W        W47375  17.547  16.372   3.775  0.2215 -0.0997  0.0857
30528W        W47376  12.196   9.415  12.755  0.1530 -0.1728  0.0988
30529W        W47377   3.035   5.897  15.939  0.1052 -0.1009  0.0186
30530W        W47378  16.194  12.049   0.304 -0.1044 -0.2238  0.0175
30531W        W47379   8.360  14.576  12.351 -0.0875 -0.1389 -0.0427
30532W        W47380   7.543   8.082  12.868  0.1311 -0.0523  0.0363
30533W        W47381   1.620  14.519   2.005 -0.0709  0.1306 -0.0111
30534W        W47382  10.493   3.128   3.089 -0.2843  0.0195 -0.0740
30535W        W47383  14.797   0.146  11.674 -0.0156 -0.1153 -0.0032
30536W        W47384   7.020   2.512  10.934  0.1813 -0.0668 -0.0619
30537W        W47385   8.575   9.071  12.559  0.0781  0.1991 -0.0065
30538W        W47386   6.809   5.127  15.614 -0.1036 -0.0928 -0.3570
30539W        W47387   0.293   3.771   4.372  0.3179 -0.0694 -0.1244
30540W        W47388  16.765   3.441  15.007 -0.0133 -0.1823  0.2319
30541W        W47389  15.754   3.376  11.881 -0.1215  0.2711 -0.1448
30542W        W47390  13.577  12.756  13.173 -0.1766 -0.2235 -0.0136
30543W        W47391  14.014  13.155  11.250 -0.0318  0.2561  0.0177
30544W        W47392  10.995  10.028  12.460  0.0647 -0.0238 -0.0382
30545W        W47393  17.216   1.687   2.643 -0.1288 -0.2106  0.1936
30546W        W47394   4.957   4.935  12.895 -0.1516  0.1268 -0.0279
30547W        W47395  12.643  15.213   3.840  0.0952  0.1226 -0.0508
30548W        W47396   3.345  17.646   3.116 -0.0325  0.0048  0.2387
30549W        W47397  14.773   8.674  13.133  0.3180  0.0635  0.2579
30550W        W47398   6.577   3.250   4.253  0.0171 -0.2105  0.2759
30551W        W47399   7.095  13.178  13.677 -0.2983  0.0424 -0.2584
30552W        W47400   5.659  11.514   1.745  0.0276 -0.1786  0.3004
30553W        W47401  15.979   3.462   0.883  0.2332 -0.0136  0.0942
30554W        W47402  16.619   5.043  12.475  0.1584  0.0490  0.1977
30555W        W47403   5.178  14.462   5.194  0.0777 -0.3716  0.1893
30556W        W47404  17.859  11.071   3.730  0.2847 -0.3357 -0.1412
30557W        W47405  12.017  13.712   2.376 -0.3001  0.0126  0.1225
30558W        W47406   9.703  16.639   0.753 -0.2688 -0.1248  0.1716
30559W        W47407   4.376  11.767   3.464 -0.0217  0.2005 -0.0502
30560W        W47408  16.141   1.863   1.938 -0.3891 -0.0499 -0.1341
30561W        W47409  16.668   2.107   1.331  0.0791  0.2691  0.2301
30562W        W47410  14.684  14.984  13.724 -0.0360 -0.3825  0.4760
30563W        W47411   1.238   4.941  13.065 -0.0190 -0.0835  0.0992
30564W        W47412   9.277   3.894   5.506  0.0648 -0.0641 -0.2619
30565W        W47413   2.312  13.879  13.131 -0.1003 -0.0854 -0.2460
30566W        W47414   7.774  10.452  11.223 -0.2684  0.1044  0.1490
30567W        W47415  14.993   2.275   1.034  0.0668  0.0184 -0.0930
30568W        W47416   4.299  17.267  14.527  0.1722  0.1790  0.0342
30569W        W47417   9.586   8.111  14.468  0.0272  0.1996  0.2314
30570W        W47418   3.059   1.351  15.816  0.0774 -0.1008  0.1978
30571W        W47419  13.048   2.070   3.279 -0.0367 -0.0895  0.1230
30572W        W47420  15.711  15.873  12.866  0.0100  0.2831 -0.1222
30573W        W47421  10.723   5.751   4.282 -0.1060  0.1297  0.3624
30574W        W47422  14.637   5.613  12.266 -0.0151  0.0075  0.2001
30575W        W47423  13.698   4.235   2.025 -0.0452  0.0138  0.2552
30576W        W47424  14.409   5.154  14.018 -0.0776 -0.2226 -0.0887
30577W        W47425   3.045  14.407  12.630 -0.2223  0.3476 -0.0694
30578W        W47426   7.243  15.009   1.270  0.1537  0.2626  0.3004
30579W        W47427   8.073  15.960  14.734  0.2677 -0.3370 -0.0587
30580W        W47428   3.477   3.086  15.758  0.3532  0.1383  0.0105
30581W        W47429   8.830   7.557  14.385 -0.1690 -0.0253 -0.2490
30582W        W47430   9.822   8.869  12.671  0.2179 -0.1754  0.0460
30583W        W47431  15.100   3.871  11.666  0.0966 -0.0828  0.2799
30584W        W47432   6.506   7.896  14.904  0.0209 -0.2153 -0.2833
30585W        W47433   4.340   3.053  13.129  0.1198 -0.1714  0.0397
30586W        W47434   1.677  16.709  11.494  0.1130  0.1586  0.2335
30587W        W47435   5.729   1.474   1.050 -0.1006  0.3286  0.1404
30588W        W47436   5.512  14.904   5.413 -0.1401  0.0669  0.1361
30589W        W47437  14.224   2.206  15.244 -0.1630 -0.0644 -0.0072
30590W        W47438   7.774   6.612   1.772 -0.2446  0.2422 -0.1210
30591W        W47439  15.214  17.113  15.483 -0.0276 -0.2265  0.1346
30592W        W47440   9.246   6.168   4.777 -0.0685 -0.1491 -0.1983
30593W        W47441  17.531   7.522   0.085 -0.1728  0.0324  0.0972
30594W        W47442   2.911   9.477  12.021  0.0649 -0.3010 -0.0493
30595W        W47443   9.375  12.865   3.439 -0.3658  0.1971 -0.0924
30596W        W47444  14.190   8.647  11.908  0.2233 -0.0381  0.0549
30597W        W47445   4.047  14.520   3.211  0.4774  0.0916  0.0001
30598W        W47446   5.089   8.663   3.025  0.1625 -0.1649  0.0788
30599W        W47447  16.696   8.776  15.012 -0.1349 -0.1522  0.1307
30600W        W47448   7.523   6.832  15.832 -0.0760 -0.0133 -0.0306
30601W        W47449  16.464   7.891  13.157 -0.1481 -0.0996  0.3088
30602W        W47450   5.315   2.013  13.971  0.3640 -0.3813  0.0661
30603W        W47451  11.132   0.092  14.138 -0.0463 -0.1736  0.2136
30604W        W47452   8.566  14.237   3.588 -0.0511  0.1248  0.3227
30605W        W47453  13.850   3.910   4.657 -0.2394 -0.1460  0.0115
30606W        W47454   2.781   5.403  11.670  0.0005  0.1876 -0.2191
30607W        W47455   6.743   1.175   2.444 -0.0900  0.2397  0.0386
30608W        W47456   2.424   6.424   4.481  0.2380 -0.1337  0.1808
30609W        W47457  11.001   4.385   4.202  0.0863 -0.0556 -0.0473
30610W        W47458   1.705   5.919  13.890  0.1369  0.1683 -0.0047
30611W        W47459  13.146   9.464   1.474 -0.2169  0.0984 -0.1603
30612W        W47460  10.486   9.016   1.468 -0.2052 -0.0500 -0.0035
30613W        W47461  10.433   7.396  12.746  0.1223  0.0015 -0.1060
30614W        W47462  16.478  14.152   0.450  0.0753  0.2769  0.1911
30615W        W47463  16.942  12.699  16.080  0.2575  0.0837 -0.0678
30616W        W47464  11.020  11.123   2.446  0.1304 -0.1020  0.1466
30617W        W47465  16.373   8.207  15.800  0.1815 -0.2070 -0.0794
30618W        W47466  11.068   6.821  13.364 -0.0685 -0.3667  0.2134
30619W        W47467   4.270   6.618   1.118 -0.0537 -0.1004 -0.0913
30620W        W47468  16.644  12.296  13.149 -0.1710  0.0817  0.0067
30621W        W47469   7.661   4.601   2.722  0.0205 -0.1096 -0.0196
30622W        W47470   4.642  16.721  15.654 -0.0597  0.0373 -0.3170
30623W        W47471   6.864   0.560  16.413  0.0201  0.0352  0.0175
30624W        W47472   0.705   7.201   1.571 -0.0783 -0.1515 -0.0151
30625W        W47473  12.693   6.694   4.541 -0.2010 -0.0866  0.0687
30626W        W47474   9.905   6.391   4.357 -0.0881 -0.2768  0.0149
30627W        W47475  14.277   9.234  16.082 -0.2800  0.2343  0.2970
30628W        W47476  16.313  11.493  15.059  0.0415 -0.1940  0.0501
30629W        W47477  14.775   3.740  10.401  0.0963 -0.0432 -0.0067
30630W        W47478   6.155  12.543  12.458  0.1078 -0.0410  0.0025
30631W        W47479   0.792   3.165  13.517 -0.0330  0.2747 -0.0650
30632W        W47480   1.750   5.155  15.075  0.0887 -0.1522 -0.0055
30633W        W47481   4.133   6.806  16.073 -0.4534  0.0521 -0.0292
30634W        W47482  15.813   7.264   3.292 -0.1622  0.0376 -0.1121
30635W        W47483   0.330   7.524   3.983 -0.0741 -0.0105  0.0488
30636W        W47484   3.672   2.158  13.396 -0.0525 -0.0248  0.3952
30637W        W47485  13.049  13.025  14.143 -0.0240 -0.2661  0.0398
30638W        W47486  10.570   2.677  13.201  0.0228  0.0874  0.6326
30639W        W47487  10.605  12.660  14.601 -0.2255 -0.1136 -0.1980
30640W        W47488  17.263  10.400  16.235  0.1133  0.1464 -0.0350
30641W        W47489   7.276  13.194   0.716 -0.0527 -0.0206  0.0911
30642W        W47490   9.015   5.519  15.778 -0.0933 -0.0467 -0.0141
30643W        W47491  10.779  10.864  14.991  0.3664 -0.2630 -0.0679
30644W        W47492  13.295  13.625   4.140 -0.1256  0.0315 -0.1224
30645W        W47493  13.439   0.824  11.199 -0.0880  0.1626 -0.2519
30646W        W47494  11.907  16.609  14.868  0.3435  0.1528  0.0630
30647W        W47495  14.449   9.932   1.665  0.2840  0.1819  0.0554
30648W        W47496  15.291  16.914   2.723 -0.0950 -0.2523  0.0712
30649W        W47497   4.978   0.487   4.107 -0.1378  0.1721 -0.1295
30650W        W47498  10.222  13.065   1.644 -0.0311 -0.0395 -0.1094
30651W        W47499   2.141  10.979   5.787  0.0232 -0.3351  0.0741
30652W        W47500  13.657   4.968  15.206 -0.1260  0.2454 -0.0531
30653W        W47501  16.814   8.992  15.941 -0.0057  0.0150 -0.2241
30654W        W47502   8.005  10.701  16.363 -0.1153  0.1374  0.2572
30655W        W47503  13.953  11.909   3.324  0.0991  0.2143 -0.2612
30656W        W47504  12.929   4.382   2.437 -0.2205 -0.0320 -0.2177
30657W        W47505  13.594  16.684   0.788 -0.0474  0.0456  0.2293
30658W        W47506  13.235   7.419   0.894 -0.3982 -0.4158  0.2038
30659W        W47507   8.583   9.235   0.500  0.2920  0.0173  0.0392
30660W        W47508   1.725  11.207   5.505 -0.0045  0.1343  0.0140
30661W        W47509   8.498   4.118  13.893 -0.2974 -0.1293 -0.1337
30662W        W47510   0.931   5.341  15.534 -0.0494 -0.0378 -0.1378
30663W        W47511  13.798   5.603  15.368 -0.4690 -0.1094  0.0918
30664W        W47512  12.162   1.805  10.288 -0.2238 -0.0178  0.1415
30665W        W47513  17.496   3.777   0.952  0.1986 -0.0904 -0.2080
30666W        W47514  14.875  11.935   0.341  0.1494  0.0709  0.2477
30667W        W47515  12.805  14.680  16.465  0.1330  0.3387 -0.1916
30668W        W47516  13.581  12.421   4.966 -0.2006  0.1197 -0.0221
30669W        W47517  11.116  10.264  11.888  0.2467 -0.2139  0.1322
30670W        W47518  16.382   0.976   2.388  0.1479 -0.2649  0.1562
30671W        W47519   7.407   4.429  11.782  0.0894  0.1478 -0.1980
30672W        W47520   0.443   2.331  13.593 -0.2767  0.0275  0.0136
30673W        W47521   5.030   2.153   2.914 -0.4575  0.1641 -0.1726
30674W        W47522  13.954  16.182  12.457  0.0476  0.0446 -0.2361
30675W        W47523  11.958   7.882   2.870 -0.2050 -0.0993 -0.4470
30676W        W47524  13.606  16.301   1.738 -0.1716 -0.0571 -0.1013
30677W        W47525   7.159  14.781  12.742 -0.2062 -0.2674 -0.1339
30678W        W47526   2.913   8.762  13.524 -0.0905 -0.2485 -0.1606
30679W        W47527   5.748   0.868   1.245 -0.0765  0.1239 -0.1056
30680W        W47528   2.898   3.108  12.708  0.2788 -0.0935  0.3230
30681W        W47529   4.950   9.507  13.618  0.0913 -0.0149 -0.0996
30682W        W47530  11.681  17.228  12.180  0.0947 -0.0576  0.0621
30683W        W47531   0.639  11.274   5.659 -0.1566  0.0757  0.0099
30684W        W47532   0.458  16.914   3.477 -0.0487 -0.0901  0.0132
30685W        W47533  10.969  14.787   4.404  0.3656  0.1749 -0.0130
30686W        W47534   6.065   0.317  15.309 -0.1237 -0.2353  0.0216
30687W        W47535   1.138   1.604   4.332 -0.0989  0.0883  0.2075
30688W        W47536   0.614   2.334   4.395  0.1261  0.0302  0.1564
30689W        W47537   7.103  11.368   5.128  0.4589  0.0887  0.2360
30690W        W47538   6.128   2.100  16.460 -0.0580  0.0057  0.2863
30691W        W47539   3.256   6.824   4.611  0.0425  0.3558  0.0033
30692W        W47540   1.646   7.689   2.034  0.0560 -0.0036  0.0036
30693W        W47541   8.536   8.147   2.934  0.0527 -0.0665 -0.2848
30694W        W47542   2.965  17.836  11.371 -0.0750  0.2522  0.1572
30695W        W47543  12.453  10.111  12.245 -0.2733 -0.0252 -0.2910
30696W        W47544  11.952   9.862   3.288  0.0536  0.1893  0.2079
30697W        W47545  14.100   0.263  11.685 -0.1070  0.0664 -0.2979
30698W        W47546   0.054  16.685   0.371 -0.0257 -0.0398 -0.0160
30699W        W47547  13.510   7.838   3.827  0.1033 -0.2169 -0.0929
30700W        W47548   6.778  12.278  15.101  0.2007 -0.0778  0.0423
30701W        W47549   5.560  17.462   0.243  0.1273  0.1269  0.1139
30702W        W47550   7.738   6.500   1.285 -0.1274  0.1052  0.0638
30703W        W47551  10.927   8.410   1.942  0.1645  0.0239  0.2860
30704W        W47552  10.554   2.752  15.923  0.0401 -0.0197 -0.2892
30705W        W47553  16.159  17.721  13.042 -0.0553  0.1293  0.0415
30706W        W47554  16.760  13.224  15.451  0.1768  0.1120  0.3245
30707W        W47555   8.268   3.986   0.983  0.1734 -0.0700  0.0553
30708W        W47556  14.786   2.842   0.782 -0.0264  0.0619 -0.0493
30709ION     NA47557   9.501   4.577  10.497 -0.1291  0.3696  0.0244
30710ION     NA47558   0.665   2.807   5.993  0.1435 -0.0339  0.0252
30711ION     NA47559   1.160   5.851  10.863  0.0875 -0.1735 -0.2258
30712ION     NA47560   5.489   5.728  15.980  0.1466  0.1981 -0.2043
30713ION     NA47561   4.223  11.206   5.878  0.0148  0.0578  0.2672
30714ION     NA47562  16.491   1.354   5.724 -0.0184  0.3115  0.0386
30715ION     NA47563  14.476   6.979   5.287  0.1568  0.2700  0.1570
30716ION     NA47564  14.731  13.234   1.639 -0.0013 -0.1636 -0.1104
30717ION     NA47565   2.369  17.505  10.431 -0.0127  0.1016 -0.2042
30718ION     NA47566   4.857   3.230   4.109 -0.4497 -0.0053 -0.1619
30719ION     NA47567  14.717  17.737   3.008  0.0129  0.0085 -0.2851
30720ION     NA47568   2.781  10.412  12.018 -0.0087  0.0078 -0.0660
30721ION     NA47569  14.338   1.745   2.153 -0.2331  0.1900  0.1528
30722ION     NA47570  10.874   1.168  16.236 -0.1098 -0.0631  0.2427
30723ION     NA47571   6.373   8.234   5.816 -0.0025  0.0210  0.0726
30724ION     NA47572  12.630  13.007  13.594 -0.1621  0.2195 -0.1499
30725ION     NA47573   2.330  17.690  16.365  0.1020 -0.1928  0.2969
30726ION     NA47574  15.507  12.952   1.107  0.0096  0.1066  0.1262
30727ION     NA47575   6.307  11.567  12.158 -0.4990 -0.1428  0.1328
30728ION     NA47576   6.132   7.003  10.856  0.0490  0.0711 -0.0810
30729ION     NA47577   0.899  10.042   3.368 -0.3338  0.1115 -0.1228
30730ION     NA47578  14.968   8.312  11.022  0.0402  0.1508 -0.2478
30731ION     NA47579   3.220   9.584   6.315 -0.1065 -0.1039 -0.1470
30732ION     NA47580  12.454   3.846  15.817  0.0678 -0.0275 -0.1698
30733ION     NA47581  11.641   4.461  10.902  0.1838 -0.1948 -0.0502
30734ION     NA47582   4.332   6.887  10.660  0.0376 -0.0336  0.1151
30735ION     NA47583   8.560   6.106   0.954 -0.0168 -0.0062 -0.1654
30736ION     NA47584   7.287  10.707  10.578  0.1437 -0.2274  0.1577
30737ION     NA47585  11.476   7.378  10.300 -0.0224 -0.1685  0.0325
30738ION     NA47586  11.149   5.437   6.079 -0.4764  0.0939  0.1478
30739ION     NA47587  15.170  13.907   5.161 -0.0127 -0.0077  0.0406
30740ION     NA47588  14.670  10.684   6.040 -0.1336  0.0601 -0.0299
30741ION     NA47589   5.939   7.727  11.960  0.1592 -0.4342  0.1122
30742ION     NA47590  11.901   3.482  10.638 -0.0139 -0.3088 -0.1089
30743ION     NA47591  15.562   4.598   5.129 -0.0388  0.2434 -0.1742
30744ION     NA47592   0.186  15.688   5.050 -0.4471 -0.0881  0.1020
30745ION     NA47593   1.608   6.738   0.170 -0.2586 -0.0448 -0.0308
30746ION     NA47594   8.754   4.284   0.157  0.0078  0.0464  0.1274
30747ION     NA47595  13.214  12.498  10.588 -0.0483  0.0488  0.1412
30748ION     NA47596  16.032   2.381   2.629  0.0013 -0.1143 -0.0664
30749ION     NA47597   5.456  14.900   6.406 -0.0799 -0.0732 -0.0482
30750ION     NA47598   2.922  10.801  13.249  0.1017 -0.1626 -0.0758
30751ION     NA47599   2.712   7.100   6.050  0.1449  0.2839  0.0782
30752ION     NA47600   3.064   1.625   0.854  0.0671 -0.2172 -0.1269
30753ION     NA47601   7.127  10.365   6.089 -0.0078  0.2892 -0.0374
30754ION     NA47602   9.847  16.695   2.748 -0.1416  0.4659 -0.2301
30755ION     NA47603  12.101   1.270  10.282  0.1755  0.2636 -0.2581
30756ION     NA47604  13.546  11.677  10.216 -0.2033 -0.2104 -0.3477
30757ION     NA47605   7.874  12.003   1.681  0.1740  0.2568  0.0007
30758ION     NA47606  17.373  15.743  13.400 -0.0391  0.0533 -0.2926
30759ION     NA47607  17.175  12.635   5.429 -0.1784  0.2198 -0.2497
30760ION     NA47608  13.984   7.236  10.550 -0.0379  0.3382 -0.3915
30761ION     NA47609   2.735   4.910  13.962 -0.1973  0.1756 -0.0968
30762ION     NA47610   9.745   4.648  15.206  0.3092 -0.0074  0.2242
30763ION     NA47611  15.948  14.754   1.518 -0.4161  0.2264 -0.2542
30764ION     NA47612  15.957   1.006  15.092 -0.1010  0.0548  0.0027
30765ION     NA47613  14.446   3.887  13.281 -0.2647 -0.5180 -0.0958
30766ION     NA47614  10.488   1.502  10.843 -0.0247 -0.2815  0.2087
30767ION     NA47615  14.371  12.203  12.914  0.0373  0.0949  0.1382
30768ION     NA47616  15.364  17.699   1.374 -0.1524  0.1630 -0.1079
30769ION     NA47617   0.147   4.029   1.116  0.0082 -0.0783  0.1312
30770ION     NA47618  15.608   4.886   0.526 -0.0574 -0.0422  0.0099
30771ION     NA47619  11.364   8.412  12.648 -0.0057 -0.0539  0.1679
30772ION     NA47620   5.650   0.323  11.749 -0.0223  0.1691 -0.2103
30773ION     NA47621  11.318  13.944   5.907 -0.2380 -0.0458 -0.1091
30774ION     NA47622  11.174   7.077  11.938 -0.1188  0.0380 -0.0030
30775ION     NA47623   4.834   7.392   1.318 -0.1073 -0.0071  0.2210
30776ION     NA47624  16.895   0.854  10.679  0.1918  0.0015  0.1369
30777ION     NA47625   9.614   1.078  13.022 -0.2808  0.0221 -0.0020
30778ION     NA47626   3.853   4.740   5.703  0.1171 -0.0413  0.1154
30779ION     NA47627   1.201  13.726   0.355 -0.1835 -0.0530  0.0637
30780ION     NA47628   5.271  14.371   4.701 -0.1459  0.0397 -0.2332
30781ION     NA47629   3.211   1.031  10.699 -0.1079  0.2509 -0.1207
30782ION     NA47630  12.046   9.022  10.637 -0.1727  0.0652  0.5471
30783ION     NA47631   5.766  16.738  13.568  0.1612 -0.1865 -0.0129
30784ION     NA47632   0.717   1.755   2.712 -0.2351 -0.0366  0.0294
30785ION     NA47633   7.504  15.953   5.165 -0.1367 -0.0246 -0.1179
30786ION     NA47634  11.495   9.995  10.669  0.3606 -0.0384 -0.2566
30787ION     NA47635   6.031   0.094   4.504 -0.1920  0.1002 -0.1352
30788ION     NA47636   4.131   7.529   2.862  0.0204 -0.0706  0.1114
30789ION     NA47637  15.542  15.920   5.431 -0.0244 -0.0625  0.1839
30790ION     NA47638  10.867   0.174   5.679  0.1815  0.0641 -0.2138
30791ION     NA47639  16.746   0.584   5.697  0.1691  0.0262 -0.2828
30792ION     NA47640  15.032   7.095  10.502 -0.3423 -0.1821 -0.0303
30793ION     NA47641   0.139  16.581  14.044 -0.3136  0.0989 -0.2092
30794ION     NA47642  15.063  13.099  13.943  0.0691  0.2549  0.2455
30795ION     NA47643  17.428  11.347  10.315  0.3602  0.0463  0.0441
30796ION     NA47644   6.858   0.541   5.899  0.2141 -0.2706 -0.0768
30797ION     NA47645   6.613  14.063   1.101  0.1010  0.1397 -0.2328
30798ION     NA47646   6.314   1.797  10.892  0.2887  0.2768  0.2459
30799ION     NA47647   8.397   3.189  10.720  0.0089 -0.4744 -0.2336
30800ION     NA47648   1.767  10.628  10.245 -0.0072  0.1524  0.2410
30801ION     NA47649   7.904   6.972  15.549 -0.1375  0.0770  0.1468
30802ION     NA47650   9.701  10.181   3.954  0.1637  0.0446  0.0929
30803ION     NA47651  15.726   4.856   6.033  0.1619  0.4224 -0.1778
30804ION     NA47652   0.037  10.890   0.912 -0.4193  0.3843 -0.0211
30805ION     NA47653   0.781   8.368  15.340  0.3024 -0.1240  0.1311
30806ION     NA47654  14.973  12.181  10.602 -0.0264  0.0923 -0.4115
30807ION     NA47655  12.659  15.280  10.512 -0.0140  0.2044  0.0590
30808ION     NA47656   3.219   8.943  10.585  0.0812  0.3226 -0.2042
30809ION     NA47657   8.120   3.817  15.376  0.0025  0.1274  0.0785
30810ION     NA47658   4.463  10.185  15.438  0.1429  0.3658  0.2561
30811ION     NA47659   2.239   4.671   2.039  0.0233  0.1325 -0.3309
30812ION     NA47660   5.361  15.930   5.685 -0.3565  0.4942 -0.0565
30813ION     NA47661   4.204  10.370  10.562  0.0708 -0.0039 -0.2251
30814ION     NA47662   1.937   3.079  10.739  0.0885  0.3322 -0.0412
30815ION     NA47663   1.794   3.163  15.821  0.2710 -0.1440  0.0562
30816ION     NA47664  16.431   8.102  10.687  0.0996 -0.1856 -0.1259
30817ION     NA47665   2.388  12.211  10.349  0.0648  0.3088 -0.1481
30818ION     NA47666  13.285   7.744  10.347  0.0927 -0.1267 -0.1916
30819ION     NA47667   9.741   5.879   6.035 -0.1704  0.0755  0.0827
30820ION     NA47668  11.804   1.406   5.380 -0.0223  0.0565 -0.0017
30821ION     NA47669  17.346   1.140   5.794 -0.3104  0.1607 -0.1248
30822ION     NA47670   9.246   8.243  10.772  0.0581 -0.2796  0.3027
30823ION     NA47671  16.024  10.251   1.119 -0.1439 -0.1038 -0.3447
30824ION     NA47672  13.235   8.358   2.270 -0.0440 -0.0028 -0.0081
30825ION     NA47673   5.587  11.704   2.285  0.2528 -0.3217  0.3210
30826ION     NA47674   8.742  17.615   0.794 -0.1466  0.2882  0.2229
30827ION     NA47675   4.161  17.477  14.009  0.0274 -0.0093  0.4379
30828ION     NA47676  15.448   9.851  15.930  0.2050  0.2160  0.0481
30829ION     NA47677   4.494   7.843  10.720 -0.0841  0.0994  0.3085
30830ION     NA47678   3.002   3.255  11.961 -0.0329  0.4213 -0.2350
30831ION     NA47679  14.282   8.738  10.776  0.1212 -0.0744 -0.2373
30832ION     NA47680  12.754   9.755   4.731 -0.2426 -0.1971 -0.1833
30833ION     NA47681   7.350   4.142  10.929 -0.0591 -0.1527 -0.4286
30834ION     NA47682  12.146   6.802  10.258 -0.1286 -0.2039  0.1456
30835ION     NA47683  12.861   1.661   5.862  0.1592 -0.1089 -0.0060
30836ION     NA47684  12.690   1.659   0.023 -0.2404 -0.0926 -0.0330
30837ION     NA47685   7.115   6.039   2.808  0.2155  0.2682 -0.2214
30838ION     NA47686  11.332   0.931  14.005 -0.1111  0.3984 -0.1746
30839ION     NA47687   8.724   5.309  13.528 -0.1994  0.2203  0.1527
30840ION     NA47688   4.473   1.027   1.061 -0.0419  0.1232 -0.0821
30841ION     NA47689  16.990   5.391   4.423 -0.1051  0.3414  0.0031
30842ION     NA47690   2.528   2.532   2.857  0.1586 -0.3394  0.2766
30843ION     NA47691   0.171   5.910   1.682 -0.1104 -0.0793 -0.0937
30844ION     NA47692  17.209  15.010  10.727  0.0059 -0.1899 -0.1139
30845ION     NA47693  11.107  14.922  13.191  0.2301  0.0728 -0.0827
30846ION     NA47694  13.360   1.589  10.306  0.0409  0.1813  0.0086
30847ION     NA47695  14.142   1.213  10.540 -0.1206  0.0120 -0.0794
30848ION     NA47696   9.777  14.669  12.445 -0.0567 -0.0507 -0.2458
30849ION     NA47697   1.351   7.221  11.704 -0.0619 -0.1543  0.0251
30850ION     NA47698   8.232  10.586  15.295  0.1692  0.0182  0.0500
30851ION     NA47699   2.408   3.816   2.566  0.0260  0.3477 -0.1142
30852ION     NA47700   3.598   1.142   5.879  0.0907 -0.0367 -0.2065
30853ION     NA47701   3.078   3.403   5.991 -0.0314  0.0702  0.0300
30854ION     NA47702  17.196  17.169  10.364 -0.1846  0.0640 -0.0264
30855ION     NA47703  13.658  14.375   0.240 -0.1023 -0.1272  0.2058
30856ION     NA47704  14.047   9.255   1.012  0.0012  0.0875 -0.2150
30857ION     NA47705  11.588   5.986   4.696 -0.0908 -0.2459 -0.1631
30858ION     NA47706   0.538   1.035   4.649  0.2358 -0.0733 -0.1540
30859ION     NA47707  16.541  14.114  15.857  0.0608 -0.3156  0.1637
30860ION     NA47708  17.039   9.552   5.441  0.0171  0.0210  0.2284
30861ION     NA47709   8.495   0.568  12.058 -0.2727 -0.3542 -0.0866
30862ION     NA47710   3.825   4.358  10.521 -0.0049 -0.1990 -0.1980
30863ION     NA47711   7.499  11.903  11.025 -0.2180  0.0385  0.0250
30864ION     NA47712   7.633  14.945   6.327  0.1040  0.1350 -0.0801
30865ION     NA47713  14.875  15.651  10.532 -0.0376  0.2398 -0.1952
30866ION     NA47714   7.568  10.699   0.159  0.2642 -0.3117 -0.4160
30867ION     NA47715  16.677  11.873  15.177 -0.4533 -0.0863  0.0986
30868ION     NA47716   1.262   0.530  10.720 -0.2755  0.0218  0.0704
30869ION     NA47717  13.434   7.706  15.559  0.0301  0.4621 -0.0114
30870ION     NA47718  15.554   2.544  16.288 -0.3155 -0.4204 -0.3089
30871ION     NA47719   8.450   1.879   6.106 -0.2098 -0.0488 -0.2309
30872ION     NA47720   2.979  16.368  10.396  0.0448  0.0258 -0.1320
30873ION     NA47721   2.831   5.159  15.677 -0.0268  0.0185 -0.1703
30874ION     NA47722   0.626  10.814  14.213 -0.3809  0.0705  0.0750
30875ION     NA47723   6.863   6.005  14.829  0.1209  0.2508 -0.1099
30876ION     NA47724  13.711   0.695  12.426  0.0430  0.3170 -0.0906
30877ION     NA47725   9.055   2.593  12.110 -0.0323  0.2287  0.0941
30878ION     NA47726   1.830   0.989   3.166  0.2243 -0.0271  0.1032
30879ION     NA47727   8.981  13.924  11.082 -0.2428  0.1853 -0.1447
30880ION     NA47728   3.710  10.244  12.224 -0.0270  0.0207  0.0103
30881ION     NA47729   9.539   4.437  13.856 -0.0488  0.1544 -0.0588
30882ION     NA47730   1.515  17.172  10.711 -0.2493  0.1473  0.4308
30883ION     NA47731   2.372  16.509   3.573 -0.0274  0.2335  0.0698
30884ION     NA47732  10.066   3.258  10.666  0.1361  0.0259  0.1729
30885ION     NA47733   5.243   1.620   6.026 -0.0554 -0.0403  0.1813
30886ION     NA47734   0.784   4.531  16.278 -0.2410 -0.2362  0.0115
30887ION     NA47735  10.590  13.469  10.770 -0.0659  0.0069 -0.5004
30888ION     NA47736   1.029   5.170   4.816 -0.0753 -0.0707 -0.2005
30889ION     NA47737   7.691  15.921   1.525  0.1180 -0.3032  0.2111
30890ION     NA47738   5.970   9.805   3.959 -0.0300 -0.0338 -0.1099
30891ION     NA47739  14.351  12.804   0.368  0.3425  0.2449  0.1052
30892ION     NA47740  12.704  17.639   2.225  0.1626 -0.0310  0.1960
30893ION     NA47741  17.587  11.539  13.546  0.0920  0.1596  0.0712
30894ION     NA47742   5.856   6.477   1.055 -0.1262  0.0733  0.2027
30895ION     NA47743  15.474   4.294  14.540  0.0711 -0.2251  0.1459
30896ION     NA47744  16.338  15.030  10.248  0.3264  0.1025 -0.0471
30897ION     NA47745   4.673   3.396   0.463  0.1887 -0.1457 -0.1489
30898ION     NA47746   2.188   8.548   6.019 -0.0161 -0.1540  0.0334
30899ION     NA47747   9.075  16.215  14.312 -0.3442 -0.1744 -0.1981
30900ION     NA47748  12.484  16.950   2.980  0.3447 -0.2088 -0.1483
30901ION     NA47749  13.408  17.888   5.209  0.1986 -0.2254 -0.0564
30902ION     NA47750  13.247  14.358   1.532 -0.3553 -0.0998  0.2208
30903ION     NA47751   5.094  11.726  10.737 -0.0110  0.0402  0.1721
30904ION     NA47752  17.088  15.513  14.700  0.3973  0.2352  0.0892
30905ION     NA47753  10.410  16.669  13.363  0.2676  0.0335  0.2306
30906ION     NA47754   8.236   0.073   6.133 -0.3655 -0.0038  0.0441
30907ION     NA47755  16.483   9.315   0.396 -0.1119 -0.0289  0.0044
30908ION     NA47756  16.881  10.601  15.008 -0.0232  0.2601  0.2725
30909ION     NA47757  12.892  10.354   2.534  0.1257  0.2235  0.0814
30910ION     NA47758  13.663  12.835   5.870  0.0820 -0.0454 -0.2161
30911ION     NA47759  16.938   5.186   0.435  0.0276 -0.0841  0.3019
30912ION     NA47760  13.345  10.893   5.919  0.0984 -0.2531 -0.2765
30913ION     NA47761  12.176  10.955  10.695  0.1116 -0.1015 -0.1817
30914ION     NA47762  10.318  10.471  12.895 -0.0790  0.2219 -0.1242
30915ION     NA47763  11.538   7.822  13.458  0.0584 -0.1727  0.3317
30916ION     NA47764  16.719   5.543   2.818  0.0642 -0.5219  0.3154
30917ION     NA47765   9.480   0.971  10.614  0.0958 -0.0888  0.1625
30918ION     NA47766  17.443   2.486  13.551  0.4063  0.0449 -0.1057
30919ION     NA47767  11.095   1.584   2.841  0.0421 -0.2483  0.0189
30920ION     NA47768   3.702   8.184  10.721 -0.1039  0.0526 -0.3374
30921ION     NA47769  16.445   6.259   0.623  0.0311 -0.0362  0.0473
30922ION     NA47770   7.403   0.369   2.507  0.0860 -0.0545  0.0728
30923ION     NA47771  14.789   9.624  10.777  0.4175 -0.2830  0.0188
30924ION     NA47772   9.784  17.492   0.653 -0.0046 -0.1200 -0.1416
30925ION     NA47773  16.852  14.249   5.169  0.2418  0.0118  0.1131
30926ION     NA47774  12.027   7.078   5.821 -0.1842 -0.2631  0.3016
30927ION     NA47775   2.575  13.292  13.041 -0.4484  0.0749 -0.1168
30928ION     NA47776  12.711   8.521  10.659  0.1622 -0.0130 -0.1073
30929ION     NA47777  13.237  16.735   1.196 -0.3099  0.0447  0.1018
30930ION     NA47778   2.207  12.127  16.162 -0.1350  0.0449 -0.2240
30931ION     NA47779   6.092  15.849  10.599  0.0538 -0.1074  0.1267
30932ION     NA47780   2.102  11.562   5.702 -0.1348 -0.1792  0.2668
30933ION     NA47781   7.211  17.781  10.876  0.2166 -0.2777 -0.0070
30934ION     NA47782  10.696   8.728  10.637  0.3430 -0.1152  0.1164
30935ION     NA47783  12.854  17.031   5.301 -0.0236 -0.0750  0.0786
30936ION     NA47784   6.696  11.347  14.337 -0.0005 -0.0022 -0.0520
30937ION     NA47785  14.233   5.604  15.621 -0.1571  0.1623  0.2028
30938ION     NA47786   5.313  11.164  13.385 -0.0073 -0.0249 -0.0576
30939ION     NA47787   0.008  12.168  10.741  0.2077  0.3781  0.1123
30940ION     NA47788  11.770  17.291  16.085  0.3138 -0.1054  0.2227
30941ION     NA47789  16.504   2.404   5.725  0.2178  0.0494  0.0121
30942ION     NA47790   2.262   6.023  12.893 -0.1789 -0.1605  0.2570
30943ION     NA47791   2.296  13.931  10.527  0.2413  0.1114  0.1032
30944ION     NA47792   1.380  15.865   5.848  0.2583 -0.2394  0.1747
30945ION     NA47793  13.228   0.490   5.359  0.1640 -0.1020  0.0790
30946ION     NA47794   7.532   1.344   5.793  0.1644  0.1883  0.1005
30947ION     NA47795   5.817  12.500  15.658  0.0260  0.1065  0.1231
30948ION     NA47796   5.892  13.093   1.127 -0.1107  0.2523 -0.0072
30949ION     NA47797   1.536   5.013   5.728 -0.5787  0.0868  0.0609
30950ION     NA47798  15.522  15.063   5.414  0.1558 -0.3043 -0.0616
30951ION     NA47799  13.319   4.418  10.736  0.0370  0.1154  0.2795
30952ION     NA47800  11.063   4.511  14.230  0.1097  0.1787  0.2779
30953ION     NA47801   4.462  13.134  14.410 -0.1014  0.4193 -0.3114
30954ION     NA47802   7.681   1.570  15.767  0.1363  0.1968  0.1898
30955ION     NA47803   6.047  16.792  10.727 -0.0218 -0.2100  0.1223
30956ION     NA47804   9.798  16.160  13.823  0.1243 -0.0114 -0.0119
30957ION     NA47805   8.826  14.901  12.287  0.0657 -0.0933 -0.1643
30958ION     NA47806   3.632   2.404   2.993 -0.1876  0.0667  0.2306
30959ION     NA47807   2.725  16.321   6.268  0.0024 -0.2307 -0.1424
30960ION     NA47808  10.376  12.879   6.214 -0.0155 -0.3266  0.2032
30961ION     NA47809   3.450   0.596  15.883 -0.0122 -0.2724  0.0736
30962ION     NA47810  15.657   7.672  10.440 -0.1338  0.1850  0.0472
30963ION     NA47811  11.074   1.958   5.195 -0.0284  0.4259  0.1196
30964ION     NA47812   3.384   0.054   0.499  0.0178 -0.0998 -0.1484
30965ION     NA47813   3.948   2.826   6.357 -0.0603  0.0133 -0.0170
30966ION     NA47814  13.539  13.591   5.470  0.0106  0.1714 -0.0748
30967ION     NA47815  11.140  12.285   0.136 -0.3355  0.0486  0.1265
30968ION     NA47816   9.306   2.959  14.881 -0.3359  0.1428  0.1464
30969ION     NA47817   7.796   3.502  13.687 -0.2434 -0.0281 -0.1102
30970ION     NA47818   6.919  13.294   6.237 -0.0199  0.0768  0.1033
30971ION     NA47819  14.003   9.975  10.531 -0.0514 -0.0854  0.0962
30972ION     NA47820  12.478  11.898  10.578 -0.0681  0.2569  0.0883
30973ION     NA47821  15.176   8.158  16.136  0.1590 -0.1710 -0.1084
30974ION     NA47822   3.621  13.189  15.427 -0.0614 -0.1761 -0.0292
30975ION     NA47823  12.238  12.065  15.899 -0.0662 -0.1651  0.0580
30976ION     NA47824   0.052   4.782  15.676 -0.1194 -0.0577 -0.0824
30977ION     NA47825  10.403   0.465  10.999 -0.0653  0.2186 -0.1925
30978ION     NA47826  13.142   9.313  10.586  0.1216 -0.1524 -0.0156
30979ION     NA47827  17.002   3.831  12.966 -0.2873 -0.1547  0.1006
30980ION     NA47828   9.675  12.421  14.540  0.2328 -0.1277  0.1672
30981ION     NA47829  16.266   6.187  12.764 -0.6672 -0.3196 -0.0529
30982ION     NA47830   6.780   7.630  10.919  0.1857  0.2539  0.0595
30983ION     NA47831   4.170   5.111   0.149  0.0662 -0.0548  0.3296
30984ION     NA47832   3.452  10.919   6.182  0.2004 -0.1086  0.0233
30985ION     NA47833   8.933  16.923  10.764 -0.1660 -0.0141  0.1371
30986ION     NA47834   5.522  12.887   6.203  0.1458 -0.1715 -0.0394
30987ION     NA47835   9.055   5.151   5.813  0.0393 -0.2139  0.0286
30988ION     NA47836  11.115  12.539  10.649  0.0054 -0.1652 -0.3701
30989ION     NA47837   8.269   2.063  15.963 -0.1690 -0.2311  0.2109
30990ION     NA47838   2.943  13.657  15.770 -0.0496 -0.1243 -0.1219
30991ION     NA47839   2.413   7.119  16.231 -0.0255 -0.2682 -0.1537
30992ION     NA47840  13.773  11.121   6.013  0.1261 -0.0220  0.4080
30993ION     NA47841   2.865  14.290   6.078 -0.0081 -0.0861  0.1252
30994ION     NA47842  10.932  11.826   6.206  0.1578  0.1141  0.0586
30995ION     NA47843  14.684  10.409  11.453 -0.0723  0.0564 -0.0516
30996ION     NA47844   1.481   8.694   4.668 -0.0214  0.0853 -0.0020
30997ION     NA47845  13.933   2.208   5.506  0.1499  0.0879 -0.1455
30998ION     NA47846  12.126   3.915   5.950  0.0382 -0.1498  0.0139
30999ION     NA47847   7.626   7.031  12.094  0.0288  0.0349 -0.1405
31000ION     NA47848   3.334   6.120  10.732  0.0587  0.2013  0.1702
31001ION     NA47849  15.926   4.892   3.062 -0.1263  0.3306  0.1284
31002ION     NA47850  14.639  11.941   5.474 -0.0506  0.1398 -0.0661
31003ION     NA47851   0.770  14.323   1.863  0.0544  0.0344 -0.1540
31004ION     NA47852   0.883  16.561  10.379 -0.3956 -0.0967 -0.1316
31005ION     NA47853   9.033   3.623   5.999 -0.0275 -0.0250  0.3756
31006ION     NA47854  13.596   2.668  15.424 -0.2263 -0.0371 -0.0992
31007ION     NA47855  10.946  17.339   1.312 -0.1505  0.2331 -0.2704
31008ION     NA47856   5.321   3.793   1.353  0.0527  0.3523  0.0597
31009ION     NA47857  16.487  11.635   0.302  0.3386 -0.0136  0.0518
31010ION     NA47858   6.756  13.189  12.211 -0.0281  0.0046 -0.3048
31011ION     NA47859  16.962   7.155  14.313  0.1610  0.2352 -0.1984
31012ION     NA47860   6.868  11.789   6.101  0.0781  0.0131 -0.2738
31013ION     NA47861   6.307   0.552   3.482 -0.0972  0.3512  0.2779
31014ION     NA47862   1.880   9.692  15.537  0.3490  0.1723 -0.1891
31015ION     NA47863   5.344   6.702   5.569  0.2372 -0.0152  0.1014
31016ION     NA47864   9.887   8.669  15.455 -0.1432  0.1039 -0.0355
31017ION     NA47865  17.557  17.545  14.321 -0.1499 -0.1203  0.0767
31018ION     NA47866   4.568  11.855  10.506  0.0598  0.1276 -0.0367
31019ION     NA47867  11.661   4.585   2.500  0.1485  0.0553 -0.0360
31020ION     NA47868   7.223   2.735   6.339  0.1797  0.1343 -0.3071
31021ION     NA47869   2.682   3.306  10.654  0.4035 -0.4198 -0.2139
31022ION     NA47870  16.552   5.310   6.082 -0.0471 -0.0683  0.1775
31023ION     NA47871  15.875   8.740   4.721 -0.0373 -0.2924 -0.1285
31024ION     NA47872   5.678   8.063   5.226  0.0394  0.1566 -0.1236
31025ION     NA47873  10.055   0.443   5.995  0.2009  0.3421 -0.0544
31026ION     NA47874  16.310   7.851   3.903  0.1264  0.0957  0.0801
31027ION     NA47875  13.531   9.853   5.871 -0.2767 -0.0967 -0.0564
31028ION     NA47876   2.214  15.705   5.900  0.0427 -0.0344 -0.2580
31029ION     NA47877  10.711  11.196   2.948  0.1377 -0.0269 -0.0429
31030ION     NA47878  16.176   6.811   5.888  0.4160  0.1035 -0.2189
31031ION     NA47879   2.138  13.723   1.457 -0.2061 -0.0434 -0.0836
31032ION     NA47880   2.264   9.059   1.386 -0.1046  0.0696 -0.2423
31033ION     NA47881  16.358   2.962  15.588 -0.1824 -0.0576 -0.1459
31034ION     NA47882  17.615   6.840  15.525  0.3448  0.1930 -0.1050
31035ION     NA47883  15.238   8.356   2.996 -0.1422  0.2341 -0.4761
31036ION     NA47884   1.887   6.110  10.643 -0.2278 -0.0778  0.1632
31037ION     NA47885  15.762   9.025   0.729  0.0899  0.2387 -0.2939
31038ION     NA47886   3.538  11.120   4.173  0.2274 -0.0947 -0.2970
31039ION     NA47887  14.932   0.102  13.629  0.0630  0.3627  0.0853
31040ION     NA47888  11.997   8.043  10.533  0.1922 -0.2245 -0.2080
31041ION     NA47889   4.194  12.233   3.754  0.2645  0.1113  0.0319
31042ION     NA47890  10.552   2.156   6.119 -0.0560  0.0860 -0.3484
31043ION     NA47891   0.346  17.387  10.573  0.2492  0.1214  0.3016
31044ION     NA47892  13.801   8.098   3.548  0.1768  0.0763  0.1661
31045ION     NA47893   9.321  11.675   1.262 -0.1460  0.0423  0.0311
31046ION     NA47894  17.616  11.888  16.071  0.3056 -0.1785  0.1711
31047ION     NA47895   3.210   8.355   6.149  0.3635  0.2855 -0.1391
31048ION     NA47896   6.661   4.505  10.753 -0.0580 -0.1130  0.0037
31049ION     NA47897  10.990  17.065  15.060 -0.1706 -0.2799  0.1340
31050ION     NA47898   5.454   5.415  10.940 -0.1942 -0.1103 -0.2167
31051ION     NA47899   9.146  15.129   2.782  0.0082 -0.2313  0.0737
31052ION     NA47900   7.953  10.969   2.026 -0.2108  0.1008  0.0049
31053ION     NA47901  10.005  11.711   6.209 -0.0667  0.3582  0.1040
31054ION     NA47902   2.608  15.769  10.286  0.0641  0.1212 -0.2769
31055ION     NA47903   7.218   9.676  10.771  0.0008  0.1602  0.0043
31056ION     NA47904  11.892  11.723   5.554 -0.2194  0.1527 -0.2463
31057ION     NA47905   7.174   9.349   5.946  0.0728 -0.1674 -0.1382
31058ION     NA47906  14.074   7.571  13.542 -0.0007  0.0826  0.0446
31059ION     NA47907   8.173  12.122  11.696 -0.2782 -0.1251  0.4180
31060ION     NA47908   3.418  12.088  15.344 -0.1114 -0.1060 -0.0893
31061ION     NA47909   6.411  14.484  10.962 -0.0946 -0.0449 -0.1588
31062ION     NA47910  17.856   3.843  10.634  0.2175 -0.1121 -0.1317
31063ION     NA47911  16.495   4.142  16.188  0.1687  0.1881  0.1337
31064ION     NA47912  16.181  12.648   5.411  0.3496  0.1053  0.1472
31065ION     NA47913   9.531  12.255  10.897  0.0925 -0.0563  0.1650
31066ION     NA47914   2.570  17.858   6.002 -0.2827  0.2593  0.1121
31067ION     NA47915  10.889  16.660   3.237 -0.0672 -0.1093  0.0313
31068ION     NA47916   0.479   6.660   5.646  0.0938 -0.1836 -0.1665
31069ION     NA47917   9.846   8.198   6.224 -0.0037  0.0345 -0.1282
31070ION     NA47918   9.452   6.957  10.609  0.0733  0.2230 -0.0333
31071ION     NA47919  15.382   8.152  15.595 -0.3940  0.0047  0.1460
31072ION     NA47920  14.635   4.573  10.733  0.1728 -0.0528 -0.2161
31073ION     NA47921   8.842   8.391   5.771  0.2993  0.0586  0.1665
31074ION     NA47922   6.232   8.315  10.907  0.1620  0.2804  0.0601
31075ION     NA47923   4.532   7.782  13.074  0.0619  0.0861 -0.0342
31076ION     NA47924  17.261  12.847   9.970  0.0605 -0.0591 -0.0989
31077ION     NA47925  10.490   7.933   5.869  0.2243 -0.0175  0.1741
31078ION     NA47926  15.286  16.130   0.627 -0.2849 -0.0913  0.0458
31079ION     NA47927  11.746  15.179  14.866 -0.3111 -0.0098 -0.1166
31080ION     NA47928  12.673  10.354   0.522  0.1564 -0.2032 -0.0155
31081ION     NA47929  15.945   8.507   6.208 -0.1280 -0.1482 -0.1405
31082ION     NA47930  15.947   5.678  16.428 -0.1026  0.0064 -0.3414
31083ION     NA47931   8.319  13.195  10.962 -0.1519  0.2575  0.2114
31084ION     NA47932   5.395   6.980   0.273 -0.0978 -0.2347  0.0745
31085ION     NA47933  16.956  17.113  15.572  0.0898  0.1427 -0.0513
31086ION     NA47934   7.249   2.330  12.525 -0.1156  0.1151 -0.0366
31087ION     NA47935   6.477  13.541  11.074  0.1362 -0.2753  0.2541
31088ION     NA47936   0.960  12.326  14.357  0.2772 -0.3011  0.1035
31089ION     NA47937   0.496   0.245   5.732 -0.1992 -0.0804 -0.1571
31090ION     NA47938   6.157   2.911  11.053  0.0127 -0.0343 -0.2474
31091ION     NA47939  13.919   6.234  14.590 -0.0879 -0.0348  0.0273
31092ION     NA47940  11.435  17.460  10.760 -0.3419  0.0039  0.0233
31093ION     NA47941  15.258  10.592  10.648 -0.2114 -0.1372 -0.5076
31094ION     NA47942  17.704   9.270  14.308  0.0170  0.1072  0.2857
31095ION     NA47943  15.210  11.383  11.821  0.1585  0.0539 -0.1604
31096ION     NA47944  17.016  13.568  14.687  0.0480 -0.1175 -0.4930
31097ION     NA47945  15.638  17.340   5.576 -0.2784  0.2792  0.1028
31098ION     NA47946   6.981   8.738   0.215  0.2643 -0.1274  0.1012
31099ION     NA47947  17.152   3.460  10.811 -0.0781  0.0571  0.0700
31100ION     NA47948   5.714  14.125  10.817  0.3039 -0.0876 -0.0947
31101ION     NA47949  15.616   0.067   5.004  0.3441  0.3821  0.1101
31102ION     NA47950  11.991   3.503   4.015  0.0870 -0.0656 -0.2418
31103ION     NA47951  13.599  11.161   3.731 -0.1650 -0.0190 -0.3921
31104ION     NA47952  11.625  15.686   2.607 -0.0549  0.1712 -0.4137
31105ION     NA47953  14.371  17.585  10.474 -0.0719  0.1243  0.0658
31106ION     NA47954   9.623  15.317  14.867 -0.0077 -0.1320  0.1576
31107ION     NA47955   1.051   0.090  10.571  0.1568  0.2114 -0.0166
31108ION     NA47956  11.273  13.034   6.130 -0.1328  0.0238 -0.3551
31109ION     NA47957   1.323   8.203  16.082 -0.0550 -0.2780  0.0039
31110ION     NA47958  17.264   3.214  14.811  0.0761  0.0818 -0.0078
31111ION     NA47959   0.646   4.384  10.841 -0.2671  0.1909 -0.0123
31112ION     NA47960  14.959  14.307  16.414  0.2608  0.2352  0.2580
31113ION     NA47961  13.068  11.089  10.541  0.1142  0.1269  0.1390
31114ION     NA47962   2.833   3.762   4.549 -0.2010 -0.3864  0.0956
31115ION     NA47963   0.225   7.942   1.420  0.3210 -0.0626  0.3554
31116ION     NA47964   9.881  16.720  10.772 -0.2574  0.0171  0.0190
31117ION     NA47965   8.097   8.680  10.658 -0.2539 -0.2555  0.1975
31118ION     NA47966   4.712   0.523  12.766 -0.4728  0.1361 -0.1584
31119ION     NA47967  10.011  14.943   1.793  0.1055  0.1293 -0.0754
31120ION     NA47968   6.732   6.335  16.438 -0.0602 -0.2991  0.2206
31121ION     NA47969  17.116   1.783  10.770 -0.0391  0.2467 -0.1651
31122ION     NA47970  15.278  15.654  13.648  0.1201  0.0857 -0.1344
31123ION     NA47971  17.486   7.204   1.807 -0.1202  0.2852 -0.0676
31124ION     NA47972   0.945   4.005  15.394 -0.2879  0.0770 -0.1292
31125ION     NA47973  13.089   9.555  14.483  0.0349  0.0892  0.4206
31126ION     NA47974  11.261  12.432  12.509 -0.2149  0.5103  0.1260
31127ION     NA47975  17.653   8.754   3.424  0.0628  0.0866  0.1892
31128ION     NA47976   7.246  13.377  10.897  0.0917 -0.3756 -0.3422
31129ION     NA47977   1.521  16.094   0.050 -0.1444  0.1186  0.0594
31130ION     NA47978   1.781   1.322  11.655 -0.1561  0.0665  0.3349
31131ION     NA47979   7.359  14.022   6.563 -0.0305  0.2701 -0.1167
31132ION     NA47980   3.698  14.827   6.014  0.2228  0.1973 -0.0025
31133ION     NA47981  15.994   3.047   5.899 -0.2203 -0.2275  0.1019
31134ION     NA47982   6.997  17.151   5.803 -0.2418  0.1782 -0.2001
31135ION     NA47983  14.401   2.053  12.809  0.1536  0.0663 -0.0804
31136ION     NA47984  15.056   1.765  10.569  0.1074 -0.2107  0.0478
31137ION     NA47985   7.710  14.243  10.531  0.2106  0.2041  0.0617
31138ION     NA47986   4.645   5.876  10.763 -0.4099  0.2163  0.0965
31139ION     NA47987   0.873  15.239  10.407  0.2525  0.0255 -0.2914
31140ION     NA47988   7.734   0.477   5.900  0.0746 -0.0703  0.0351
31141ION     NA47989   0.128  14.639  10.636  0.0295 -0.1326  0.3585
31142ION     NA47990  11.802  12.315   6.099  0.0295 -0.1887  0.3470
31143ION     NA47991  12.775  14.036   2.779 -0.2069 -0.1275  0.2061
31144ION     NA47992   2.359   8.821  12.773 -0.0614  0.0353  0.3511
31145ION     NA47993   4.578  11.789  11.996 -0.1445  0.3724  0.2960
31146ION     NA47994  10.400   9.575   6.403 -0.1612  0.3042  0.2432
31147ION     NA47995  13.594  17.344  11.272  0.0337  0.2737  0.2940
31148ION     NA47996  14.426   2.074   5.569  0.1633  0.0869 -0.0842
31149ION     NA47997   8.722   6.366  11.004 -0.2544 -0.2413 -0.2312
31150ION     NA47998  14.494   5.104   5.843  0.3001  0.2519 -0.2279
31151ION     NA47999   9.945   4.848   6.042 -0.2592 -0.0477 -0.1908
31152ION     NA48000   4.281   7.201  15.799 -0.0611  0.1834 -0.2471
31153ION     NA48001   1.135  13.138  10.363 -0.1455 -0.2463 -0.0136
31154ION     NA48002  10.798   7.943   2.829  0.1829 -0.1340 -0.0047
31155ION     NA48003  11.357   8.449   6.144  0.0889  0.0602 -0.0349
31156ION     NA48004  14.578   7.623  11.739  0.1440  0.1400 -0.0308
31157ION     NA48005   0.059  17.067  16.097 -0.3357  0.0579  0.0186
31158ION     NA48006  14.897   8.614   6.269 -0.0484 -0.0723 -0.0857
31159ION     NA48007  12.542   3.262   0.074  0.1052 -0.2392  0.2286
31160ION     NA48008   6.468   3.874  10.950  0.2251  0.1782  0.1452
31161ION     NA48009   2.328  13.111  10.500 -0.0111 -0.3204  0.2349
31162ION     NA48010  12.457   7.950  13.790  0.1175  0.0895 -0.1072
31163ION     NA48011   3.860   2.063   5.143  0.0787  0.0369 -0.1834
31164ION     NA48012   2.251   2.976   6.120 -0.2929 -0.0676 -0.3814
31165ION     NA48013  11.445   2.071   1.850  0.0221 -0.0780  0.0551
31166ION     NA48014  12.897   6.321  10.675 -0.0246 -0.1130  0.0163
31167ION     NA48015  17.083   3.865   6.075  0.2508  0.0460  0.4071
31168ION     NA48016  10.906   6.481  16.097 -0.2190  0.1498 -0.1256
31169ION     NA48017  14.441   1.523  16.164  0.4229 -0.0337 -0.0793
31170ION     NA48018   1.019  16.192   2.835  0.0434 -0.3068  0.2380
31171ION     NA48019   9.433   2.913   4.153 -0.1725 -0.2382  0.1576
31172ION     NA48020  14.019   9.375   2.268 -0.1896  0.0359 -0.1512
31173ION     NA48021  10.044  16.217   0.537  0.0649  0.3412 -0.0908
31174ION     NA48022  11.175  16.484  10.392 -0.0873  0.1799  0.1167
31175ION     NA48023   9.742   2.023  15.335 -0.1271 -0.0156  0.1808
31176ION     NA48024   6.492  17.542  10.721  0.1402  0.3571  0.2236
31177ION     NA48025   0.352   7.149  13.738  0.2608 -0.3051  0.0671
31178ION     NA48026  12.941   5.941   1.955 -0.2542 -0.4058 -0.0118
31179ION     NA48027   3.934  11.086   0.939 -0.0825 -0.0897 -0.0893
31180ION     NA48028  14.429  10.668  12.870 -0.2889  0.1366 -0.1416
31181ION     NA48029   7.060   1.317  10.637  0.0889  0.1488 -0.3067
31182ION     NA48030   9.863   6.800  11.607 -0.1735 -0.0441 -0.1027
31183ION     NA48031   2.374  11.579  13.979 -0.1841  0.1767  0.1602
31184ION     NA48032  14.275   7.648  10.391  0.1126 -0.0854 -0.1170
31185ION     NA48033  17.091   8.530  16.029 -0.1880  0.2288  0.1293
31186ION     NA48034   8.568   2.214  10.781 -0.0984  0.2232  0.0755
31187ION     NA48035   6.988   5.798  10.959  0.4073 -0.0182 -0.1914
31188ION     NA48036  14.236   2.552   0.535  0.1322  0.1349  0.2411
31189ION     NA48037  12.492   6.455  13.776  0.0922  0.0795 -0.1325
31190ION     NA48038   4.641  13.493   6.127  0.1983 -0.0691 -0.0083
31191ION     NA48039   2.716  17.284  14.384  0.0099 -0.0525  0.5219
31192ION     NA48040   1.243   5.661   2.354 -0.0391  0.0894  0.1604
31193ION     NA48041   5.218   3.016   5.869  0.1910 -0.1548  0.1006
31194ION     NA48042   0.976  15.553   4.411 -0.1964  0.3260 -0.2236
31195ION     NA48043   1.922   7.145  15.074  0.0421 -0.2505 -0.4306
31196ION     NA48044   3.831   7.684   0.768 -0.0595  0.1193 -0.2436
31197ION     NA48045   8.739   7.414   1.873  0.0023 -0.1498 -0.2682
31198ION     NA48046  10.404   6.641   3.970 -0.0365  0.2554  0.3974
31199ION     NA48047  11.859  10.136   5.918  0.0140  0.0271  0.0743
31200ION     NA48048  17.491  11.359  15.203  0.0994  0.2101 -0.1279
31201ION     NA48049   6.562  10.129  12.624  0.0056  0.1419  0.1223
31202ION     NA48050  13.923  15.939  11.998  0.0248 -0.2520 -0.0859
31203ION     NA48051  17.316   5.596   5.796  0.0925 -0.1011  0.4520
31204ION     NA48052   7.918   9.428  13.751  0.1443 -0.0988 -0.0698
31205ION     NA48053  12.449   0.989   5.321  0.1183 -0.2929 -0.0251
31206ION     NA48054  14.914   8.838   1.016 -0.2772  0.2809  0.0982
31207ION     NA48055   1.435  17.849   6.014  0.0075  0.0113 -0.1586
31208ION     NA48056  13.750  15.211  13.815 -0.0135 -0.3226  0.0556
31209ION     NA48057   4.803  11.762   6.081 -0.1043 -0.2264  0.1209
31210ION     NA48058   8.371   2.689  13.751  0.2289  0.0613 -0.0320
31211ION     NA48059  16.023   0.214  10.642  0.1546  0.1056 -0.1323
31212ION     NA48060  14.481   2.688  10.518 -0.0703 -0.1714 -0.0694
31213ION     NA48061   5.498  15.311  15.841  0.0661  0.0963  0.2067
31214ION     NA48062  13.355   5.435  10.274 -0.1351  0.1007 -0.0451
31215ION     NA48063   9.954  14.239  11.049 -0.1827  0.2138  0.4380
31216ION     NA48064   6.871  15.191   0.979 -0.0634  0.0340 -0.0203
31217ION     NA48065   9.242   0.305  10.593  0.1135  0.0002 -0.3564
31218ION     NA48066   2.765   6.319   0.852 -0.0661  0.2231  0.0394
31219ION     NA48067   1.251   8.829   1.964 -0.0583 -0.1310  0.1691
31220ION     NA48068   5.756  17.300  14.233  0.0827  0.1589 -0.1016
31221ION     NA48069   1.977   0.398   6.176  0.1246 -0.0115 -0.2094
31222ION     NA48070  13.029   5.392  14.097  0.2459 -0.1286  0.0888
31223ION     NA48071   8.848  15.862   5.847 -0.2515 -0.0550  0.0615
31224ION     NA48072   8.701   3.198  16.249 -0.1300  0.1151 -0.0167
31225ION     NA48073  12.136  15.763  11.243 -0.0572 -0.1467 -0.0012
31226ION     NA48074  11.433  12.472   1.978 -0.0122 -0.0528 -0.0087
31227ION     NA48075   9.640  16.801   4.207 -0.4589 -0.0067  0.1540
31228ION     NA48076  13.218   7.508   2.662 -0.1901 -0.1883  0.0463
31229ION     NA48077  16.622  11.110  10.291  0.1600  0.1518  0.2834
31230ION     NA48078  17.098  16.092  10.034  0.2003 -0.0973  0.4929
31231ION     NA48079   5.077  16.760   5.919  0.1467  0.2211 -0.1067
31232ION     NA48080  11.304  10.441  15.698 -0.0830  0.1856 -0.4580
31233ION     NA48081   6.057   4.703  11.840  0.1405  0.0104  0.1311
31234ION     NA48082  12.124  16.095  10.501  0.2040  0.1436  0.1234
31235ION     NA48083   0.286   5.813  11.571  0.0029  0.0701  0.0032
31236ION     NA48084  13.673  15.817   5.502 -0.0339  0.0651 -0.2059
31237ION     NA48085   4.226   1.374   0.138 -0.2089 -0.1019 -0.0426
31238ION     NA48086   8.574   1.379  10.562  0.0853  0.1823 -0.1964
31239ION     NA48087   7.157  14.991  10.642  0.0239  0.0244  0.4173
31240ION     NA48088  10.064   7.874   1.612  0.0240  0.0398  0.3527
31241ION     NA48089   0.719   9.299  15.918 -0.1043 -0.0074 -0.2159
31242ION     NA48090  10.481  15.931  11.283 -0.1125 -0.1315 -0.1857
31243ION     NA48091   9.780   1.519   6.107 -0.0606  0.0266 -0.1594
31244ION     NA48092   7.506   5.863  13.590 -0.4254 -0.2142  0.0315
31245ION     NA48093   5.178   8.808   2.130 -0.0898  0.1069  0.1493
31246ION     NA48094   0.960   5.855   5.984 -0.0250  0.0019  0.1104
31247ION     NA48095  11.376   2.018  10.698 -0.3007  0.3239  0.1640
31248ION     NA48096   9.844   2.859  16.321 -0.0590 -0.2652  0.1949
31249ION     NA48097  13.750  13.092   1.313  0.3119  0.2024  0.1435
31250ION     NA48098   9.887  10.980  15.454  0.2883 -0.2132  0.0474
31251ION     NA48099   7.362  12.643   6.138  0.2417 -0.0075 -0.3422
31252ION     NA48100   5.617  13.907  11.844 -0.2335 -0.1672  0.0607
31253ION     NA48101   2.301  14.154   4.344  0.0028 -0.0446 -0.0700
31254ION     NA48102   8.087   5.636  10.990 -0.1944  0.0068 -0.0624
31255ION     NA48103   0.092   4.152   6.115  0.0879 -0.0154  0.2039
31256ION     NA48104   4.949  17.637  15.306  0.0052  0.2487  0.2279
31257ION     NA48105   6.623   0.458  10.940  0.0378  0.0251 -0.0172
31258ION     NA48106  17.060   5.994  10.767 -0.1311 -0.0793  0.0944
31259ION     NA48107   9.063   5.536   3.643  0.2289 -0.0543  0.0740
31260ION     NA48108   9.982   1.061   5.378  0.0654  0.1983  0.0201
31261ION     NA48109   9.006   1.972   6.022  0.0663 -0.1030 -0.0587
31262ION     NA48110   3.374   5.684   6.106  0.2506 -0.1663 -0.0345
31263ION     NA48111   8.601  10.830  10.689  0.0891  0.0428  0.0116
31264ION     NA48112  13.582   7.640   0.069 -0.3648 -0.2617  0.3840
31265ION     NA48113   0.436   5.268  14.754  0.4301  0.2151  0.0320
31266ION     NA48114   2.421   7.105  13.518  0.2395  0.0569  0.2085
31267ION     NA48115   9.679  12.340  11.436 -0.1067  0.2637 -0.1135
31268ION     NA48116  12.213  13.262  14.692 -0.1008 -0.1827 -0.0582
31269ION     NA48117   2.743  15.948   4.634  0.1508  0.4208  0.1180
31270ION     NA48118  17.406   6.196  14.492  0.1141  0.2107  0.3848
31271ION     NA48119  12.823   0.570  10.152  0.0169 -0.1088 -0.0610
31272ION     NA48120   8.263   4.951   0.545  0.0897  0.0906  0.2428
31273ION     NA48121  12.857  10.287  11.827  0.0954  0.1815 -0.0644
31274ION     NA48122  15.737  10.198  14.351 -0.1791  0.0925  0.0349
31275ION     NA48123  12.378  16.669  15.865  0.1378 -0.2127 -0.2960
31276ION     NA48124  10.543  10.323   3.933 -0.0021  0.3301 -0.0279
31277ION     NA48125  15.298  13.956   4.094 -0.0784  0.2024 -0.0659
31278ION     NA48126  14.168   8.760   2.824  0.2160 -0.0647 -0.0396
31279ION     NA48127  15.674   0.085  15.452 -0.1849 -0.0833 -0.0673
31280ION     NA48128   7.242   1.401  14.004 -0.0202  0.1791 -0.1239
31281ION     NA48129  11.731  13.878  16.383  0.3071 -0.0905 -0.2004
31282ION     NA48130   1.685  13.598   5.862  0.1688 -0.2225  0.1834
31283ION     NA48131  16.535   2.611  10.975  0.1202  0.2677  0.1797
31284ION     NA48132   7.986   9.435  16.085 -0.1972 -0.2758  0.2462
31285ION     NA48133   5.422   2.169  10.872 -0.0145 -0.0153  0.1711
31286ION     NA48134  15.310  16.566   3.403 -0.1288 -0.5523  0.0633
31287ION     NA48135  15.564   6.829   4.372 -0.0011 -0.0928  0.0414
31288ION     NA48136  15.296   8.297   1.745  0.0931 -0.0067 -0.1530
31289ION     NA48137   6.507   5.500   6.076 -0.0794  0.1120  0.1076
31290ION     NA48138  17.513   0.188  10.435 -0.1209 -0.1770  0.0195
31291ION     NA48139  13.104   0.532   1.190  0.0120 -0.0194  0.0280
31292ION     NA48140  15.960   1.794  10.769  0.1007 -0.0549  0.1694
31293ION     NA48141  15.554   1.344   1.229 -0.0793 -0.0678 -0.1430
31294ION     NA48142   8.627  12.379   2.821  0.3982  0.0148 -0.0290
31295ION     NA48143  12.442   6.037   5.819  0.2938  0.2194 -0.4009
31296ION     NA48144   8.434   3.352   5.396 -0.0300  0.0536  0.2580
31297ION     NA48145  13.181   1.066  10.857  0.2657 -0.1617  0.2852
31298ION     NA48146  11.988  16.808   5.488  0.1467 -0.1329  0.1401
31299ION     NA48147  17.424   0.316   0.019  0.3886 -0.1047 -0.1416
31300ION     NA48148   5.939   9.540   0.319  0.3184 -0.2372  0.1217
31301ION     NA48149  11.432  16.157   5.598 -0.2336  0.1697  0.0939
31302ION     NA48150   3.620   9.422  11.348  0.1044  0.0523 -0.0806
31303ION     NA48151   9.763   5.553  11.135 -0.4053  0.1469  0.0930
31304ION     NA48152  11.256  10.725  11.027  0.0079 -0.2557  0.0069
31305ION     NA48153   7.182   6.111   1.035 -0.0139 -0.0591 -0.0169
31306ION     NA48154   9.700  15.942   6.463 -0.0831 -0.1221 -0.2879
31307ION     NA48155  12.633  17.561   5.415 -0.1020  0.0245 -0.1358
31308ION     NA48156  14.474  13.692  12.917 -0.0328 -0.2160  0.0413
31309ION     NA48157  16.116   3.468  10.978  0.0970 -0.2024 -0.0566
31310ION     NA48158   8.629  15.989  10.977 -0.1103 -0.1879  0.0716
31311ION     NA48159   4.551   2.123   6.169  0.0596 -0.1223 -0.0715
31312ION     NA48160   3.813  14.074   6.096 -0.1116  0.1741  0.0780
31313ION     NA48161   6.907   8.892  15.403 -0.1307  0.0603  0.4211
31314ION     NA48162   9.460   1.732   4.364  0.0899 -0.1897  0.0076
31315ION     NA48163   4.084  16.737   0.926 -0.1390 -0.1545 -0.0649
31316ION     NA48164   8.770   2.871   6.134 -0.0899  0.1938 -0.2372
31317ION     NA48165   0.460  10.662   5.783 -0.2708 -0.0729 -0.0826
31318ION     NA48166  11.389   0.864   1.709  0.0880 -0.0443 -0.0255
31319ION     NA48167  15.931   1.004  10.720  0.0377  0.4363 -0.0775
31320ION     NA48168  15.867   0.816   5.609 -0.1062 -0.2047  0.1742
31321ION     NA48169   8.520  17.785   4.197 -0.1821 -0.1193 -0.2631
31322ION     NA48170  10.921  11.528  14.981  0.1672  0.0066  0.1609
31323ION     NA48171  14.747   5.895  16.067  0.1116 -0.1549  0.0817
31324ION     NA48172  13.491   4.694  10.359  0.0238 -0.2904 -0.4201
31325ION     NA48173  11.342   7.823  14.923  0.1158 -0.0313  0.2345
31326ION     NA48174  12.630  14.144  10.526 -0.1554  0.0624 -0.1200
31327ION     NA48175  16.228  16.727   5.375  0.0144 -0.0776  0.1200
31328ION     NA48176   8.314  16.052   5.697  0.1693 -0.0924 -0.1735
31329ION     NA48177   8.795   9.214  10.589 -0.1127 -0.0077  0.1372
31330ION     NA48178   1.554   7.013   6.030  0.2189 -0.1020  0.0722
31331ION     NA48179   0.760  13.930   5.764  0.1926 -0.1768 -0.0004
31332ION     NA48180  14.161   4.992  13.477  0.1796  0.1286  0.3000
31333ION     NA48181  12.657  14.401   4.068 -0.0541  0.0566  0.1293
31334ION     NA48182  16.845   3.243  12.179 -0.0195 -0.0841  0.1354
31335ION     NA48183   0.845   6.281  10.630 -0.1391 -0.1100  0.1927
31336ION     NA48184  14.945   4.392   0.670 -0.1378  0.0911 -0.2957
31337ION     NA48185  11.547  17.397  13.266 -0.0849  0.0778  0.0457
31338ION     NA48186  13.330  17.234   2.611  0.0128  0.1312  0.4095
31339ION     NA48187  13.004  15.078   5.511 -0.3115  0.0569 -0.1400
31340ION     NA48188   0.928   8.491  14.400 -0.1918 -0.0496 -0.1814
31341ION     NA48189   1.619   1.651   6.134 -0.2212  0.1324  0.0886
31342ION     NA48190  11.512   6.837  14.343  0.0144  0.2851  0.0295
31343ION     NA48191   8.691  12.427   6.088 -0.0230  0.0665  0.0483
31344ION     NA48192   0.374   4.836  10.684  0.3061  0.0851  0.0632
31345ION     NA48193   0.871  13.743  13.780  0.1717  0.0634 -0.2101
31346ION     NA48194  10.960   9.669   6.289  0.0693 -0.3154 -0.0526
31347ION     NA48195  16.356  16.286  10.400  0.1660  0.1099  0.3040
31348ION     NA48196   6.074  14.853  14.692 -0.0922 -0.2268  0.0672
31349ION     NA48197   4.235  13.320   0.446  0.0433 -0.1526  0.0170
31350ION     NA48198  14.550   3.006  16.188 -0.0218 -0.0189  0.2058
31351ION     NA48199  14.733   5.786  11.772 -0.0582 -0.0125 -0.0128
31352ION     NA48200   3.558   8.836  16.352  0.1925 -0.3621  0.1405
31353ION     NA48201  11.557  14.509   5.665  0.2035  0.2390  0.2841
31354ION     NA48202  17.304   5.016  10.805 -0.2166 -0.2295  0.2028
31355ION     NA48203   8.299   7.026   5.772 -0.0077  0.0580  0.0212
31356ION     NA48204   5.438   9.664   6.243 -0.1773  0.1771 -0.1544
31357ION     NA48205  15.518  11.755   5.640  0.3923 -0.0500  0.3889
31358ION     NA48206   9.608   0.848   0.275  0.1147 -0.3204  0.2678
31359ION     NA48207   0.163  13.550   0.629 -0.0121  0.4967  0.0695
31360ION     NA48208  16.783   0.883  11.559  0.0013  0.0646 -0.2354
31361ION     NA48209   0.557  15.760   0.010 -0.2888 -0.0610  0.1205
31362ION     NA48210   5.349  13.951   6.196  0.3525  0.1830 -0.1219
31363ION     NA48211  10.177  15.575   6.053  0.1314 -0.1945  0.1356
31364ION     NA48212   7.897  11.944   5.821 -0.1914  0.0831 -0.3864
31365ION     NA48213   8.167  17.544  11.056  0.0668 -0.1649 -0.1133
31366ION     NA48214   0.560  15.054   3.978  0.1913  0.2792  0.2314
31367ION     NA48215   8.827  13.240   0.592  0.0455  0.1501  0.0953
31368ION     NA48216  15.560   1.752  11.966 -0.0892  0.0113 -0.1209
31369ION     NA48217  12.359   7.053  15.310 -0.1078 -0.1715  0.1109
31370ION     NA48218  14.327   0.441  10.844 -0.2389  0.0327  0.0965
31371ION     NA48219  12.596   4.143  10.814  0.0118 -0.0942  0.0437
31372ION     NA48220  17.502   2.321   5.955 -0.2977  0.1162 -0.2765
31373ION     NA48221   1.732   1.304  10.616  0.0062 -0.3112 -0.3708
31374ION     NA48222   7.332   9.054   3.204  0.0087  0.1191  0.0775
31375ION     NA48223  12.506  13.143  10.552 -0.2236  0.1203 -0.1082
31376ION     NA48224  14.818   7.259   3.247 -0.1463 -0.2164 -0.0614
31377ION     NA48225   0.153  16.275  15.619  0.1175  0.2918 -0.2425
31378ION     NA48226  17.106   7.306   5.906 -0.0074 -0.0825  0.0916
31379ION     NA48227   3.695  14.198  10.524 -0.2553 -0.1607 -0.1276
31380ION     NA48228   4.793   6.030  11.258 -0.3682 -0.0802  0.1776
31381ION     NA48229   0.691  15.600   5.406 -0.2577  0.0713  0.1766
31382ION     NA48230   4.716  10.171   6.251 -0.1745  0.1782  0.0952
31383ION     NA48231  14.527  16.563  10.290 -0.1014  0.1272 -0.0283
31384ION     NA48232   6.304   8.635   4.896  0.1246  0.1913 -0.0517
31385ION     NA48233   0.598   2.159  14.715 -0.0077  0.1583 -0.0440
31386ION     NA48234   1.233  11.381   3.578  0.1659 -0.2324  0.0184
31387ION     NA48235  14.109   4.387   4.254 -0.1046  0.3058  0.0359
31388ION     NA48236  14.912  10.947   5.645 -0.0709  0.1818  0.0361
31389ION     NA48237   1.572   0.130  14.039 -0.2510  0.1336 -0.1745
31390ION     NA48238  16.433   4.555  10.862 -0.0390 -0.1182 -0.2745
31391ION     NA48239   6.141   6.289   6.011 -0.1535  0.3319 -0.2384
31392ION     NA48240   5.427  17.203  10.769 -0.3247 -0.0226 -0.1267
31393ION     NA48241   4.230  16.562   2.090 -0.0012 -0.0960  0.1851
31394ION     NA48242   2.274   8.988   2.336 -0.0694  0.1659 -0.1423
31395ION     NA48243  13.449   2.616  12.700  0.0572  0.2682 -0.0407
31396ION     NA48244   2.339   9.510  14.578 -0.4225  0.0539  0.0762
31397ION     NA48245   5.809  16.852  11.695 -0.0090 -0.0291  0.0678
31398ION     NA48246  10.476  13.437   3.126  0.0071  0.2427 -0.0316
31399ION     NA48247   6.627   4.479   6.072  0.1810 -0.1296  0.0179
31400ION     NA48248   0.495   8.010   5.676 -0.0156 -0.1291 -0.0448
31401ION     NA48249   3.225   2.094   4.687 -0.2881  0.0766 -0.1387
31402ION     NA48250   7.042   6.642  10.949  0.5473 -0.0692 -0.0177
31403ION     NA48251   1.865   5.328  10.756  0.0419 -0.0412 -0.1759
31404ION     NA48252  12.213   2.175   4.302 -0.0740  0.0666  0.1697
31405ION     NA48253   1.378   9.581  13.922 -0.3098  0.1535 -0.2847
31406ION     NA48254  10.635  12.964   3.961 -0.1286 -0.1356 -0.0128
31407ION     NA48255   5.488  17.262  12.813 -0.0896 -0.2197 -0.0144
31408ION     NA48256  11.896   0.119  10.313  0.0457  0.2829  0.1909
31409ION     NA48257   9.088  11.448   4.925  0.2443 -0.0206 -0.0224
31410ION     NA48258   7.608   4.282   6.088  0.1518 -0.0755 -0.2274
31411ION     NA48259   4.339   5.429   6.179  0.0818  0.0555  0.1912
31412ION     NA48260  10.311  11.824  10.822 -0.0930 -0.1908 -0.1441
31413ION     NA48261  17.883  14.645   4.789 -0.5067 -0.0908  0.0089
31414ION     NA48262  16.453   2.138  15.765  0.1412  0.1784 -0.0363
31415ION     NA48263   0.349  12.479  16.304 -0.0152  0.0073  0.3192
31416ION     NA48264  15.776   5.726   1.720 -0.2485  0.1834  0.1107
31417ION     NA48265  10.697   5.467  10.848 -0.1127  0.0318  0.3155
31418ION     NA48266   1.601  15.794  10.209 -0.4570  0.2190 -0.0583
31419ION     NA48267   5.984  11.348  10.831  0.3068 -0.1798  0.0701
31420ION     NA48268  17.694  10.402  16.024 -0.0399  0.0889  0.3445
31421ION     NA48269   9.157  17.806   6.202 -0.1587 -0.4210  0.0188
31422ION     NA48270   5.228  14.547  15.647  0.0804 -0.0385  0.0586
31423ION     NA48271  10.018   9.935   3.129  0.1011  0.1538  0.1802
31424ION     NA48272  13.772  16.838  10.283 -0.1188  0.0555  0.1367
31425ION     NA48273   4.655  12.770  10.603  0.1067 -0.0451 -0.0720
31426ION     NA48274   3.087  11.818  10.596  0.0612  0.0742  0.1068
31427ION     NA48275  17.209  16.748   1.740  0.1389 -0.0441  0.0159
31428ION     NA48276   9.604  10.662  14.101  0.1882 -0.0458  0.0203
31429ION     NA48277   3.570  16.798   6.232  0.1190 -0.2365 -0.0807
31430ION     NA48278   6.463  12.039  15.471 -0.0310 -0.1066  0.1752
31431ION     NA48279   7.447   5.311   5.980  0.0035  0.0639  0.1171
31432ION     NA48280   1.626   4.469  10.781  0.0854  0.1106  0.3317
31433ION     NA48281  16.746   4.377   1.009 -0.1985  0.2348  0.0081
31434ION     NA48282   0.965   7.550  16.455 -0.2255  0.1561 -0.0179
31435ION     NA48283  10.037   8.563  10.566  0.0288 -0.1235 -0.0424
31436ION     NA48284   1.978   5.193  13.221 -0.0012 -0.2200  0.0260
31437ION     NA48285   1.255   8.276   5.970  0.3374  0.2472 -0.1565
31438ION     NA48286  15.926  10.122   0.173  0.0388 -0.2605 -0.0312
31439ION     NA48287  15.675   2.153   5.815 -0.1293 -0.0692  0.0012
31440ION     NA48288  16.056   9.870  10.628  0.1261 -0.2135 -0.1144
31441ION     NA48289   8.272   8.965   3.291 -0.0439 -0.1454  0.2154
31442ION     NA48290  17.663  11.122   5.710  0.2139  0.2921 -0.2773
31443ION     NA48291   3.254   5.331   4.213  0.1375 -0.0159 -0.1318
31444ION     NA48292   3.790  17.480   6.296  0.0121  0.0309  0.0237
31445ION     NA48293   1.866  13.855  12.960  0.0506  0.0120  0.1724
31446ION     NA48294  15.981   9.922   5.657  0.3109  0.2302  0.1726
31447ION     NA48295  14.286  14.231   5.466  0.1344 -0.1980 -0.1250
31448ION     NA48296   7.106  16.485   3.028  0.0031 -0.2998  0.1695
31449ION     NA48297  13.565   0.859  15.262  0.2228  0.0674 -0.2034
31450ION     NA48298   0.585   6.880  12.261  0.2421  0.1473 -0.0081
31451ION     NA48299   1.928   7.727   6.213  0.0157 -0.1402 -0.0674
31452ION     NA48300  11.159  11.598  10.904 -0.0720 -0.0229  0.2030
31453ION     NA48301   5.845   5.133   5.437  0.0192  0.0080  0.2733
31454ION     NA48302   4.775  16.987  12.582  0.0353 -0.0933  0.0144
31455ION     NA48303   7.421   8.081   4.871 -0.0783 -0.0241 -0.1826
31456ION     NA48304   3.731   0.342  12.397  0.1042 -0.2497  0.1054
31457ION     NA48305   3.685   9.987   3.921 -0.1645  0.0056  0.0040
31458ION     NA48306  12.308   8.359   4.856  0.1593 -0.0355  0.0132
31459ION     NA48307  11.612   4.013  11.997 -0.0144  0.0469 -0.1741
31460ION     NA48308  14.987   0.291   5.538  0.1403 -0.0136 -0.1714
31461ION     NA48309   6.929   4.239  15.713 -0.0382 -0.0958 -0.0451
31462ION     NA48310  15.057  14.664   3.886  0.0602  0.0831  0.1037
31463ION     NA48311   5.153  16.225  12.719 -0.2600  0.2264  0.0620
31464ION     NA48312   7.149   9.190   4.182  0.2156 -0.2530  0.0154
31465ION     NA48313  15.670  15.672  10.122  0.2630 -0.0890 -0.2433
31466ION     NA48314  16.149  11.023  12.450 -0.3247  0.5214  0.0410
31467ION     NA48315  16.037   6.681  10.676 -0.0375 -0.0873 -0.1190
31468ION     NA48316  15.387  12.769  12.537  0.1637  0.2689  0.1925
31469ION     NA48317  15.346  11.822   2.465  0.0455  0.0042  0.0227
31470ION     NA48318  17.581   1.390  15.654 -0.0155 -0.0701 -0.0421
31471ION     NA48319  13.836   4.806   5.693  0.0013  0.2726  0.0359
31472ION     NA48320  15.479  13.085  13.696 -0.1199 -0.1209 -0.3415
31473ION     NA48321  16.623   8.635   3.131  0.1327  0.0857  0.0360
31474ION     NA48322  14.658  14.833  15.218  0.1492  0.3124  0.1894
31475ION     NA48323   5.602   8.439   2.269  0.1624 -0.2462  0.1090
31476ION     NA48324   4.044  12.049  10.381  0.2078  0.1882 -0.1670
31477ION     NA48325  13.866   3.362  10.744 -0.0590 -0.1923  0.1086
31478ION     NA48326   3.165  12.717  10.664  0.0816  0.0125 -0.2589
31479ION     NA48327  12.277  15.369   4.935 -0.1587  0.1203 -0.2262
31480ION     NA48328  10.234  13.898  12.735  0.0241 -0.0123 -0.1874
31481ION     NA48329  11.710   9.347  12.748  0.1322 -0.1865 -0.0424
31482ION     NA48330  10.692  14.687   6.014 -0.0832 -0.0474  0.0085
31483ION     NA48331  12.610  12.730   5.967  0.1436 -0.0553 -0.2688
31484ION     NA48332   6.889  13.084  14.110  0.0078  0.0472  0.1453
31485ION     NA48333   1.812   2.895   1.380 -0.1475 -0.0226 -0.0316
31486ION     NA48334   0.117  16.059   1.128 -0.1000 -0.3542 -0.1098
31487ION     NA48335  12.848   3.582   5.962  0.0797  0.1487  0.1382
31488ION     NA48336   2.457   5.309  10.614 -0.0034 -0.1054 -0.0274
31489ION     NA48337   1.529   5.926   5.836  0.2924 -0.2617 -0.0967
31490ION     NA48338   2.401   6.745   6.273  0.0555  0.0292 -0.2323
31491ION     NA48339  13.741  17.439  13.965 -0.0578  0.1312  0.0269
31492ION     NA48340   6.365  13.543   2.505  0.3060 -0.0114  0.1523
31493ION     NA48341   6.453  13.864   6.250  0.1063  0.1703  0.0877
31494ION     NA48342  15.207  17.204  10.713 -0.3105  0.1383 -0.2939
31495ION     NA48343  10.687  14.777  10.709  0.1139  0.1169  0.0571
31496ION     NA48344   3.502  14.330   0.574 -0.0145  0.1545 -0.0423
31497ION     NA48345  12.881  14.682  15.400  0.2105  0.0050 -0.3142
31498ION     NA48346   6.603  11.112   2.719 -0.1435  0.0923 -0.3701
31499ION     NA48347   5.093  15.884  11.494  0.0744 -0.1464 -0.1319
31500ION     NA48348  14.637   8.425   5.171  0.0036  0.0233 -0.2019
31501ION     NA48349   8.166   9.970  10.501 -0.0251 -0.0540 -0.2590
31502ION     NA48350  10.707   3.143   5.875 -0.0590  0.0499 -0.0060
31503ION     NA48351  10.884  12.984  11.834 -0.1031  0.1000 -0.2267
31504ION     NA48352   1.827   9.578  10.546  0.2297  0.0658 -0.0989
31505ION     NA48353   1.590   3.489   5.900  0.1817 -0.1403  0.0084
31506ION     NA48354   2.726  10.323  15.323  0.0866 -0.3471  0.0079
31507ION     NA48355  14.301  11.739   5.758  0.0523 -0.2311 -0.2922
31508ION     NA48356  13.760  16.071   5.049 -0.0180  0.1116 -0.0506
31509ION     NA48357   8.069  16.690  10.864 -0.0255 -0.3407 -0.1461
31510ION     NA48358   1.672  12.375   5.912 -0.0770  0.1885  0.0083
31511ION     NA48359   4.206  13.040   3.587 -0.0006 -0.0255  0.2700
31512ION     NA48360  13.666  11.436  11.255  0.2836  0.0029 -0.0142
31513ION     NA48361  15.281  12.687   5.577  0.0239 -0.1306  0.2128
31514ION     NA48362   5.683   4.474   0.646  0.1555  0.0344  0.0989
31515ION     NA48363  10.088   3.644   4.339  0.2404 -0.1801 -0.2981
31516ION     NA48364  17.197   8.434  10.741  0.1174 -0.0805 -0.0013
31517ION     NA48365   6.656  16.309  10.975  0.0814  0.0705  0.2382
31518ION     NA48366  17.482  14.868  12.978  0.2879  0.2220  0.1951
31519ION     NA48367   9.324  14.232   0.733  0.0912 -0.3571 -0.0557
31520ION     NA48368  12.553  11.961  12.721 -0.4211 -0.1157  0.0325
31521ION     NA48369  16.252   5.664  10.923 -0.0046 -0.2028  0.3353
31522ION     NA48370   9.317  12.641   5.262 -0.0619 -0.1835  0.0939
31523ION     NA48371  16.289  14.783   4.573 -0.1661  0.2325  0.0584
31524ION     NA48372   2.244  15.522  12.231  0.3532 -0.1802 -0.3209
31525ION     NA48373  17.220   5.612  11.976  0.0723  0.1110 -0.0709
31526ION     NA48374  17.448   8.095   5.841 -0.2643  0.1078  0.0077
31527ION     NA48375  17.363  16.506   5.272 -0.0638 -0.2719 -0.2890
31528ION     NA48376  14.390  16.716   5.362 -0.2200  0.2301 -0.1508
31529ION     NA48377   3.182   5.377   0.183  0.2936 -0.1234 -0.3038
31530ION     NA48378   9.545  13.000   6.200 -0.1984  0.0722 -0.1654
31531ION     NA48379   3.367   2.286   5.739  0.0120  0.0544 -0.1784
31532ION     NA48380  13.957  15.939  10.528 -0.1481 -0.0823  0.1063
31533ION     NA48381   0.009  13.467   5.561  0.0092 -0.5179 -0.1365
31534ION     NA48382   4.019   3.886   6.295 -0.1763  0.0509  0.0379
31535ION     NA48383  16.552  13.745   3.427  0.1851  0.0329  0.0674
31536ION     NA48384   0.086   6.181  10.964  0.1413 -0.2620  0.0585
31537ION     NA48385  15.373  10.346  13.263 -0.1280 -0.0234 -0.1526
31538ION     NA48386   1.416  10.121   6.119  0.0957 -0.4072 -0.0456
31539ION     NA48387  12.777   9.608  10.998  0.1531  0.1138 -0.1054
31540ION     NA48388   0.891  14.697   5.368  0.1376  0.3513 -0.0826
31541ION     NA48389   9.506  11.258  11.043 -0.1660 -0.2639 -0.0499
31542ION     NA48390   1.108   5.260   0.534 -0.1272 -0.0290  0.2350
31543ION     NA48391  12.908   6.403  10.212  0.1553  0.1060 -0.0519
31544ION     NA48392  17.268  14.156  12.652 -0.0231  0.2059 -0.0800
31545ION     NA48393   3.168   1.143   3.413 -0.0597  0.2944 -0.0697
31546ION     NA48394   0.901  10.247  10.411  0.1979  0.1554  0.0108
31547ION     NA48395  14.517  13.294   5.629  0.3113  0.3645 -0.2139
31548ION     NA48396   0.775  13.895  10.432  0.3478  0.0883 -0.0054
31549ION     NA48397  14.650  13.959  14.838  0.1956  0.1274  0.3926
31550ION     NA48398  15.081   3.436   3.222  0.0446 -0.0009  0.2562
31551ION     NA48399   8.637   7.475  10.633  0.0335  0.2581 -0.0504
31552ION     NA48400  13.503   5.571   4.140  0.0310  0.1259  0.1511
31553ION     NA48401   4.691   6.070   1.588  0.1538  0.0298  0.1813
31554ION     NA48402   0.214  13.307  15.243 -0.0407  0.0446 -0.1939
31555ION     NA48403  13.614   5.676   0.259 -0.2153  0.1912  0.0470
31556ION     NA48404  15.651   7.141  14.478 -0.3247  0.1067 -0.1782
31557ION     NA48405  11.958  15.414  12.394 -0.0054  0.0215  0.2829
31558ION     NA48406  12.276  11.658   1.338 -0.0251 -0.0325 -0.2229
31559ION     NA48407  17.779  17.765   1.479 -0.0272 -0.0171  0.1799
31560ION     NA48408   3.117  17.242  10.509 -0.1922 -0.0161 -0.1211
31561ION     NA48409   9.269  14.266   6.256  0.2879  0.2602 -0.4469
31562ION     NA48410  13.020   2.013  13.259 -0.1639 -0.1119  0.0431
31563ION     NA48411  14.663  12.385   1.992 -0.3656 -0.3134  0.0579
31564ION     NA48412   8.229   6.536   0.108 -0.1516  0.3118 -0.1867
31565ION     NA48413  11.290  12.484  13.724  0.2572 -0.0626  0.1319
31566ION     NA48414  14.785  15.582   5.391  0.4950  0.2315 -0.0402
31567ION     NA48415   0.170  14.759   0.002  0.1183 -0.3151 -0.3190
31568ION     NA48416   4.519   2.698  10.609  0.2172 -0.2034 -0.0422
31569ION     NA48417  10.745   9.596  10.815 -0.1292  0.2525  0.1674
31570ION     NA48418  16.116   2.672   0.493  0.0324 -0.0404 -0.2636
31571ION     NA48419   1.390  16.271  15.061 -0.0480  0.0850  0.0827
31572ION     NA48420  14.354  10.512   3.663  0.3203  0.0699 -0.1884
31573ION     NA48421   5.207   3.486  16.028 -0.3149 -0.1068  0.0491
31574ION     NA48422   0.406   9.797   4.306  0.3098 -0.0115 -0.1795
31575ION     NA48423  11.610   6.047   2.931  0.0127 -0.0174 -0.1111
31576ION     NA48424  15.723   8.915  10.712  0.0622  0.3646  0.1375
31577ION     NA48425  13.025   9.449   0.995 -0.1924 -0.0064  0.1398
31578ION     NA48426   9.011   9.415   3.745 -0.2154  0.0192  0.5763
31579ION     NA48427  15.436   6.801   5.855 -0.2754 -0.1703 -0.0442
31580ION     NA48428  16.909   5.283  15.447 -0.1196 -0.2030 -0.1880
31581ION     NA48429  13.348  14.369   5.232  0.2208  0.3408 -0.1107
31582ION     NA48430   8.704  10.807   4.428  0.0606 -0.2412  0.4409
31583ION     NA48431  12.849   2.543   5.930  0.5162 -0.2143  0.0465
31584ION     NA48432   7.171   8.448   5.871 -0.3752 -0.1393  0.1116
31585ION     NA48433   3.995   5.378  10.627 -0.0471  0.2423 -0.2867
31586ION     NA48434  13.865  15.142   5.450  0.2411 -0.0774 -0.0162
31587ION     NA48435   7.363  17.233   3.817 -0.2412  0.1027  0.1396
31588ION     NA48436  16.469  14.671   5.128  0.2857 -0.0425  0.1624
31589ION     NA48437   7.812  11.022   6.055  0.1652  0.1675  0.2386
31590ION     NA48438   0.819   4.262   6.059  0.1153 -0.2205 -0.1733
31591ION     NA48439   3.951   9.610   5.093  0.0976  0.3743  0.0240
31592ION     NA48440  17.331  12.412   1.352 -0.2655 -0.1693  0.2006
31593ION     NA48441   4.594  14.388   6.314 -0.1202  0.1303 -0.0116
31594ION     NA48442  15.139  15.319  16.221  0.2632 -0.0692 -0.0343
31595ION     NA48443   5.570  16.187   3.357  0.2045  0.1535 -0.1427
31596ION     NA48444   9.048   8.510   6.421  0.2896 -0.1449  0.2182
31597ION     NA48445  15.788   5.870   5.836  0.0060 -0.0162  0.1045
31598ION     NA48446   8.357  11.694  10.927 -0.0318 -0.1438 -0.2722
31599ION     NA48447   2.644   0.139  10.986  0.0538 -0.0508  0.1667
31600ION     NA48448   9.623  11.856  15.819  0.4410 -0.1255 -0.0691
31601ION     NA48449  13.620  14.009  10.522  0.2041 -0.0791 -0.1213
31602ION     NA48450   8.219  11.490  14.953 -0.0828 -0.1145 -0.1223
31603ION     NA48451  12.475   9.959   5.971 -0.0856 -0.0614 -0.4349
31604ION     NA48452   1.995  17.333   6.346  0.0883 -0.0925 -0.0471
31605ION     NA48453   2.670   2.763  14.789 -0.1321  0.1098  0.0536
31606ION     NA48454  13.777  11.404  12.264  0.0667 -0.2391 -0.0697
31607ION     NA48455  10.334  17.375   6.118  0.1211 -0.0336  0.4028
31608ION     NA48456   0.215   2.558   0.884 -0.0398  0.1464  0.0910
31609ION     NA48457   5.160   0.769   2.737 -0.1926 -0.0319  0.1384
31610ION     NA48458   6.658  16.583  12.501 -0.0284  0.3431  0.1470
31611ION     NA48459   6.068  17.401   0.153 -0.0596 -0.0266 -0.2554
31612ION     NA48460   0.260   5.751   2.587  0.2349  0.6044  0.1209
31613ION     NA48461   2.183   9.577   6.153  0.2709 -0.0238 -0.2430
31614ION     NA48462   3.725  15.425   0.577  0.0479 -0.2264 -0.1116
31615ION     NA48463   2.249  14.444   5.564 -0.0089 -0.1103 -0.0125
31616ION     NA48464  14.241   8.823  15.217  0.1643 -0.1755 -0.0377
31617ION     NA48465   7.842  12.801   5.894  0.1065 -0.1921  0.1587
31618ION     NA48466  13.785   6.553   5.732 -0.1089  0.1017 -0.1604
31619ION     NA48467   9.276   3.146  10.599 -0.1390 -0.0397 -0.2060
31620ION     NA48468  13.704   6.693  10.441 -0.1556 -0.4142  0.0987
31621ION     NA48469  16.628   1.463  13.391 -0.0332  0.1221 -0.0611
31622ION     NA48470  17.395   5.294   2.342  0.1207 -0.0195  0.2374
31623ION     NA48471   4.578  16.334   0.228 -0.2492  0.0117 -0.0661
31624ION     NA48472   1.139   2.811  13.288 -0.0610  0.3346 -0.0591
31625ION     NA48473   8.794  13.341   6.100  0.1381  0.0610 -0.2149
31626ION     NA48474   2.976   9.113   4.936 -0.0306 -0.2751  0.4283
31627ION     NA48475   3.620  15.714   5.818 -0.2247 -0.0129  0.1049
31628ION     NA48476   1.391  12.193  10.366 -0.0481  0.1664  0.0766
31629ION     NA48477   9.581  16.829  12.424  0.1788 -0.2336  0.2656
31630ION     NA48478   8.628  16.395  16.440  0.0500 -0.1744  0.0022
31631ION     NA48479   0.649  10.521   1.453  0.1829 -0.0071  0.0586
31632ION     NA48480  10.528   8.737   5.937  0.0546  0.0295 -0.0124
31633ION     NA48481  12.026  12.398  10.855  0.1273  0.0581  0.1113
31634ION     NA48482   9.625   6.960   3.189 -0.0812 -0.3300  0.1677
31635ION     NA48483   2.915   8.121  10.505 -0.1301  0.0157 -0.0153
31636ION     NA48484   0.262   8.042  10.868  0.2202  0.1136  0.3689
31637ION     NA48485  13.989  13.690  15.547 -0.2405  0.1219 -0.0065
31638ION     NA48486  11.837   4.634   4.319  0.0331 -0.0681  0.1278
31639ION     NA48487   9.004   4.474  13.836 -0.1822  0.3316  0.0017
31640ION     NA48488  14.011   3.739  15.875  0.2198  0.0165 -0.0346
31641ION     NA48489   8.267  13.973   3.136  0.1947  0.0439 -0.1373
31642ION     NA48490  16.564  11.020   1.566 -0.0387  0.0585  0.1126
31643ION     NA48491  10.534  12.063   0.866 -0.2511 -0.0415 -0.0188
31644ION     NA48492   9.753   5.196   1.328 -0.5225  0.1245  0.2426
31645ION     NA48493   8.649   5.056  11.392 -0.0960 -0.1198 -0.0933
31646ION     NA48494  17.102   9.788  10.611  0.0451  0.2011 -0.1924
31647ION     NA48495   4.968  15.509  10.611  0.0819 -0.2013  0.2468
31648ION     NA48496   2.416   6.296   5.973 -0.0753 -0.0801  0.1725
31649ION     NA48497  11.120   0.370  10.462  0.1988  0.2051  0.0757
31650ION     NA48498   0.854   1.745   6.158  0.1413  0.0802 -0.4140
31651ION     NA48499   8.071   8.681   6.147 -0.1260  0.4177 -0.2367
31652ION     NA48500   4.459  14.159   0.689 -0.2523  0.1374 -0.0301
31653ION     NA48501   4.536   3.534  12.742 -0.1246  0.0281  0.0056
31654ION     NA48502  15.608   3.870   6.021 -0.0758 -0.0379 -0.0589
31655ION     NA48503  11.914  13.566   5.557 -0.2232  0.0748  0.1168
31656ION     NA48504   7.491  13.062  15.012 -0.2852 -0.0618  0.2442
31657ION     NA48505   7.462   3.320   0.783 -0.0999 -0.0224 -0.3779
31658ION     NA48506   5.890   9.834   6.032 -0.0799  0.0861 -0.3248
31659ION     NA48507  10.405  14.098   2.541  0.2135  0.2621 -0.0829
31660ION     NA48508  12.987   9.026   5.821 -0.0809  0.2796  0.0606
31661ION     NA48509   8.172  14.092  14.179 -0.4227  0.1821 -0.0878
31662ION     NA48510   8.513  14.493   5.657  0.1305 -0.1481 -0.0675
31663ION     NA48511  13.719   5.829  10.367  0.0434  0.3229  0.0193
31664ION     NA48512   5.875   0.893   0.405  0.0390  0.2002  0.2229
31665ION     NA48513  10.839  12.884   0.259  0.4950 -0.1222  0.1225
31666ION     NA48514  14.670   9.688   3.668  0.4509  0.1007  0.1260
31667ION     NA48515   5.583  13.558  15.792 -0.1801 -0.2824 -0.1274
31668ION     NA48516   7.205  15.073  15.166  0.1782 -0.1697 -0.0570
31669ION     NA48517   0.161   9.940  11.041  0.0108  0.2749 -0.0540
31670ION     NA48518  12.952   1.594   3.462 -0.0080 -0.0291 -0.0776
31671ION     NA48519   6.444  11.372  10.737  0.0682  0.2421  0.1919
31672ION     NA48520   2.336   0.181   2.063  0.0908  0.0074  0.0575
31673ION     NA48521   7.259   4.300   2.919 -0.0857  0.1122  0.1591
31674ION     NA48522  11.657  13.232  10.755 -0.0887  0.0008  0.0913
31675ION     NA48523   5.276   9.143  13.859  0.0093  0.0923 -0.3339
31676ION     NA48524   4.577  10.484   0.292 -0.2214 -0.3225 -0.0552
31677ION     NA48525  15.226   3.888  10.632 -0.2854 -0.0978 -0.0129
31678ION     NA48526  17.489   4.905   5.963 -0.1993  0.2735 -0.0479
31679ION     NA48527  10.279  13.789   3.975  0.2093 -0.0969  0.2402
31680ION     NA48528   3.989  15.626  16.248  0.0024  0.5090  0.0652
31681ION     NA48529   6.197   7.145  15.559 -0.1170  0.1909 -0.1470
31682ION     NA48530  14.439   9.644   6.085  0.2663  0.0213  0.0716
31683ION     NA48531  15.758  14.556  14.736  0.3708  0.0292 -0.1054
31684ION     NA48532   6.380  14.646   6.516  0.1460 -0.2368  0.1599
31685ION     NA48533   4.821  16.479  10.744  0.0909  0.1933  0.0245
31686ION     NA48534  11.407  11.074   3.703 -0.0012  0.2393  0.0297
31687ION     NA48535   9.401   5.526  11.982  0.3885 -0.0727  0.3122
31688ION     NA48536   4.853   8.364   3.335  0.1639 -0.2677  0.0540
31689ION     NA48537   6.249  14.991  10.913 -0.1836  0.3096  0.2612
31690ION     NA48538  16.690  11.042   5.569  0.2297 -0.1988 -0.1811
31691ION     NA48539  11.219   0.881  10.466 -0.0302 -0.2555 -0.1186
31692ION     NA48540   5.258   0.150   5.706  0.1903 -0.2731 -0.0284
31693ION     NA48541  10.732  15.771  10.279  0.2632 -0.0022  0.1521
31694ION     NA48542   2.581  11.802   2.326 -0.0974  0.1660 -0.0480
31695ION     NA48543  10.243  16.433  16.021 -0.3283  0.0684 -0.2036
31696ION     NA48544  13.020  10.723  10.991  0.1282 -0.4343  0.1926
31697ION     NA48545   4.453   0.149   5.894 -0.0516 -0.1525 -0.4026
31698ION     NA48546   3.779   3.441   2.404 -0.0914 -0.1749 -0.0739
31699ION     NA48547  16.541   6.102   5.753  0.2128 -0.3992 -0.1119
31700ION     NA48548  10.670   4.759  13.431  0.2272  0.0928  0.0466
31701ION     NA48549   1.227  11.085  10.329  0.0804 -0.1322  0.2529
31702ION     NA48550   1.619   6.711  10.596  0.0395 -0.0791 -0.1050
31703ION     NA48551  15.782  13.815  10.305 -0.0527  0.3123 -0.0107
31704ION     NA48552  16.618   8.990   5.402 -0.0609 -0.0991 -0.1669
31705ION     NA48553   0.860  11.678   5.756 -0.0674 -0.3968 -0.0589
31706ION     NA48554   4.577   8.200   6.147 -0.1469 -0.1662 -0.2008
31707ION     NA48555  14.516   5.299  15.256  0.0369 -0.1158  0.0558
31708ION     NA48556  13.956  10.814  10.498  0.3044 -0.0160  0.0623
31709ION     NA48557  14.257   7.224  15.464 -0.2055 -0.0789  0.1787
31710ION     NA48558   3.921   7.364   6.010  0.1706 -0.0276 -0.1056
31711ION     NA48559   4.568  15.399   6.110 -0.1629  0.1648  0.2360
31712ION     NA48560   6.023  11.490   5.983 -0.1500  0.0192 -0.2706
31713ION     NA48561  14.530   5.097  10.585  0.2649 -0.0163  0.1197
31714ION     NA48562   5.573   4.432  10.927  0.0503 -0.0803 -0.3260
31715ION     NA48563  15.258  11.346  13.489 -0.0153 -0.1674 -0.0642
31716ION     NA48564   3.875   2.357  15.434 -0.2629 -0.0789 -0.0571
31717ION     NA48565  10.337   0.366  15.640 -0.0407  0.6848 -0.0457
31718ION     NA48566   9.913   5.054   0.088  0.2056 -0.3482  0.0482
  17.88774  17.88774  16.47355
